<event>
 7    1  0.2719869E-009  0.1707498E+03  0.7561462E-02  0.1177068E+00
          2   -1    0    0  501    0  0.00000000000E+00  0.00000000000E+00  0.64652906258E+03  0.64652906258E+03  0.00000000000E+00 0. -1.
         -2   -1    0    0    0  501 -0.00000000000E+00 -0.00000000000E+00 -0.58912834852E+02  0.58912834852E+02  0.00000000000E+00 0.  1.
         25    2    1    2    0    0 -0.10558800397E+03 -0.11564821500E+03  0.27502712796E+03  0.34030964061E+03  0.12508954458E+03 0.  0.
          5    1    3    3  502    0 -0.35186191946E+02 -0.22468906601E+02  0.19306607222E+03  0.19757251963E+03  0.41800000000E+01 0. -1.
         -5    1    3    3    0  502 -0.70401812020E+02 -0.93179308402E+02  0.81961055739E+02  0.14273712099E+03  0.41800000000E+01 0. -1.
        -11    1    1    2    0    0  0.11894644017E+03  0.76759893686E+02  0.19809837096E+03  0.24348162453E+03  0.00000000000E+00 0.  1.
         11    1    1    2    0    0 -0.13358436207E+02  0.38888321316E+02  0.11449072881E+03  0.12165063228E+03  0.00000000000E+00 0. -1.
</event>
<event>
 7    1  0.2719869E-009  0.1205200E+03  0.7561462E-02  0.1242242E+00
          1   -1    0    0  501    0  0.00000000000E+00  0.00000000000E+00  0.96994621516E+03  0.96994621516E+03  0.00000000000E+00 0. -1.
         -1   -1    0    0    0  501 -0.00000000000E+00 -0.00000000000E+00 -0.26889628926E+02  0.26889628926E+02  0.00000000000E+00 0.  1.
         25    2    1    2    0    0 -0.19215242668E+02 -0.72373791386E+02  0.78152204731E+03  0.79500500266E+03  0.12509617337E+03 0.  0.
          5    1    3    3  502    0 -0.54739271125E+02 -0.24028650317E+02  0.61578911257E+03  0.61869820381E+03  0.41800000000E+01 0.  1.
         -5    1    3    3    0  502  0.35524028457E+02 -0.48345141069E+02  0.16573293474E+03  0.17630679885E+03  0.41800000000E+01 0.  1.
        -11    1    1    2    0    0  0.54616949097E+02  0.20851971782E+02  0.75782606663E+02  0.95712169177E+02  0.00000000000E+00 0. -1.
         11    1    1    2    0    0 -0.35401706428E+02  0.51521819604E+02  0.85751932260E+02  0.10611867225E+03  0.00000000000E+00 0.  1.
</event>
<event>
 7    1  0.2719869E-009  0.1677425E+03  0.7561462E-02  0.1180223E+00
          2   -1    0    0  501    0  0.00000000000E+00  0.00000000000E+00  0.28832620246E+03  0.28832620246E+03  0.00000000000E+00 0. -1.
         -2   -1    0    0    0  501 -0.00000000000E+00 -0.00000000000E+00 -0.11158685520E+03  0.11158685520E+03  0.00000000000E+00 0.  1.
         25    2    1    2    0    0 -0.32617792986E+02  0.13664277252E+03  0.75396819074E+02  0.20265298210E+03  0.12509349755E+03 0.  0.
          5    1    3    3  502    0  0.43189429837E+02  0.17935912047E+02  0.14427981909E+02  0.49118864528E+02  0.41800000000E+01 0. -1.
         -5    1    3    3    0  502 -0.75807222823E+02  0.11870686047E+03  0.60968837165E+02  0.15353411758E+03  0.41800000000E+01 0. -1.
        -11    1    1    2    0    0  0.38436635660E+02 -0.63341204996E+02  0.25877608148E+01  0.74136224056E+02  0.00000000000E+00 0.  1.
         11    1    1    2    0    0 -0.58188426745E+01 -0.73301567520E+02  0.98754767372E+02  0.12312385151E+03  0.00000000000E+00 0. -1.
</event>
<event>
 7    1  0.2719869E-009  0.1019070E+03  0.7561462E-02  0.1276336E+00
          1   -1    0    0  501    0  0.00000000000E+00  0.00000000000E+00  0.25182134819E+03  0.25182134819E+03  0.00000000000E+00 0. -1.
         -1   -1    0    0    0  501 -0.00000000000E+00 -0.00000000000E+00 -0.73699287349E+02  0.73699287349E+02  0.00000000000E+00 0.  1.
         25    2    1    2    0    0 -0.76191849175E+02  0.56330458492E+01  0.13499334084E+03  0.19926792505E+03  0.12509026659E+03 0.  0.
          5    1    3    3  502    0 -0.62979362307E+02 -0.29271355186E+02  0.11915439647E+02  0.70587976406E+02  0.41800000000E+01 0.  1.
         -5    1    3    3    0  502 -0.13212486868E+02  0.34904401036E+02  0.12307790119E+03  0.12867994864E+03  0.41800000000E+01 0.  1.
        -11    1    1    2    0    0  0.11850973050E+01  0.18002599563E+02 -0.18872483190E+02  0.26108785273E+02  0.00000000000E+00 0.  1.
         11    1    1    2    0    0  0.75006751870E+02 -0.23635645412E+02  0.62001203190E+02  0.10014392521E+03  0.00000000000E+00 0. -1.
</event>
<event>
 7    1  0.2719869E-009  0.2250434E+03  0.7561462E-02  0.1130178E+00
          1   -1    0    0  501    0  0.00000000000E+00  0.00000000000E+00  0.63870282839E+02  0.63870282839E+02  0.00000000000E+00 0. -1.
         -1   -1    0    0    0  501 -0.00000000000E+00 -0.00000000000E+00 -0.11597921839E+04  0.11597921839E+04  0.00000000000E+00 0.  1.
         25    2    1    2    0    0  0.15919180149E+03 -0.14118309255E+03 -0.26873440605E+03  0.36488332337E+03  0.12508782274E+03 0.  0.
          5    1    3    3  502    0 -0.72141660924E+01 -0.32104685319E+02 -0.35956755721E+01  0.33363996983E+02  0.41800000000E+01 0.  1.
         -5    1    3    3    0  502  0.16640596758E+03 -0.10907840723E+03 -0.26513873048E+03  0.33151932639E+03  0.41800000000E+01 0.  1.
        -11    1    1    2    0    0 -0.14443570843E+03  0.10424099135E+03 -0.76090451862E+03  0.78147523608E+03  0.00000000000E+00 0. -1.
         11    1    1    2    0    0 -0.14756093062E+02  0.36942101199E+02 -0.66282976435E+02  0.77303907330E+02  0.00000000000E+00 0.  1.
</event>
<event>
 7    1  0.2719869E-009  0.9989398E+02  0.7561462E-02  0.1280519E+00
          1   -1    0    0  501    0  0.00000000000E+00  0.00000000000E+00  0.11244969244E+04  0.11244969244E+04  0.00000000000E+00 0. -1.
         -1   -1    0    0    0  501 -0.00000000000E+00 -0.00000000000E+00 -0.12424434464E+02  0.12424434464E+02  0.00000000000E+00 0.  1.
         25    2    1    2    0    0  0.22178980156E+02  0.45991967819E+02  0.67172831937E+03  0.68518073813E+03  0.12508613268E+03 0.  0.
          5    1    3    3  502    0  0.55604414406E+02  0.45130818791E+02  0.61521955528E+03  0.61938777459E+03  0.41800000000E+01 0.  1.
         -5    1    3    3    0  502 -0.33425434250E+02  0.86114902778E+00  0.56508764093E+02  0.65792963543E+02  0.41800000000E+01 0.  1.
        -11    1    1    2    0    0 -0.14805170270E+02 -0.68804886492E+02  0.38569520482E+03  0.39206389338E+03  0.00000000000E+00 0. -1.
         11    1    1    2    0    0 -0.73738098855E+01  0.22812918673E+02  0.54648965698E+02  0.59676727310E+02  0.00000000000E+00 0.  1.
</event>
<event>
 7    1  0.2719869E-009  0.7721522E+02  0.7561462E-02  0.1337145E+00
         -1   -1    0    0    0  501 -0.00000000000E+00  0.00000000000E+00  0.17858279364E+02  0.17858279364E+02  0.00000000000E+00 0.  1.
          1   -1    0    0  501    0  0.00000000000E+00 -0.00000000000E+00 -0.70325293338E+03  0.70325293338E+03  0.00000000000E+00 0. -1.
         25    2    1    2    0    0  0.17595686780E+01  0.23805960706E+02 -0.40610867625E+03  0.42560638926E+03  0.12508685703E+03 0.  0.
          5    1    3    3  502    0 -0.29240281755E+02  0.20045848042E+02 -0.25921559259E+02  0.44116093835E+02  0.41800000000E+01 0. -1.
         -5    1    3    3    0  502  0.30999850433E+02  0.37601126640E+01 -0.38018711700E+03  0.38149029543E+03  0.41800000000E+01 0. -1.
        -11    1    1    2    0    0  0.35880903032E+02  0.93361805835E+01 -0.18532461934E+03  0.18899687300E+03  0.00000000000E+00 0.  1.
         11    1    1    2    0    0 -0.37640471710E+02 -0.33142141290E+02 -0.93961358422E+02  0.10650795048E+03  0.00000000000E+00 0. -1.
</event>
<event>
 7    1  0.2719869E-009  0.1064720E+03  0.7561462E-02  0.1267246E+00
         -2   -1    0    0    0  501 -0.00000000000E+00  0.00000000000E+00  0.12979833014E+03  0.12979833014E+03  0.00000000000E+00 0.  1.
          2   -1    0    0  501    0  0.00000000000E+00 -0.00000000000E+00 -0.13362460433E+03  0.13362460433E+03  0.00000000000E+00 0. -1.
         25    2    1    2    0    0  0.25257650374E+02  0.59617489463E+02  0.33112047637E+02  0.14469439115E+03  0.12509142728E+03 0.  0.
          5    1    3    3  502    0 -0.25243492784E+02 -0.17653521228E+02 -0.21090713883E+02  0.37565560714E+02  0.41800000000E+01 0. -1.
         -5    1    3    3    0  502  0.50501143158E+02  0.77271010691E+02  0.54202761520E+02  0.10712883043E+03  0.41800000000E+01 0. -1.
        -11    1    1    2    0    0 -0.24331048288E+02 -0.72532569683E+02  0.31816536555E+01  0.76570859311E+02  0.00000000000E+00 0.  1.
         11    1    1    2    0    0 -0.92660208580E+00  0.12915080220E+02 -0.40119975486E+02  0.42157684015E+02  0.00000000000E+00 0. -1.
</event>
<event>
 7    1  0.2719869E-009  0.9137571E+02  0.7561462E-02  0.1299554E+00
          2   -1    0    0  501    0  0.00000000000E+00  0.00000000000E+00  0.62613509640E+03  0.62613509640E+03  0.00000000000E+00 0. -1.
         -2   -1    0    0    0  501 -0.00000000000E+00 -0.00000000000E+00 -0.38029776190E+02  0.38029776190E+02  0.00000000000E+00 0.  1.
         25    2    1    2    0    0  0.28182650455E+02 -0.69605914245E+02  0.47874503002E+03  0.50048506008E+03  0.12509694845E+03 0.  0.
          5    1    3    3  502    0  0.15448371550E+02 -0.70007822874E+02  0.48147499576E+03  0.48680118261E+03  0.41800000000E+01 0. -1.
         -5    1    3    3    0  502  0.12734278905E+02  0.40190862813E+00 -0.27299657402E+01  0.13683877474E+02  0.41800000000E+01 0. -1.
        -11    1    1    2    0    0  0.20058170150E+02  0.21399674064E+02 -0.57451895654E+01  0.29887847747E+02  0.00000000000E+00 0.  1.
         11    1    1    2    0    0 -0.48240820605E+02  0.48206240182E+02  0.11510547976E+03  0.13379196477E+03  0.00000000000E+00 0. -1.
</event>
<event>
 7    1  0.2719869E-009  0.8295315E+02  0.7561462E-02  0.1320874E+00
         -1   -1    0    0    0  501 -0.00000000000E+00  0.00000000000E+00  0.97848710108E+02  0.97848710108E+02  0.00000000000E+00 0.  1.
          1   -1    0    0  501    0  0.00000000000E+00 -0.00000000000E+00 -0.12976249637E+03  0.12976249637E+03  0.00000000000E+00 0. -1.
         25    2    1    2    0    0 -0.35047845613E+02  0.19867046686E+01 -0.16266557962E+02  0.13093859573E+03  0.12509203199E+03 0.  0.
          5    1    3    3  502    0 -0.51840479966E+02  0.15720126047E+02  0.41968317772E+02  0.68653986211E+02  0.41800000000E+01 0. -1.
         -5    1    3    3    0  502  0.16792634353E+02 -0.13733421379E+02 -0.58234875734E+02  0.62284609520E+02  0.41800000000E+01 0. -1.
        -11    1    1    2    0    0 -0.21226307704E+02  0.19904801048E+02  0.10413812852E+02  0.30906386744E+02  0.00000000000E+00 0.  1.
         11    1    1    2    0    0  0.56274153317E+02 -0.21891505716E+02 -0.26061041157E+02  0.65766224008E+02  0.00000000000E+00 0. -1.
</event>
<event>
 7    1  0.2719869E-009  0.1544949E+03  0.7561462E-02  0.1195056E+00
         -2   -1    0    0    0  501 -0.00000000000E+00  0.00000000000E+00  0.33442025501E+03  0.33442025501E+03  0.00000000000E+00 0. -1.
          2   -1    0    0  501    0  0.00000000000E+00 -0.00000000000E+00 -0.87280990152E+02  0.87280990152E+02  0.00000000000E+00 0.  1.
         25    2    1    2    0    0  0.11799226494E+03  0.52498711365E+02  0.99967652891E+02  0.20571703742E+03  0.12509068142E+03 0.  0.
          5    1    3    3  502    0  0.82878512692E+02  0.93834490380E+02  0.66048725749E+02  0.14161096717E+03  0.41800000000E+01 0. -1.
         -5    1    3    3    0  502  0.35113752251E+02 -0.41335779016E+02  0.33918927142E+02  0.64106070246E+02  0.41800000000E+01 0. -1.
        -11    1    1    2    0    0 -0.29219375950E+02 -0.97946189359E+01  0.10392726627E+03  0.10840010685E+03  0.00000000000E+00 0. -1.
         11    1    1    2    0    0 -0.88772888992E+02 -0.42704092429E+02  0.43244345704E+02  0.10758410090E+03  0.00000000000E+00 0.  1.
</event>
<event>
 7    1  0.2719869E-009  0.1225104E+03  0.7561462E-02  0.1239012E+00
         -2   -1    0    0    0  501 -0.00000000000E+00  0.00000000000E+00  0.10584235793E+03  0.10584235793E+03  0.00000000000E+00 0.  1.
          2   -1    0    0  501    0  0.00000000000E+00 -0.00000000000E+00 -0.16340589052E+03  0.16340589052E+03  0.00000000000E+00 0. -1.
         25    2    1    2    0    0  0.67392434726E+02  0.33324380178E+02 -0.43257153619E+02  0.15221937096E+03  0.12508917213E+03 0.  0.
          5    1    3    3  502    0 -0.50884484234E+01  0.54883554751E+02  0.14298182698E+02  0.57096473779E+02  0.41800000000E+01 0. -1.
         -5    1    3    3    0  502  0.72480883150E+02 -0.21559174573E+02 -0.57555336317E+02  0.95122897186E+02  0.41800000000E+01 0. -1.
        -11    1    1    2    0    0  0.20617881479E+02 -0.25582222976E+01 -0.11516185561E+02  0.23754243155E+02  0.00000000000E+00 0. -1.
         11    1    1    2    0    0 -0.88010316205E+02 -0.30766157881E+02 -0.27901934140E+01  0.93274634326E+02  0.00000000000E+00 0.  1.
</event>
<event>
 7    1  0.2719869E-009  0.9074080E+02  0.7561462E-02  0.1301068E+00
          2   -1    0    0  501    0  0.00000000000E+00  0.00000000000E+00  0.29266189282E+02  0.29266189282E+02  0.00000000000E+00 0. -1.
         -2   -1    0    0    0  501 -0.00000000000E+00 -0.00000000000E+00 -0.62469036766E+03  0.62469036766E+03  0.00000000000E+00 0.  1.
         25    2    1    2    0    0 -0.17119749815E+02 -0.14749951510E+02 -0.50177634390E+03  0.51762675665E+03  0.12508922015E+03 0.  0.
          5    1    3    3  502    0 -0.23894409732E+02  0.46203314640E+02 -0.35009443252E+03  0.35396224825E+03  0.41800000000E+01 0.  1.
         -5    1    3    3    0  502  0.67746599168E+01 -0.60953266149E+02 -0.15168191138E+03  0.16366450840E+03  0.41800000000E+01 0.  1.
        -11    1    1    2    0    0  0.11435450979E+02 -0.25095390064E+02 -0.92003067798E+02  0.96047449866E+02  0.00000000000E+00 0.  1.
         11    1    1    2    0    0  0.56842988364E+01  0.39845341574E+02 -0.16447666789E+01  0.40282350426E+02  0.00000000000E+00 0. -1.
</event>
<event>
 7    1  0.3633960E-009  0.1637006E+03  0.7561462E-02  0.1184581E+00
          1   -1    0    0  501    0  0.00000000000E+00  0.00000000000E+00  0.14611996755E+03  0.14611996755E+03  0.00000000000E+00 0. -1.
         -1   -1    0    0    0  501 -0.00000000000E+00 -0.00000000000E+00 -0.24398275943E+03  0.24398275943E+03  0.00000000000E+00 0.  1.
         25    2    1    2    0    0 -0.13822660872E+03  0.54512202265E+02 -0.93456959942E+02  0.21554424194E+03  0.12508773447E+03 0.  0.
          5    1    3    3  502    0 -0.96373635787E+02  0.75754879600E+02 -0.14383211332E+02  0.12349505507E+03  0.41800000000E+01 0.  1.
         -5    1    3    3    0  502 -0.41852972933E+02 -0.21242677336E+02 -0.79073748610E+02  0.92049186868E+02  0.41800000000E+01 0.  1.
        -11    1    1    2    0    0  0.11362736361E+03 -0.20203978074E+02  0.30955974715E+02  0.11948912445E+03  0.00000000000E+00 0. -1.
         11    1    1    2    0    0  0.24599245110E+02 -0.34308224191E+02 -0.35361806645E+02  0.55069360595E+02  0.00000000000E+00 0.  1.
</event>
<event>
 7    1  0.2864110E-009  0.1544209E+03  0.7561462E-02  0.1195143E+00
         -1   -1    0    0    0  501 -0.00000000000E+00  0.00000000000E+00  0.47891987870E+03  0.47891987870E+03  0.00000000000E+00 0.  1.
          1   -1    0    0  501    0  0.00000000000E+00 -0.00000000000E+00 -0.58525636965E+02  0.58525636965E+02  0.00000000000E+00 0. -1.
         25    2    1    2    0    0 -0.35833593708E+02  0.11723248308E+03  0.27628388967E+03  0.32712002305E+03  0.12508884949E+03 0.  0.
          5    1    3    3  502    0  0.20688946778E+02  0.11598228957E+03  0.19854483790E+03  0.23090571468E+03  0.41800000000E+01 0.  1.
         -5    1    3    3    0  502 -0.56522540486E+02  0.12501935052E+01  0.77739051764E+02  0.96214308374E+02  0.41800000000E+01 0.  1.
        -11    1    1    2    0    0 -0.59816379022E+01 -0.73552649992E+02  0.27099876636E+02  0.78614093053E+02  0.00000000000E+00 0. -1.
         11    1    1    2    0    0  0.41815231611E+02 -0.43679833084E+02  0.11701047543E+03  0.13171139956E+03  0.00000000000E+00 0.  1.
</event>
<event>
 7    1  0.2719869E-009  0.2489128E+03  0.7561462E-02  0.1113994E+00
          3   -1    0    0  501    0  0.00000000000E+00  0.00000000000E+00  0.14266498826E+04  0.14266498826E+04  0.00000000000E+00 0. -1.
         -3   -1    0    0    0  501 -0.00000000000E+00 -0.00000000000E+00 -0.69900062383E+02  0.69900062383E+02  0.00000000000E+00 0.  1.
         25    2    1    2    0    0  0.63370365250E+01  0.22816684581E+03  0.24122169252E+03  0.35487386847E+03  0.12508912832E+03 0.  0.
          5    1    3    3  502    0 -0.19273369778E+02  0.23304620721E+03  0.21656577023E+03  0.31874786700E+03  0.41800000000E+01 0.  1.
         -5    1    3    3    0  502  0.25610406303E+02 -0.48793614036E+01  0.24655922283E+02  0.36126001472E+02  0.41800000000E+01 0.  1.
        -11    1    1    2    0    0  0.28650484124E+02 -0.71719778817E+02  0.25878459868E+03  0.27006303973E+03  0.00000000000E+00 0.  1.
         11    1    1    2    0    0 -0.34987520649E+02 -0.15644706699E+03  0.85674352903E+03  0.87161303679E+03  0.00000000000E+00 0. -1.
</event>
<event>
 7    1  0.3345072E-009  0.1114369E+03  0.7561462E-02  0.1257932E+00
          4   -1    0    0  501    0  0.00000000000E+00  0.00000000000E+00  0.76611384912E+02  0.76611384912E+02  0.00000000000E+00 0. -1.
         -4   -1    0    0    0  501 -0.00000000000E+00 -0.00000000000E+00 -0.26253352151E+03  0.26253352151E+03  0.00000000000E+00 0.  1.
         25    2    1    2    0    0 -0.26476127932E+02 -0.86076152137E+02 -0.85691482662E+02  0.17635325115E+03  0.12508936675E+03 0.  0.
          5    1    3    3  502    0 -0.46345294155E+02 -0.54254535266E+01  0.11695873444E+02  0.48286516667E+02  0.41800000000E+01 0. -1.
         -5    1    3    3    0  502  0.19869166222E+02 -0.80650698610E+02 -0.97387356106E+02  0.12806673449E+03  0.41800000000E+01 0. -1.
        -11    1    1    2    0    0  0.29237325105E+02  0.61158815942E+02 -0.92452813603E+01  0.68415620834E+02  0.00000000000E+00 0. -1.
         11    1    1    2    0    0 -0.27611971727E+01  0.24917336195E+02 -0.90985372576E+02  0.94376034435E+02  0.00000000000E+00 0.  1.
</event>
<event>
 7    1  0.2719869E-009  0.2492044E+03  0.7561462E-02  0.1113809E+00
         -1   -1    0    0    0  501 -0.00000000000E+00  0.00000000000E+00  0.36619747599E+03  0.36619747599E+03  0.00000000000E+00 0. -1.
          1   -1    0    0  501    0  0.00000000000E+00 -0.00000000000E+00 -0.20426017267E+03  0.20426017267E+03  0.00000000000E+00 0.  1.
         25    2    1    2    0    0 -0.19059973507E+03  0.13847681235E+03 -0.64858586307E+01  0.26682274275E+03  0.12509285800E+03 0.  0.
          5    1    3    3  502    0 -0.18397793394E+03  0.15744293091E+03 -0.18763576655E+02  0.24291089082E+03  0.41800000000E+01 0. -1.
         -5    1    3    3    0  502 -0.66218011267E+01 -0.18966118552E+02  0.12277718025E+02  0.23911851936E+02  0.41800000000E+01 0. -1.
        -11    1    1    2    0    0  0.36885375019E+02 -0.30401697937E+02  0.86119245309E+02  0.98495271665E+02  0.00000000000E+00 0. -1.
         11    1    1    2    0    0  0.15371436005E+03 -0.10807511442E+03  0.82303916639E+02  0.20513963424E+03  0.00000000000E+00 0.  1.
</event>
<event>
 7    1  0.2719869E-009  0.1468344E+03  0.7561462E-02  0.1204418E+00
          2   -1    0    0  501    0  0.00000000000E+00  0.00000000000E+00  0.11018960270E+04  0.11018960270E+04  0.00000000000E+00 0. -1.
         -2   -1    0    0    0  501 -0.00000000000E+00 -0.00000000000E+00 -0.61888643617E+02  0.61888643617E+02  0.00000000000E+00 0.  1.
         25    2    1    2    0    0  0.33370787243E+02  0.10736271697E+03  0.10016941133E+04  0.10157158946E+04  0.12508924643E+03 0.  0.
          5    1    3    3  502    0  0.67401686285E+02  0.90436368511E+02  0.90037261857E+03  0.90741944476E+03  0.41800000000E+01 0.  1.
         -5    1    3    3    0  502 -0.34030899042E+02  0.16926348461E+02  0.10132149471E+03  0.10829644986E+03  0.41800000000E+01 0.  1.
        -11    1    1    2    0    0 -0.63570954222E+02 -0.74299982951E+02  0.20707933438E+02  0.99952849857E+02  0.00000000000E+00 0.  1.
         11    1    1    2    0    0  0.30200166979E+02 -0.33062734021E+02  0.17605336623E+02  0.48115926096E+02  0.00000000000E+00 0. -1.
</event>
<event>
 7    1  0.2719869E-009  0.1366280E+03  0.7561462E-02  0.1217940E+00
         -2   -1    0    0    0  501 -0.00000000000E+00  0.00000000000E+00  0.14359974955E+02  0.14359974955E+02  0.00000000000E+00 0.  1.
          2   -1    0    0  501    0  0.00000000000E+00 -0.00000000000E+00 -0.17673686054E+04  0.17673686054E+04  0.00000000000E+00 0. -1.
         25    2    1    2    0    0  0.18598972258E+02  0.10170487963E+03 -0.12142140736E+04  0.12250112936E+04  0.12508816359E+03 0.  0.
          5    1    3    3  502    0 -0.35101503602E+02  0.46168437904E+02 -0.88170637584E+03  0.88362166440E+03  0.41800000000E+01 0. -1.
         -5    1    3    3    0  502  0.53700475860E+02  0.55536441731E+02 -0.33250769779E+03  0.34138962924E+03  0.41800000000E+01 0. -1.
        -11    1    1    2    0    0 -0.54376101504E+02 -0.44466530879E+02 -0.32566606304E+03  0.33315524519E+03  0.00000000000E+00 0.  1.
         11    1    1    2    0    0  0.35777129246E+02 -0.57238348756E+02 -0.21312849381E+03  0.22356204154E+03  0.00000000000E+00 0. -1.
</event>
<event>
 7    1  0.2719869E-009  0.1613672E+03  0.7561462E-02  0.1187162E+00
          1   -1    0    0  501    0  0.00000000000E+00  0.00000000000E+00  0.83656464010E+03  0.83656464010E+03  0.00000000000E+00 0. -1.
         -1   -1    0    0    0  501 -0.00000000000E+00 -0.00000000000E+00 -0.42821403475E+02  0.42821403475E+02  0.00000000000E+00 0.  1.
         25    2    1    2    0    0 -0.13257392574E+03  0.40501912749E+02  0.57285246560E+03  0.60251483953E+03  0.12509170154E+03 0.  0.
          5    1    3    3  502    0 -0.90148730110E+02  0.83444611202E+02  0.32732908954E+03  0.34964496555E+03  0.41800000000E+01 0.  1.
         -5    1    3    3    0  502 -0.42425195631E+02 -0.42942698453E+02  0.24552337606E+03  0.25286987398E+03  0.41800000000E+01 0.  1.
        -11    1    1    2    0    0  0.44849050285E+02 -0.69188870649E+01  0.10667807724E+02  0.46616632561E+02  0.00000000000E+00 0.  1.
         11    1    1    2    0    0  0.87724875456E+02 -0.33583025684E+02  0.21022296331E+03  0.23025457148E+03  0.00000000000E+00 0. -1.
</event>
<event>
 7    1  0.2719869E-009  0.4020683E+03  0.7561462E-02  0.1043066E+00
         -2   -1    0    0    0  501 -0.00000000000E+00  0.00000000000E+00  0.94899454367E+02  0.94899454367E+02  0.00000000000E+00 0.  1.
          2   -1    0    0  501    0  0.00000000000E+00 -0.00000000000E+00 -0.17539539122E+04  0.17539539122E+04  0.00000000000E+00 0. -1.
         25    2    1    2    0    0  0.16780019275E+02 -0.39047606266E+03 -0.92906566812E+03  0.10156594606E+04  0.12509196481E+03 0.  0.
          5    1    3    3  502    0  0.46571943385E+02 -0.36211553640E+03 -0.78464536555E+03  0.86543770988E+03  0.41800000000E+01 0.  1.
         -5    1    3    3    0  502 -0.29791924110E+02 -0.28360526260E+02 -0.14442030257E+03  0.15022175071E+03  0.41800000000E+01 0.  1.
        -11    1    1    2    0    0 -0.41665119611E+02  0.14300189977E+03 -0.33194390639E+03  0.36383001871E+03  0.00000000000E+00 0. -1.
         11    1    1    2    0    0  0.24885100336E+02  0.24747416289E+03 -0.39804488331E+03  0.46936388724E+03  0.00000000000E+00 0.  1.
</event>
<event>
 7    1  0.2719869E-009  0.3171958E+03  0.7561462E-02  0.1076947E+00
         -2   -1    0    0    0  501 -0.00000000000E+00  0.00000000000E+00  0.81111345832E+02  0.81111345832E+02  0.00000000000E+00 0.  1.
          2   -1    0    0  501    0  0.00000000000E+00 -0.00000000000E+00 -0.13736201188E+04  0.13736201188E+04  0.00000000000E+00 0. -1.
         25    2    1    2    0    0  0.20639977452E+03 -0.23147305021E+03 -0.78181654892E+03  0.85033246645E+03  0.12509015723E+03 0.  0.
          5    1    3    3  502    0  0.12993079454E+03 -0.88045788030E+02 -0.50976436790E+03  0.53339596487E+03  0.41800000000E+01 0.  1.
         -5    1    3    3    0  502  0.76468979976E+02 -0.14342726218E+03 -0.27205218103E+03  0.31693650158E+03  0.41800000000E+01 0.  1.
        -11    1    1    2    0    0 -0.45521344830E+02  0.88684813225E+02 -0.10239847881E+03  0.14290779333E+03  0.00000000000E+00 0.  1.
         11    1    1    2    0    0 -0.16087842969E+03  0.14278823698E+03 -0.40829374524E+03  0.46149120486E+03  0.00000000000E+00 0. -1.
</event>
<event>
 7    1  0.2719869E-009  0.1094882E+03  0.7561462E-02  0.1261521E+00
          3   -1    0    0  501    0  0.00000000000E+00  0.00000000000E+00  0.67189325826E+03  0.67189325826E+03  0.00000000000E+00 0. -1.
         -3   -1    0    0    0  501 -0.00000000000E+00 -0.00000000000E+00 -0.32481383401E+02  0.32481383401E+02  0.00000000000E+00 0.  1.
         25    2    1    2    0    0 -0.26361927832E+02 -0.63698701074E+02  0.53765683890E+03  0.55630048684E+03  0.12507149748E+03 0.  0.
          5    1    3    3  502    0  0.43565113249E+02 -0.54120075617E+02  0.21490209702E+03  0.22589219858E+03  0.41800000000E+01 0.  1.
         -5    1    3    3    0  502 -0.69927041082E+02 -0.95786254570E+01  0.32275474188E+03  0.33040828826E+03  0.41800000000E+01 0.  1.
        -11    1    1    2    0    0 -0.40532144180E+01  0.39758009825E+02  0.82075990225E+00  0.39972509793E+02  0.00000000000E+00 0.  1.
         11    1    1    2    0    0  0.30415142250E+02  0.23940691250E+02  0.10093427605E+03  0.10810164503E+03  0.00000000000E+00 0. -1.
</event>
<event>
 7    1  0.2719869E-009  0.1549754E+03  0.7561462E-02  0.1194489E+00
         -1   -1    0    0    0  501 -0.00000000000E+00  0.00000000000E+00  0.74856957766E+02  0.74856957766E+02  0.00000000000E+00 0.  1.
          1   -1    0    0  501    0  0.00000000000E+00 -0.00000000000E+00 -0.52661556673E+03  0.52661556673E+03  0.00000000000E+00 0. -1.
         25    2    1    2    0    0 -0.11755857267E+03 -0.69996713998E+02 -0.37844694342E+03  0.42141216989E+03  0.12508625012E+03 0.  0.
          5    1    3    3  502    0 -0.12238434900E+03 -0.79656074633E+02 -0.22971717200E+03  0.27223238349E+03  0.41800000000E+01 0. -1.
         -5    1    3    3    0  502  0.48257763289E+01  0.96593606350E+01 -0.14872977142E+03  0.14917978640E+03  0.41800000000E+01 0. -1.
        -11    1    1    2    0    0  0.53600228844E+02 -0.48707252321E+01 -0.60155656288E+02  0.80718098837E+02  0.00000000000E+00 0. -1.
         11    1    1    2    0    0  0.63958343830E+02  0.74867439230E+02 -0.13156009260E+02  0.99342255772E+02  0.00000000000E+00 0.  1.
</event>
<event>
 7    1  0.2719869E-009  0.2687661E+03  0.7561462E-02  0.1101988E+00
         -1   -1    0    0    0  501 -0.00000000000E+00  0.00000000000E+00  0.18193616764E+03  0.18193616764E+03  0.00000000000E+00 0.  1.
          1   -1    0    0  501    0  0.00000000000E+00 -0.00000000000E+00 -0.60787246250E+03  0.60787246250E+03  0.00000000000E+00 0. -1.
         25    2    1    2    0    0 -0.21745129957E+03 -0.13630286682E+03 -0.14882789299E+01  0.28550504059E+03  0.12508946414E+03 0.  0.
          5    1    3    3  502    0 -0.12308727852E+03 -0.11192126834E+02  0.25948668908E+02  0.12635880521E+03  0.41800000000E+01 0. -1.
         -5    1    3    3    0  502 -0.94364021057E+02 -0.12511073998E+03 -0.27436947838E+02  0.15914623538E+03  0.41800000000E+01 0. -1.
        -11    1    1    2    0    0  0.14941491185E+03  0.10197662643E+03 -0.36600110160E+03  0.40826566668E+03  0.00000000000E+00 0. -1.
         11    1    1    2    0    0  0.68036387723E+02  0.34326240386E+02 -0.58446914338E+02  0.96037922870E+02  0.00000000000E+00 0.  1.
</event>
<event>
 7    1  0.2719869E-009  0.1532879E+03  0.7561462E-02  0.1196490E+00
         -2   -1    0    0    0  501 -0.00000000000E+00  0.00000000000E+00  0.16803928863E+02  0.16803928863E+02  0.00000000000E+00 0.  1.
          2   -1    0    0  501    0  0.00000000000E+00 -0.00000000000E+00 -0.15228957795E+04  0.15228957795E+04  0.00000000000E+00 0. -1.
         25    2    1    2    0    0 -0.52981491347E+02 -0.99133984560E+02 -0.97700189585E+03  0.99136975611E+03  0.12508678399E+03 0.  0.
          5    1    3    3  502    0  0.16732507111E+02  0.21991877279E+02 -0.18998489102E+03  0.19202955678E+03  0.41800000000E+01 0. -1.
         -5    1    3    3    0  502 -0.69713998458E+02 -0.12112586184E+03 -0.78701700482E+03  0.79934019933E+03  0.41800000000E+01 0. -1.
        -11    1    1    2    0    0 -0.13042834959E+02  0.61386891409E+02 -0.31347334883E+03  0.31969361333E+03  0.00000000000E+00 0. -1.
         11    1    1    2    0    0  0.66024326306E+02  0.37747093151E+02 -0.21561660594E+03  0.22863633889E+03  0.00000000000E+00 0.  1.
</event>
<event>
 7    1  0.2719869E-009  0.1339328E+03  0.7561462E-02  0.1221734E+00
          2   -1    0    0  501    0  0.00000000000E+00  0.00000000000E+00  0.21708983386E+03  0.21708983386E+03  0.00000000000E+00 0. -1.
         -2   -1    0    0    0  501 -0.00000000000E+00 -0.00000000000E+00 -0.19185856333E+03  0.19185856333E+03  0.00000000000E+00 0.  1.
         25    2    1    2    0    0  0.81012501958E+02  0.50897732229E+02  0.15665750924E+03  0.22212817193E+03  0.12508295225E+03 0.  0.
          5    1    3    3  502    0 -0.29466056368E+02  0.34476438656E+02  0.40844471911E+02  0.61176928543E+02  0.41800000000E+01 0. -1.
         -5    1    3    3    0  502  0.11047855833E+03  0.16421293573E+02  0.11581303733E+03  0.16095124339E+03  0.41800000000E+01 0. -1.
        -11    1    1    2    0    0 -0.40220849683E+02  0.58693782242E+01 -0.10412039637E+03  0.11177308840E+03  0.00000000000E+00 0.  1.
         11    1    1    2    0    0 -0.40791652275E+02 -0.56767110453E+02 -0.27305842343E+02  0.75047136858E+02  0.00000000000E+00 0. -1.
</event>
<event>
 7    1  0.2719869E-009  0.5602173E+02  0.7561462E-02  0.1415328E+00
          2   -1    0    0  501    0  0.00000000000E+00  0.00000000000E+00  0.10004391284E+03  0.10004391284E+03  0.00000000000E+00 0. -1.
         -2   -1    0    0    0  501 -0.00000000000E+00 -0.00000000000E+00 -0.24251742682E+03  0.24251742682E+03  0.00000000000E+00 0.  1.
         25    2    1    2    0    0 -0.14996600457E+02 -0.37554723439E+02  0.37390315163E+02  0.13664744886E+03  0.12505692438E+03 0.  0.
          5    1    3    3  502    0 -0.34186189926E+02 -0.17123862175E+02  0.78092686540E+02  0.87050918022E+02  0.41800000000E+01 0. -1.
         -5    1    3    3    0  502  0.19189589468E+02 -0.20430861264E+02 -0.40702371377E+02  0.49596530843E+02  0.41800000000E+01 0. -1.
        -11    1    1    2    0    0  0.11276046700E+02  0.47661097540E+01  0.83568809362E+01  0.14822364533E+02  0.00000000000E+00 0. -1.
         11    1    1    2    0    0  0.37205537572E+01  0.32788613685E+02 -0.18822071008E+03  0.19109152627E+03  0.00000000000E+00 0.  1.
</event>
<event>
 7    1  0.2719869E-009  0.1009493E+03  0.7561462E-02  0.1278312E+00
         -2   -1    0    0    0  501 -0.00000000000E+00  0.00000000000E+00  0.13091105261E+02  0.13091105261E+02  0.00000000000E+00 0.  1.
          2   -1    0    0  501    0  0.00000000000E+00 -0.00000000000E+00 -0.26781889371E+04  0.26781889371E+04  0.00000000000E+00 0. -1.
         25    2    1    2    0    0  0.29382421295E+02 -0.69600201537E+02 -0.23464824323E+04  0.23510283756E+04  0.12508838072E+03 0.  0.
          5    1    3    3  502    0  0.28705349492E+02 -0.73566586283E+02 -0.68708258427E+03  0.69161838446E+03  0.41800000000E+01 0. -1.
         -5    1    3    3    0  502  0.67707180325E+00  0.39663847452E+01 -0.16593998480E+04  0.16594099911E+04  0.41800000000E+01 0. -1.
        -11    1    1    2    0    0  0.30758855810E+02  0.38600064807E+02 -0.10198086519E+03  0.11329681849E+03  0.00000000000E+00 0.  1.
         11    1    1    2    0    0 -0.60141277105E+02  0.31000136731E+02 -0.21663453433E+03  0.22695484827E+03  0.00000000000E+00 0. -1.
</event>
<event>
 7    1  0.2719869E-009  0.2634444E+03  0.7561462E-02  0.1105091E+00
          2   -1    0    0  501    0  0.00000000000E+00  0.00000000000E+00  0.19395407894E+04  0.19395407894E+04  0.00000000000E+00 0. -1.
         -2   -1    0    0    0  501 -0.00000000000E+00 -0.00000000000E+00 -0.41535219262E+02  0.41535219262E+02  0.00000000000E+00 0.  1.
         25    2    1    2    0    0  0.13552802047E+03 -0.22145868374E+03  0.84508123431E+03  0.89287265356E+03  0.12508992744E+03 0.  0.
          5    1    3    3  502    0  0.12932338753E+02 -0.64031363760E+02  0.86490553378E+02  0.10846819421E+03  0.41800000000E+01 0. -1.
         -5    1    3    3    0  502  0.12259568171E+03 -0.15742731999E+03  0.75859068094E+03  0.78440445936E+03  0.41800000000E+01 0. -1.
        -11    1    1    2    0    0 -0.32402996908E+02  0.83850015414E+02  0.21896008309E+03  0.23669452313E+03  0.00000000000E+00 0. -1.
         11    1    1    2    0    0 -0.10312502356E+03  0.13760866833E+03  0.83396425270E+03  0.85150883194E+03  0.00000000000E+00 0.  1.
</event>
<event>
 7    1  0.2719869E-009  0.1163682E+03  0.7561462E-02  0.1249212E+00
          2   -1    0    0  501    0  0.00000000000E+00  0.00000000000E+00  0.72114934204E+02  0.72114934204E+02  0.00000000000E+00 0. -1.
         -2   -1    0    0    0  501 -0.00000000000E+00 -0.00000000000E+00 -0.20911122680E+03  0.20911122680E+03  0.00000000000E+00 0.  1.
         25    2    1    2    0    0 -0.70791900126E+01  0.58671085948E+02 -0.74024622609E+02  0.15690386297E+03  0.12508703452E+03 0.  0.
          5    1    3    3  502    0 -0.46484187791E+02 -0.14697921381E+02 -0.50377923122E+02  0.70229738328E+02  0.41800000000E+01 0.  1.
         -5    1    3    3    0  502  0.39404997778E+02  0.73369007330E+02 -0.23646699487E+02  0.86674124646E+02  0.41800000000E+01 0.  1.
        -11    1    1    2    0    0 -0.31401410132E+02 -0.52885979775E+02 -0.58962970722E+02  0.85203329345E+02  0.00000000000E+00 0.  1.
         11    1    1    2    0    0  0.38480600145E+02 -0.57851061734E+01 -0.40086992616E+01  0.39118968682E+02  0.00000000000E+00 0. -1.
</event>
<event>
 7    1  0.2719869E-009  0.1760336E+03  0.7561462E-02  0.1171698E+00
         -4   -1    0    0    0  501 -0.00000000000E+00  0.00000000000E+00  0.16475845147E+03  0.16475845147E+03  0.00000000000E+00 0.  1.
          4   -1    0    0  501    0  0.00000000000E+00 -0.00000000000E+00 -0.26268676585E+03  0.26268676585E+03  0.00000000000E+00 0. -1.
         25    2    1    2    0    0  0.38278403560E+02 -0.17122712464E+03 -0.34036532879E+02  0.21815337531E+03  0.12509374563E+03 0.  0.
          5    1    3    3  502    0  0.14124577778E+02 -0.99732593371E+02 -0.80867519331E+02  0.12924055850E+03  0.41800000000E+01 0. -1.
         -5    1    3    3    0  502  0.24153825783E+02 -0.71494531267E+02  0.46830986452E+02  0.88912816810E+02  0.41800000000E+01 0. -1.
        -11    1    1    2    0    0 -0.36204076084E+02  0.14843587070E+03 -0.87781824133E+02  0.17620894269E+03  0.00000000000E+00 0. -1.
         11    1    1    2    0    0 -0.20743274764E+01  0.22791253933E+02  0.23890042628E+02  0.33082899315E+02  0.00000000000E+00 0.  1.
</event>
<event>
 7    1  0.2719869E-009  0.1202116E+03  0.7561462E-02  0.1242748E+00
          2   -1    0    0  501    0  0.00000000000E+00  0.00000000000E+00  0.13491705366E+03  0.13491705366E+03  0.00000000000E+00 0. -1.
         -2   -1    0    0    0  501 -0.00000000000E+00 -0.00000000000E+00 -0.15631469567E+03  0.15631469567E+03  0.00000000000E+00 0.  1.
         25    2    1    2    0    0 -0.48167346425E+02 -0.63186063807E+02 -0.67397130078E+02  0.16279432691E+03  0.12508816015E+03 0.  0.
          5    1    3    3  502    0 -0.77308875617E+02 -0.37603087536E+02 -0.13383453336E+01  0.86080880627E+02  0.41800000000E+01 0. -1.
         -5    1    3    3    0  502  0.29141529191E+02 -0.25582976271E+02 -0.66058784744E+02  0.76713446281E+02  0.41800000000E+01 0. -1.
        -11    1    1    2    0    0  0.43982844517E+02  0.83625641623E+02  0.22725934872E+02  0.97181308205E+02  0.00000000000E+00 0.  1.
         11    1    1    2    0    0  0.41845019088E+01 -0.20439577816E+02  0.23273553192E+02  0.31256114213E+02  0.00000000000E+00 0. -1.
</event>
<event>
 7    1  0.2719869E-009  0.1915578E+03  0.7561462E-02  0.1157064E+00
          2   -1    0    0  501    0  0.00000000000E+00  0.00000000000E+00  0.69627464032E+03  0.69627464032E+03  0.00000000000E+00 0. -1.
         -2   -1    0    0    0  501 -0.00000000000E+00 -0.00000000000E+00 -0.56073389075E+02  0.56073389075E+02  0.00000000000E+00 0.  1.
         25    2    1    2    0    0  0.74431397687E+02 -0.14720067564E+03  0.34712606870E+03  0.40416855181E+03  0.12509052253E+03 0.  0.
          5    1    3    3  502    0  0.66505659285E+02 -0.16986149260E+03  0.31148406049E+03  0.36099268929E+03  0.41800000000E+01 0.  1.
         -5    1    3    3    0  502  0.79257384021E+01  0.22660816959E+02  0.35642008215E+02  0.43175862516E+02  0.41800000000E+01 0.  1.
        -11    1    1    2    0    0 -0.45556053758E+02  0.13898591167E+03  0.18400861344E+03  0.23505660488E+03  0.00000000000E+00 0.  1.
         11    1    1    2    0    0 -0.28875343929E+02  0.82147639674E+01  0.10906656910E+03  0.11312287271E+03  0.00000000000E+00 0. -1.
</event>
<event>
 7    1  0.2719869E-009  0.1298119E+03  0.7561462E-02  0.1227735E+00
          1   -1    0    0  501    0  0.00000000000E+00  0.00000000000E+00  0.40672172339E+03  0.40672172339E+03  0.00000000000E+00 0. -1.
         -1   -1    0    0    0  501 -0.00000000000E+00 -0.00000000000E+00 -0.49975111443E+02  0.49975111443E+02  0.00000000000E+00 0.  1.
         25    2    1    2    0    0  0.71239232199E+02 -0.14598645976E+02  0.10641406835E+03  0.17960487712E+03  0.12508320939E+03 0.  0.
          5    1    3    3  502    0  0.10574894921E+03 -0.17073178844E+02  0.64551306629E+02  0.12513463662E+03  0.41800000000E+01 0.  1.
         -5    1    3    3    0  502 -0.34509717008E+02  0.24745328676E+01  0.41862761723E+02  0.54470240498E+02  0.41800000000E+01 0.  1.
        -11    1    1    2    0    0 -0.60227505277E+02 -0.33029174616E+02  0.16539727624E+03  0.17909365638E+03  0.00000000000E+00 0. -1.
         11    1    1    2    0    0 -0.11011726921E+02  0.47627820593E+02  0.84935267354E+02  0.97998301335E+02  0.00000000000E+00 0.  1.
</event>
<event>
 6    1  0.2719869E-009  0.9616724E+02  0.7561462E-02  0.1288569E+00
          1   -1    0    0  501    0  0.00000000000E+00  0.00000000000E+00  0.12522385130E+03  0.12522385130E+03  0.00000000000E+00 0. -1.
         -1   -1    0    0    0  501 -0.00000000000E+00 -0.00000000000E+00 -0.14438564234E+03  0.14438564234E+03  0.00000000000E+00 0.  1.
          5    1    1    2  502    0  0.73610762341E+02  0.30500511636E+02 -0.51845088685E+02  0.95153618760E+02  0.41800000000E+01 0.  1.
         -5    1    1    2    0  502 -0.19275978686E+02  0.26773026860E+02  0.42124251689E+02  0.53668270905E+02  0.41800000000E+01 0.  1.
        -11    1    1    2    0    0 -0.40082960552E+02 -0.46715905771E+02 -0.48188357593E+02  0.78173764052E+02  0.00000000000E+00 0.  1.
         11    1    1    2    0    0 -0.14251823104E+02 -0.10557632725E+02  0.38747403552E+02  0.42613839918E+02  0.00000000000E+00 0. -1.
</event>
<event>
 7    1  0.2719869E-009  0.1178278E+03  0.7561462E-02  0.1246724E+00
         -1   -1    0    0    0  501 -0.00000000000E+00  0.00000000000E+00  0.30156154093E+02  0.30156154093E+02  0.00000000000E+00 0.  1.
          1   -1    0    0  501    0  0.00000000000E+00 -0.00000000000E+00 -0.50873631071E+03  0.50873631071E+03  0.00000000000E+00 0. -1.
         25    2    1    2    0    0 -0.59791294680E+02  0.12240332536E+02 -0.28929247473E+03  0.32103100003E+03  0.12508374149E+03 0.  0.
          5    1    3    3  502    0 -0.56742501664E+02  0.58301949092E+02 -0.11668547543E+03  0.14230882382E+03  0.41800000000E+01 0. -1.
         -5    1    3    3    0  502 -0.30487930163E+01 -0.46061616556E+02 -0.17260699930E+03  0.17872217620E+03  0.41800000000E+01 0. -1.
        -11    1    1    2    0    0  0.73311593579E+02  0.17324892923E+02 -0.13032682612E+03  0.15053180154E+03  0.00000000000E+00 0.  1.
         11    1    1    2    0    0 -0.13520298899E+02 -0.29565225459E+02 -0.58960855770E+02  0.67329663239E+02  0.00000000000E+00 0. -1.
</event>
<event>
 7    1  0.2719869E-009  0.9430596E+02  0.7561462E-02  0.1292747E+00
          1   -1    0    0  501    0  0.00000000000E+00  0.00000000000E+00  0.56337884987E+03  0.56337884987E+03  0.00000000000E+00 0. -1.
         -1   -1    0    0    0  501 -0.00000000000E+00 -0.00000000000E+00 -0.24346805433E+02  0.24346805433E+02  0.00000000000E+00 0.  1.
         25    2    1    2    0    0 -0.21984536340E+02 -0.29970527366E+00  0.39884111094E+03  0.41857468346E+03  0.12508846547E+03 0.  0.
          5    1    3    3  502    0  0.45192731335E+02 -0.77445277737E+01  0.77239357284E+02  0.89920806211E+02  0.41800000000E+01 0.  1.
         -5    1    3    3    0  502 -0.67177267675E+02  0.74448225001E+01  0.32160175366E+03  0.32865387725E+03  0.41800000000E+01 0.  1.
        -11    1    1    2    0    0  0.79731624778E+01 -0.35512744074E+02  0.17139524837E+02  0.40230456413E+02  0.00000000000E+00 0.  1.
         11    1    1    2    0    0  0.14011373862E+02  0.35812449348E+02  0.12305140865E+03  0.12892051542E+03  0.00000000000E+00 0. -1.
</event>
<event>
 7    1  0.2719869E-009  0.8588577E+02  0.7561462E-02  0.1313132E+00
         -3   -1    0    0    0  501 -0.00000000000E+00  0.00000000000E+00  0.34520756141E+03  0.34520756141E+03  0.00000000000E+00 0.  1.
          3   -1    0    0  501    0  0.00000000000E+00 -0.00000000000E+00 -0.45348673892E+02  0.45348673892E+02  0.00000000000E+00 0. -1.
         25    2    1    2    0    0  0.27831413311E+01 -0.68433380439E+01  0.70547540049E+02  0.14380277923E+03  0.12509079405E+03 0.  0.
          5    1    3    3  502    0 -0.18434855899E+02  0.43375017693E+02  0.75287507453E+02  0.88920848232E+02  0.41800000000E+01 0.  1.
         -5    1    3    3    0  502  0.21217997230E+02 -0.50218355737E+02 -0.47399674032E+01  0.54881931001E+02  0.41800000000E+01 0.  1.
        -11    1    1    2    0    0 -0.34412539066E+02  0.14328962381E+02  0.19849186317E+03  0.20196178290E+03  0.00000000000E+00 0.  1.
         11    1    1    2    0    0  0.31629397735E+02 -0.74856243369E+01  0.30819484302E+02  0.44791673171E+02  0.00000000000E+00 0. -1.
</event>
<event>
 7    1  0.2719869E-009  0.1489349E+03  0.7561462E-02  0.1201788E+00
          2   -1    0    0  501    0  0.00000000000E+00  0.00000000000E+00  0.34242736119E+03  0.34242736119E+03  0.00000000000E+00 0. -1.
         -2   -1    0    0    0  501 -0.00000000000E+00 -0.00000000000E+00 -0.75739345846E+02  0.75739345846E+02  0.00000000000E+00 0.  1.
         25    2    1    2    0    0 -0.83738004070E+02  0.81112130697E+02  0.11353506677E+03  0.20525487588E+03  0.12509245227E+03 0.  0.
          5    1    3    3  502    0 -0.87246263457E+02  0.11032980053E+03  0.99768133950E+02  0.17249848789E+03  0.41800000000E+01 0. -1.
         -5    1    3    3    0  502  0.35082593870E+01 -0.29217669837E+02  0.13766932817E+02  0.32756387985E+02  0.41800000000E+01 0. -1.
        -11    1    1    2    0    0  0.45339375921E+02 -0.97287653072E+01  0.85678136722E+01  0.47156286054E+02  0.00000000000E+00 0.  1.
         11    1    1    2    0    0  0.38398628150E+02 -0.71383365389E+02  0.14458513491E+03  0.16575554511E+03  0.00000000000E+00 0. -1.
</event>
<event>
 7    1  0.2749126E-009  0.9342578E+02  0.7561462E-02  0.1294762E+00
         -1   -1    0    0    0  501 -0.00000000000E+00  0.00000000000E+00  0.13731202768E+03  0.13731202768E+03  0.00000000000E+00 0.  1.
          1   -1    0    0  501    0  0.00000000000E+00 -0.00000000000E+00 -0.12193247311E+03  0.12193247311E+03  0.00000000000E+00 0. -1.
         25    2    1    2    0    0  0.76509090148E+01  0.24555265614E+02 -0.57432527050E+02  0.14002630068E+03  0.12508945696E+03 0.  0.
          5    1    3    3  502    0  0.32524150462E+02  0.53446573287E+02  0.89714899628E+01  0.63342849569E+02  0.41800000000E+01 0.  1.
         -5    1    3    3    0  502 -0.24873241447E+02 -0.28891307673E+02 -0.66404017013E+02  0.76683451113E+02  0.41800000000E+01 0.  1.
        -11    1    1    2    0    0 -0.77414958136E+01  0.30130765802E+02  0.52218736761E+02  0.60783141365E+02  0.00000000000E+00 0.  1.
         11    1    1    2    0    0  0.90586798884E-01 -0.54686031415E+02  0.20593344855E+02  0.58435058742E+02  0.00000000000E+00 0. -1.
</event>
<event>
 7    1  0.2719869E-009  0.1359997E+03  0.7561462E-02  0.1218815E+00
          1   -1    0    0  501    0  0.00000000000E+00  0.00000000000E+00  0.52967254769E+03  0.52967254769E+03  0.00000000000E+00 0. -1.
         -1   -1    0    0    0  501 -0.00000000000E+00 -0.00000000000E+00 -0.61916423597E+02  0.61916423597E+02  0.00000000000E+00 0.  1.
         25    2    1    2    0    0 -0.13702754394E+02 -0.11929454716E+03  0.11450836336E+03  0.20779333296E+03  0.12508776712E+03 0.  0.
          5    1    3    3  502    0 -0.46238154557E+02 -0.27619096850E+02 -0.42908827849E+01  0.54191009612E+02  0.41800000000E+01 0.  1.
         -5    1    3    3    0  502  0.32535400163E+02 -0.91675450310E+02  0.11879924615E+03  0.15360232335E+03  0.41800000000E+01 0.  1.
        -11    1    1    2    0    0 -0.11476178973E+01  0.34979321062E+02  0.21266351798E+02  0.40952748962E+02  0.00000000000E+00 0.  1.
         11    1    1    2    0    0  0.14850372291E+02  0.84315226098E+02  0.33198140894E+03  0.34284288936E+03  0.00000000000E+00 0. -1.
</event>
<event>
 7    1  0.2719869E-009  0.1060876E+03  0.7561462E-02  0.1267992E+00
          1   -1    0    0  501    0  0.00000000000E+00  0.00000000000E+00  0.47725215365E+03  0.47725215365E+03  0.00000000000E+00 0. -1.
         -1   -1    0    0    0  501 -0.00000000000E+00 -0.00000000000E+00 -0.36443533490E+02  0.36443533490E+02  0.00000000000E+00 0.  1.
         25    2    1    2    0    0 -0.33585478262E+02  0.32632343170E+02  0.15936908093E+03  0.20793706952E+03  0.12508583755E+03 0.  0.
          5    1    3    3  502    0 -0.78910669434E+02  0.37311512536E+02  0.11226524930E+03  0.14226735858E+03  0.41800000000E+01 0.  1.
         -5    1    3    3    0  502  0.45325191172E+02 -0.46791693656E+01  0.47103831631E+02  0.65669710940E+02  0.41800000000E+01 0.  1.
        -11    1    1    2    0    0 -0.76219854947E+01  0.14526450414E+02 -0.10233118030E+01  0.16436532224E+02  0.00000000000E+00 0.  1.
         11    1    1    2    0    0  0.41207463757E+02 -0.47158793584E+02  0.28246285103E+03  0.28932208539E+03  0.00000000000E+00 0. -1.
</event>
<event>
 7    1  0.2719869E-009  0.1463594E+03  0.7561462E-02  0.1205019E+00
         -2   -1    0    0    0  501 -0.00000000000E+00  0.00000000000E+00  0.36602609887E+02  0.36602609887E+02  0.00000000000E+00 0. -1.
          2   -1    0    0  501    0  0.00000000000E+00 -0.00000000000E+00 -0.74299890996E+03  0.74299890996E+03  0.00000000000E+00 0.  1.
         25    2    1    2    0    0  0.11285775167E+03 -0.39092752023E+02 -0.44501087262E+03  0.47743726712E+03  0.12508617791E+03 0.  0.
          5    1    3    3  502    0  0.95281466759E+02 -0.64031322280E+02 -0.20115738593E+03  0.23164700399E+03  0.41800000000E+01 0. -1.
         -5    1    3    3    0  502  0.17576284913E+02  0.24938570257E+02 -0.24385348669E+03  0.24579026313E+03  0.41800000000E+01 0. -1.
        -11    1    1    2    0    0  0.14380143584E+02  0.20213546679E+01 -0.55053952256E+02  0.56936913010E+02  0.00000000000E+00 0.  1.
         11    1    1    2    0    0 -0.12723789526E+03  0.37071397355E+02 -0.20633147519E+03  0.24522733972E+03  0.00000000000E+00 0. -1.
</event>
<event>
 7    1  0.2719869E-009  0.7015031E+02  0.7561462E-02  0.1359583E+00
          1   -1    0    0  501    0  0.00000000000E+00  0.00000000000E+00  0.19985778832E+03  0.19985778832E+03  0.00000000000E+00 0. -1.
         -1   -1    0    0    0  501 -0.00000000000E+00 -0.00000000000E+00 -0.10818235086E+03  0.10818235086E+03  0.00000000000E+00 0.  1.
         25    2    1    2    0    0  0.25080718893E+02 -0.12551649204E+02 -0.48521277718E+02  0.13707442261E+03  0.12509395103E+03 0.  0.
          5    1    3    3  502    0  0.95002851153E+01 -0.34314415693E+02  0.34494739731E+02  0.49750316690E+02  0.41800000000E+01 0. -1.
         -5    1    3    3    0  502  0.15580433778E+02  0.21762766489E+02 -0.83016017449E+02  0.87324105922E+02  0.41800000000E+01 0. -1.
        -11    1    1    2    0    0 -0.47241558681E+02  0.23364181670E+02  0.35839090965E+02  0.63734529832E+02  0.00000000000E+00 0.  1.
         11    1    1    2    0    0  0.22160839788E+02 -0.10812532466E+02  0.10435762421E+03  0.10723118674E+03  0.00000000000E+00 0. -1.
</event>
<event>
 7    1  0.2719869E-009  0.1151348E+03  0.7561462E-02  0.1251346E+00
         -2   -1    0    0    0  501 -0.00000000000E+00  0.00000000000E+00  0.53659036782E+03  0.53659036782E+03  0.00000000000E+00 0. -1.
          2   -1    0    0  501    0  0.00000000000E+00 -0.00000000000E+00 -0.37101985675E+02  0.37101985675E+02  0.00000000000E+00 0.  1.
         25    2    1    2    0    0 -0.60232279142E+02  0.45008693166E+02  0.36156976398E+03  0.38991508796E+03  0.12508945471E+03 0.  0.
          5    1    3    3  502    0  0.21687180121E+02  0.19465387206E+02  0.23563764300E+03  0.23746959022E+03  0.41800000000E+01 0.  1.
         -5    1    3    3    0  502 -0.81919459263E+02  0.25543305961E+02  0.12593212098E+03  0.15244549774E+03  0.41800000000E+01 0.  1.
        -11    1    1    2    0    0 -0.16399597618E+02 -0.33671166948E+02  0.75553195115E+02  0.84326624371E+02  0.00000000000E+00 0.  1.
         11    1    1    2    0    0  0.76631876760E+02 -0.11337526218E+02  0.62365423048E+02  0.99450641167E+02  0.00000000000E+00 0. -1.
</event>
<event>
 7    1  0.2719869E-009  0.9656016E+02  0.7561462E-02  0.1287700E+00
          2   -1    0    0  501    0  0.00000000000E+00  0.00000000000E+00  0.38074189518E+03  0.38074189518E+03  0.00000000000E+00 0.  1.
         -2   -1    0    0    0  501 -0.00000000000E+00 -0.00000000000E+00 -0.72879456612E+02  0.72879456612E+02  0.00000000000E+00 0. -1.
         25    2    1    2    0    0  0.12054514418E+02 -0.42264245725E+02  0.32478046448E+03  0.35080017611E+03  0.12508731216E+03 0.  0.
          5    1    3    3  502    0 -0.15795921873E+02  0.41213400396E+02  0.11669758913E+03  0.12483531242E+03  0.41800000000E+01 0.  1.
         -5    1    3    3    0  502  0.27850436291E+02 -0.83477646121E+02  0.20808287536E+03  0.22596486369E+03  0.41800000000E+01 0.  1.
        -11    1    1    2    0    0  0.51928013179E+01  0.43106377649E+02  0.30034561385E+02  0.52793937693E+02  0.00000000000E+00 0.  1.
         11    1    1    2    0    0 -0.17247315736E+02 -0.84213192408E+00 -0.46952587303E+02  0.50027237988E+02  0.00000000000E+00 0. -1.
</event>
<event>
 7    1  0.2719869E-009  0.1124271E+03  0.7561462E-02  0.1256140E+00
          2   -1    0    0  501    0  0.00000000000E+00  0.00000000000E+00  0.20851687702E+03  0.20851687702E+03  0.00000000000E+00 0. -1.
         -2   -1    0    0    0  501 -0.00000000000E+00 -0.00000000000E+00 -0.82500464505E+02  0.82500464505E+02  0.00000000000E+00 0.  1.
         25    2    1    2    0    0  0.52631093647E+02  0.45965283030E+02  0.96338079937E+02  0.17266385606E+03  0.12509573246E+03 0.  0.
          5    1    3    3  502    0 -0.30787777351E+02 -0.19896150077E+02  0.23336649079E+02  0.43655648115E+02  0.41800000000E+01 0. -1.
         -5    1    3    3    0  502  0.83418870998E+02  0.65861433107E+02  0.73001430859E+02  0.12900820794E+03  0.41800000000E+01 0. -1.
        -11    1    1    2    0    0 -0.44854661016E+02 -0.11561099207E+02  0.57208185099E+02  0.73609619426E+02  0.00000000000E+00 0. -1.
         11    1    1    2    0    0 -0.77764326307E+01 -0.34404183823E+02 -0.27529852518E+02  0.44743866044E+02  0.00000000000E+00 0.  1.
</event>
<event>
 7    1  0.2719869E-009  0.8506139E+02  0.7561462E-02  0.1315272E+00
         -1   -1    0    0    0  501 -0.00000000000E+00  0.00000000000E+00  0.48749606324E+03  0.48749606324E+03  0.00000000000E+00 0.  1.
          1   -1    0    0  501    0  0.00000000000E+00 -0.00000000000E+00 -0.19569847902E+02  0.19569847902E+02  0.00000000000E+00 0. -1.
         25    2    1    2    0    0  0.16420662757E+02 -0.16359067209E+02  0.28540163030E+03  0.31247654132E+03  0.12510092348E+03 0.  0.
          5    1    3    3  502    0 -0.31949561910E+02 -0.38749165303E+02  0.49674232882E+02  0.70762095293E+02  0.41800000000E+01 0. -1.
         -5    1    3    3    0  502  0.48370224666E+02  0.22390098094E+02  0.23572739741E+03  0.24171444603E+03  0.41800000000E+01 0. -1.
        -11    1    1    2    0    0  0.21187091376E+02  0.19139392967E+02  0.97115674698E+02  0.10122580440E+03  0.00000000000E+00 0.  1.
         11    1    1    2    0    0 -0.37607754132E+02 -0.27803257581E+01  0.85408910344E+02  0.93363565422E+02  0.00000000000E+00 0. -1.
</event>
<event>
 7    1  0.2719869E-009  0.7763410E+02  0.7561462E-02  0.1335903E+00
         -2   -1    0    0    0  501 -0.00000000000E+00  0.00000000000E+00  0.17149082739E+03  0.17149082739E+03  0.00000000000E+00 0.  1.
          2   -1    0    0  501    0  0.00000000000E+00 -0.00000000000E+00 -0.86787708879E+02  0.86787708879E+02  0.00000000000E+00 0. -1.
         25    2    1    2    0    0 -0.47307863162E+02  0.24791390032E+02  0.47885982336E+02  0.14418669485E+03  0.12507633162E+03 0.  0.
          5    1    3    3  502    0 -0.51736504659E+02 -0.49770201718E+01  0.82832356937E+02  0.97878028177E+02  0.41800000000E+01 0.  1.
         -5    1    3    3    0  502  0.44286414973E+01  0.29768410204E+02 -0.34946374601E+02  0.46308666676E+02  0.41800000000E+01 0.  1.
        -11    1    1    2    0    0  0.23586892743E+02  0.13883950781E+02  0.57914512597E+02  0.64056196952E+02  0.00000000000E+00 0.  1.
         11    1    1    2    0    0  0.23720970418E+02 -0.38675340813E+02 -0.21097376425E+02  0.50035644461E+02  0.00000000000E+00 0. -1.
</event>
<event>
 7    1  0.2719869E-009  0.1013527E+03  0.7561462E-02  0.1277477E+00
         -1   -1    0    0    0  501 -0.00000000000E+00  0.00000000000E+00  0.28185574081E+03  0.28185574081E+03  0.00000000000E+00 0.  1.
          1   -1    0    0  501    0  0.00000000000E+00 -0.00000000000E+00 -0.64362345416E+02  0.64362345416E+02  0.00000000000E+00 0. -1.
         25    2    1    2    0    0 -0.41831537739E+02 -0.33328836827E+02  0.43242433018E+02  0.14275176209E+03  0.12508984233E+03 0.  0.
          5    1    3    3  502    0  0.43902374830E+02 -0.20812908162E+02  0.95323096215E+01  0.49688358683E+02  0.41800000000E+01 0.  1.
         -5    1    3    3    0  502 -0.85733912569E+02 -0.12515928664E+02  0.33710123396E+02  0.93063403409E+02  0.41800000000E+01 0.  1.
        -11    1    1    2    0    0  0.24287962427E+02  0.41311449423E+02  0.17755713035E+03  0.18391050952E+03  0.00000000000E+00 0.  1.
         11    1    1    2    0    0  0.17543575312E+02 -0.79826125966E+01 -0.33061679765E+01  0.19555814615E+02  0.00000000000E+00 0. -1.
</event>
<event>
 7    1  0.2719869E-009  0.9353280E+02  0.7561462E-02  0.1294515E+00
          2   -1    0    0  501    0  0.00000000000E+00  0.00000000000E+00  0.33124710630E+02  0.33124710630E+02  0.00000000000E+00 0.  1.
         -2   -1    0    0    0  501 -0.00000000000E+00 -0.00000000000E+00 -0.38411946894E+03  0.38411946894E+03  0.00000000000E+00 0. -1.
         25    2    1    2    0    0  0.23250367566E+02  0.22660092254E+02 -0.22550221965E+03  0.25990909613E+03  0.12508967907E+03 0.  0.
          5    1    3    3  502    0 -0.42409765084E+02  0.36084081247E+02 -0.14311958060E+03  0.15362726270E+03  0.41800000000E+01 0. -1.
         -5    1    3    3    0  502  0.65660132649E+02 -0.13423988993E+02 -0.82382639050E+02  0.10628183343E+03  0.41800000000E+01 0. -1.
        -11    1    1    2    0    0  0.17303140712E+02  0.62391574031E+00  0.55634264293E+01  0.18186249283E+02  0.00000000000E+00 0.  1.
         11    1    1    2    0    0 -0.40553508278E+02 -0.23284007994E+02 -0.13105596509E+03  0.13914883416E+03  0.00000000000E+00 0. -1.
</event>
<event>
 7    1  0.2719869E-009  0.1602063E+03  0.7561462E-02  0.1188464E+00
          1   -1    0    0  501    0  0.00000000000E+00  0.00000000000E+00  0.12947909618E+03  0.12947909618E+03  0.00000000000E+00 0. -1.
         -1   -1    0    0    0  501 -0.00000000000E+00 -0.00000000000E+00 -0.23766662841E+03  0.23766662841E+03  0.00000000000E+00 0.  1.
         25    2    1    2    0    0  0.13549048073E+03  0.15614441251E+02 -0.48482701436E+02  0.19130596594E+03  0.12508364850E+03 0.  0.
          5    1    3    3  502    0  0.15415485969E+03  0.63483803039E+00 -0.58623884915E+02  0.16497986565E+03  0.41800000000E+01 0. -1.
         -5    1    3    3    0  502 -0.18664378960E+02  0.14979603220E+02  0.10141183479E+02  0.26326100299E+02  0.41800000000E+01 0. -1.
        -11    1    1    2    0    0 -0.12953513624E+03 -0.23879821726E+02 -0.79305553650E+02  0.15374969349E+03  0.00000000000E+00 0.  1.
         11    1    1    2    0    0 -0.59553444871E+01  0.82653804754E+01  0.19600722853E+02  0.22090065159E+02  0.00000000000E+00 0. -1.
</event>
<event>
 7    1  0.2719869E-009  0.1145495E+03  0.7561462E-02  0.1252370E+00
          2   -1    0    0  501    0  0.00000000000E+00  0.00000000000E+00  0.75300329771E+02  0.75300329771E+02  0.00000000000E+00 0. -1.
         -2   -1    0    0    0  501 -0.00000000000E+00 -0.00000000000E+00 -0.44203001604E+03  0.44203001604E+03  0.00000000000E+00 0.  1.
         25    2    1    2    0    0  0.56999889263E+02  0.71494828314E+02 -0.25014615834E+02  0.15695439650E+03  0.12509377971E+03 0.  0.
          5    1    3    3  502    0  0.11072699725E+02 -0.26390750365E+02  0.24550051678E+02  0.37937498882E+02  0.41800000000E+01 0.  1.
         -5    1    3    3    0  502  0.45927189537E+02  0.97885578679E+02 -0.49564667511E+02  0.11901689761E+03  0.41800000000E+01 0.  1.
        -11    1    1    2    0    0 -0.28234776873E+02 -0.27552244170E+02 -0.48616715712E+02  0.62609215220E+02  0.00000000000E+00 0. -1.
         11    1    1    2    0    0 -0.28765112390E+02 -0.43942584144E+02 -0.29309835472E+03  0.29776673409E+03  0.00000000000E+00 0.  1.
</event>
<event>
 7    1  0.2719869E-009  0.8406437E+02  0.7561462E-02  0.1317898E+00
         -1   -1    0    0    0  501 -0.00000000000E+00  0.00000000000E+00  0.91999223951E+02  0.91999223951E+02  0.00000000000E+00 0.  1.
          1   -1    0    0  501    0  0.00000000000E+00 -0.00000000000E+00 -0.13356636625E+03  0.13356636625E+03  0.00000000000E+00 0. -1.
         25    2    1    2    0    0  0.11074614088E+02  0.14135087201E+02 -0.47562270197E+02  0.13503757453E+03  0.12510207521E+03 0.  0.
          5    1    3    3  502    0  0.15804120594E+02  0.49146935834E+02 -0.74273709262E+02  0.90549698051E+02  0.41800000000E+01 0. -1.
         -5    1    3    3    0  502 -0.47295065054E+01 -0.35011848633E+02  0.26711439065E+02  0.44487876477E+02  0.41800000000E+01 0. -1.
        -11    1    1    2    0    0  0.15509023767E+02  0.27376326115E+02 -0.17410121610E+02  0.35959774530E+02  0.00000000000E+00 0. -1.
         11    1    1    2    0    0 -0.26583637855E+02 -0.41511413316E+02  0.23405249506E+02  0.54568241144E+02  0.00000000000E+00 0.  1.
</event>
<event>
 7    1  0.2719869E-009  0.2019563E+03  0.7561462E-02  0.1148099E+00
         -4   -1    0    0    0  501 -0.00000000000E+00  0.00000000000E+00  0.72921139004E+03  0.72921139004E+03  0.00000000000E+00 0.  1.
          4   -1    0    0  501    0  0.00000000000E+00 -0.00000000000E+00 -0.61677458769E+02  0.61677458769E+02  0.00000000000E+00 0. -1.
         25    2    1    2    0    0  0.24994426847E+02  0.17907655753E+03  0.29170551127E+03  0.36528307571E+03  0.12508591153E+03 0.  0.
          5    1    3    3  502    0 -0.25418415970E+02 -0.71008097347E+01  0.40986512445E+02  0.48927333585E+02  0.41800000000E+01 0. -1.
         -5    1    3    3    0  502  0.50412842817E+02  0.18617736727E+03  0.25071899882E+03  0.31635574212E+03  0.41800000000E+01 0. -1.
        -11    1    1    2    0    0 -0.20641952754E+02 -0.39045542845E+02  0.17666975446E+03  0.18210669063E+03  0.00000000000E+00 0.  1.
         11    1    1    2    0    0 -0.43524740929E+01 -0.14003101469E+03  0.19915866554E+03  0.24349908247E+03  0.00000000000E+00 0. -1.
</event>
<event>
 7    1  0.2719869E-009  0.6577284E+02  0.7561462E-02  0.1375088E+00
          1   -1    0    0  501    0  0.00000000000E+00  0.00000000000E+00  0.32349940806E+02  0.32349940806E+02  0.00000000000E+00 0. -1.
         -1   -1    0    0    0  501 -0.00000000000E+00 -0.00000000000E+00 -0.48791870755E+03  0.48791870755E+03  0.00000000000E+00 0.  1.
         25    2    1    2    0    0  0.42167051791E+01 -0.29245318725E+02 -0.36618544648E+03  0.38808769705E+03  0.12508880892E+03 0.  0.
          5    1    3    3  502    0  0.26115053806E+02 -0.26470274665E+02 -0.22486533653E+02  0.43655332685E+02  0.41800000000E+01 0.  1.
         -5    1    3    3    0  502 -0.21898348627E+02 -0.27750440594E+01 -0.34369891283E+03  0.34443236436E+03  0.41800000000E+01 0.  1.
        -11    1    1    2    0    0  0.72385591356E+01 -0.19912063862E+02 -0.77476370820E+02  0.80321074826E+02  0.00000000000E+00 0.  1.
         11    1    1    2    0    0 -0.11455264315E+02  0.49157382587E+02 -0.11906949440E+02  0.51859876478E+02  0.00000000000E+00 0. -1.
</event>
<event>
 7    1  0.2719869E-009  0.1502343E+03  0.7561462E-02  0.1200185E+00
         -2   -1    0    0    0  501 -0.00000000000E+00  0.00000000000E+00  0.39921787520E+02  0.39921787520E+02  0.00000000000E+00 0.  1.
          2   -1    0    0  501    0  0.00000000000E+00 -0.00000000000E+00 -0.59121850518E+03  0.59121850518E+03  0.00000000000E+00 0. -1.
         25    2    1    2    0    0  0.99355032673E+02 -0.18019329284E+02 -0.35685462232E+03  0.39139382863E+03  0.12509112226E+03 0.  0.
          5    1    3    3  502    0  0.36058227946E+02  0.53479027116E+02 -0.15996814621E+03  0.17253255446E+03  0.41800000000E+01 0. -1.
         -5    1    3    3    0  502  0.63296804727E+02 -0.71498356400E+02 -0.19688647611E+03  0.21886127417E+03  0.41800000000E+01 0. -1.
        -11    1    1    2    0    0 -0.30394741681E+01  0.41097338333E+02 -0.56798564718E+02  0.70173403618E+02  0.00000000000E+00 0.  1.
         11    1    1    2    0    0 -0.96315558505E+02 -0.23078009049E+02 -0.13764353062E+03  0.16957306046E+03  0.00000000000E+00 0. -1.
</event>
<event>
 7    1  0.2719869E-009  0.1385902E+03  0.7561462E-02  0.1215239E+00
          2   -1    0    0  501    0  0.00000000000E+00  0.00000000000E+00  0.93441455862E+03  0.93441455862E+03  0.00000000000E+00 0. -1.
         -2   -1    0    0    0  501 -0.00000000000E+00 -0.00000000000E+00 -0.23865678900E+02  0.23865678900E+02  0.00000000000E+00 0.  1.
         25    2    1    2    0    0  0.65505411809E+02 -0.71737162623E+02  0.58715035530E+03  0.60813443867E+03  0.12507908012E+03 0.  0.
          5    1    3    3  502    0  0.91187079036E+02 -0.15725985887E+02  0.41584003301E+03  0.42603144892E+03  0.41800000000E+01 0. -1.
         -5    1    3    3    0  502 -0.25681667227E+02 -0.56011176736E+02  0.17131032229E+03  0.18210298975E+03  0.41800000000E+01 0. -1.
        -11    1    1    2    0    0  0.16356821739E+02  0.47955790304E+01  0.10881945438E+02  0.20222757778E+02  0.00000000000E+00 0.  1.
         11    1    1    2    0    0 -0.81862233548E+02  0.66941583593E+02  0.31251657897E+03  0.32992304107E+03  0.00000000000E+00 0. -1.
</event>
<event>
 7    1  0.2719869E-009  0.1178640E+03  0.7561462E-02  0.1246663E+00
          4   -1    0    0  501    0  0.00000000000E+00  0.00000000000E+00  0.18095220136E+03  0.18095220136E+03  0.00000000000E+00 0. -1.
         -4   -1    0    0    0  501 -0.00000000000E+00 -0.00000000000E+00 -0.80402188772E+02  0.80402188772E+02  0.00000000000E+00 0.  1.
         25    2    1    2    0    0 -0.41407819663E+01  0.50295646989E+02  0.34478632461E+02  0.13922098281E+03  0.12508760042E+03 0.  0.
          5    1    3    3  502    0  0.27320921670E+02  0.83957886226E+02  0.26463717899E+02  0.92266788096E+02  0.41800000000E+01 0.  1.
         -5    1    3    3    0  502 -0.31461703637E+02 -0.33662239237E+02  0.80149145624E+01  0.46954194718E+02  0.41800000000E+01 0.  1.
        -11    1    1    2    0    0  0.45896983618E+02 -0.25345863378E+02  0.45115670638E+02  0.69169137863E+02  0.00000000000E+00 0.  1.
         11    1    1    2    0    0 -0.41756201652E+02 -0.24949783611E+02  0.20955709488E+02  0.52964269454E+02  0.00000000000E+00 0. -1.
</event>
<event>
 7    1  0.2719869E-009  0.1565800E+03  0.7561462E-02  0.1192613E+00
          2   -1    0    0  501    0  0.00000000000E+00  0.00000000000E+00  0.17020007040E+03  0.17020007040E+03  0.00000000000E+00 0.  1.
         -2   -1    0    0    0  501 -0.00000000000E+00 -0.00000000000E+00 -0.19283991180E+03  0.19283991180E+03  0.00000000000E+00 0. -1.
         25    2    1    2    0    0 -0.24503545724E+02  0.12327632219E+03  0.60310250281E+02  0.18730249257E+03  0.12508965612E+03 0.  0.
          5    1    3    3  502    0  0.36388461456E+02  0.33272753970E+02  0.61007505855E+02  0.78553067760E+02  0.41800000000E+01 0. -1.
         -5    1    3    3    0  502 -0.60892007180E+02  0.90003568218E+02 -0.69725557364E+00  0.10874942481E+03  0.41800000000E+01 0. -1.
        -11    1    1    2    0    0  0.26075197414E+02 -0.13783794099E+03 -0.75072879762E+02  0.15910735738E+03  0.00000000000E+00 0. -1.
         11    1    1    2    0    0 -0.15716516895E+01  0.14561618800E+02 -0.78772119150E+01  0.16630132251E+02  0.00000000000E+00 0.  1.
</event>
<event>
 7    1  0.2719869E-009  0.1143158E+03  0.7561462E-02  0.1252780E+00
          1   -1    0    0  501    0  0.00000000000E+00  0.00000000000E+00  0.11747498720E+03  0.11747498720E+03  0.00000000000E+00 0.  1.
         -1   -1    0    0    0  501 -0.00000000000E+00 -0.00000000000E+00 -0.16706233886E+03  0.16706233886E+03  0.00000000000E+00 0. -1.
         25    2    1    2    0    0  0.70436460893E+02 -0.14389153874E+02  0.26104417600E+02  0.14662034173E+03  0.12509093180E+03 0.  0.
          5    1    3    3  502    0 -0.36302897217E+02 -0.68307506560E+00  0.52786936373E+01  0.36928362330E+02  0.41800000000E+01 0. -1.
         -5    1    3    3    0  502  0.10673935811E+03 -0.13706078808E+02  0.20825723962E+02  0.10969197940E+03  0.41800000000E+01 0. -1.
        -11    1    1    2    0    0 -0.66506095341E+02 -0.29844065651E+01 -0.69846558862E+01  0.66938425571E+02  0.00000000000E+00 0.  1.
         11    1    1    2    0    0 -0.39303655516E+01  0.17373560439E+02 -0.68707113376E+02  0.70978558764E+02  0.00000000000E+00 0. -1.
</event>
<event>
 7    1  0.2719869E-009  0.1140705E+03  0.7561462E-02  0.1253212E+00
         -1   -1    0    0    0  501 -0.00000000000E+00  0.00000000000E+00  0.15445430294E+02  0.15445430294E+02  0.00000000000E+00 0.  1.
          1   -1    0    0  501    0  0.00000000000E+00 -0.00000000000E+00 -0.91941860798E+03  0.91941860798E+03  0.00000000000E+00 0. -1.
         25    2    1    2    0    0  0.44807725909E+02 -0.44536148236E+01 -0.43014118038E+03  0.45021804242E+03  0.12508910294E+03 0.  0.
          5    1    3    3  502    0  0.73536484812E+02  0.31980776863E+02 -0.20211738870E+03  0.21748401298E+03  0.41800000000E+01 0. -1.
         -5    1    3    3    0  502 -0.28728758904E+02 -0.36434391687E+02 -0.22802379169E+03  0.23273402944E+03  0.41800000000E+01 0. -1.
        -11    1    1    2    0    0  0.22044544876E+02 -0.20300729419E+02 -0.11824410141E+03  0.12198257700E+03  0.00000000000E+00 0. -1.
         11    1    1    2    0    0 -0.66852270784E+02  0.24754344243E+02 -0.35558789590E+03  0.36266341885E+03  0.00000000000E+00 0.  1.
</event>
<event>
 7    1  0.2719869E-009  0.1366247E+03  0.7561462E-02  0.1217944E+00
          2   -1    0    0  501    0  0.00000000000E+00  0.00000000000E+00  0.56617901985E+02  0.56617901985E+02  0.00000000000E+00 0. -1.
         -2   -1    0    0    0  501 -0.00000000000E+00 -0.00000000000E+00 -0.52920655441E+03  0.52920655441E+03  0.00000000000E+00 0.  1.
         25    2    1    2    0    0  0.95948978714E+02  0.51035092846E+02 -0.38323943796E+03  0.41752938243E+03  0.12509009218E+03 0.  0.
          5    1    3    3  502    0 -0.69443661849E+01  0.55197889731E+02 -0.19616418778E+03  0.20394335542E+03  0.41800000000E+01 0. -1.
         -5    1    3    3    0  502  0.10289334490E+03 -0.41627968851E+01 -0.18707525018E+03  0.21358602701E+03  0.41800000000E+01 0. -1.
        -11    1    1    2    0    0 -0.60823110681E+02 -0.50837232895E+02 -0.79847272063E+01  0.79672020873E+02  0.00000000000E+00 0. -1.
         11    1    1    2    0    0 -0.35125868032E+02 -0.19785995050E+00 -0.81364487263E+02  0.88623053102E+02  0.00000000000E+00 0.  1.
</event>
<event>
 7    1  0.2719869E-009  0.1060973E+03  0.7561462E-02  0.1267973E+00
         -2   -1    0    0    0  501 -0.00000000000E+00  0.00000000000E+00  0.28299514343E+02  0.28299514343E+02  0.00000000000E+00 0.  1.
          2   -1    0    0  501    0  0.00000000000E+00 -0.00000000000E+00 -0.53510822730E+03  0.53510822730E+03  0.00000000000E+00 0. -1.
         25    2    1    2    0    0  0.49560914632E+02  0.64697942985E+00 -0.33713844341E+03  0.36299699928E+03  0.12509112126E+03 0.  0.
          5    1    3    3  502    0  0.77061294682E+01  0.59145730140E+02 -0.11742953779E+03  0.13177545511E+03  0.41800000000E+01 0. -1.
         -5    1    3    3    0  502  0.41854785164E+02 -0.58498750711E+02 -0.21970890563E+03  0.23122154417E+03  0.41800000000E+01 0. -1.
        -11    1    1    2    0    0 -0.55682408508E+02  0.19730095851E+02 -0.45861140464E+02  0.74786706734E+02  0.00000000000E+00 0.  1.
         11    1    1    2    0    0  0.61214938755E+01 -0.20377075280E+02 -0.12380912908E+03  0.12562403563E+03  0.00000000000E+00 0. -1.
</event>
<event>
 7    1  0.2719869E-009  0.8142980E+02  0.7561462E-02  0.1325042E+00
         -2   -1    0    0    0  501 -0.00000000000E+00  0.00000000000E+00  0.38157959876E+02  0.38157959876E+02  0.00000000000E+00 0.  1.
          2   -1    0    0  501    0  0.00000000000E+00 -0.00000000000E+00 -0.43865064881E+03  0.43865064881E+03  0.00000000000E+00 0. -1.
         25    2    1    2    0    0  0.53306858581E+02 -0.27939132447E+02 -0.31441971531E+03  0.34369994313E+03  0.12509067606E+03 0.  0.
          5    1    3    3  502    0  0.12102649660E+02 -0.10777175347E+02  0.77377328441E+01  0.18438181766E+02  0.41800000000E+01 0. -1.
         -5    1    3    3    0  502  0.41204208921E+02 -0.17161957100E+02 -0.32215744816E+03  0.32526176137E+03  0.41800000000E+01 0. -1.
        -11    1    1    2    0    0 -0.48813909112E+02 -0.20284248103E+02 -0.49498275779E+02  0.72417730901E+02  0.00000000000E+00 0. -1.
         11    1    1    2    0    0 -0.44929494691E+01  0.48223380550E+02 -0.36574697839E+02  0.60690934649E+02  0.00000000000E+00 0.  1.
</event>
<event>
 7    1  0.2719869E-009  0.1112213E+03  0.7561462E-02  0.1258325E+00
         -2   -1    0    0    0  501 -0.00000000000E+00  0.00000000000E+00  0.36211581853E+02  0.36211581853E+02  0.00000000000E+00 0.  1.
          2   -1    0    0  501    0  0.00000000000E+00 -0.00000000000E+00 -0.39955420519E+03  0.39955420519E+03  0.00000000000E+00 0. -1.
         25    2    1    2    0    0  0.36204412054E+02 -0.25447204211E+02 -0.15670465909E+03  0.20533190819E+03  0.12508606111E+03 0.  0.
          5    1    3    3  502    0  0.45384409061E+02  0.36153216685E+02 -0.33281176490E+02  0.67021703731E+02  0.41800000000E+01 0. -1.
         -5    1    3    3    0  502 -0.91799970072E+01 -0.61600420896E+02 -0.12342348260E+03  0.13831020446E+03  0.41800000000E+01 0. -1.
        -11    1    1    2    0    0  0.29072824541E+02  0.22037155686E+02 -0.79792451838E+02  0.87736541576E+02  0.00000000000E+00 0.  1.
         11    1    1    2    0    0 -0.65277236595E+02  0.34100485247E+01 -0.12684551241E+03  0.14269733728E+03  0.00000000000E+00 0. -1.
</event>
<event>
 7    1  0.2719869E-009  0.7616927E+02  0.7561462E-02  0.1340288E+00
         -1   -1    0    0    0  501 -0.00000000000E+00  0.00000000000E+00  0.28117098797E+03  0.28117098797E+03  0.00000000000E+00 0.  1.
          1   -1    0    0  501    0  0.00000000000E+00 -0.00000000000E+00 -0.42357280758E+02  0.42357280758E+02  0.00000000000E+00 0. -1.
         25    2    1    2    0    0  0.13700018457E+02  0.15855698755E+01  0.15694643187E+03  0.20116903683E+03  0.12508634764E+03 0.  0.
          5    1    3    3  502    0  0.42037883155E+02 -0.43864351010E+01  0.98208609038E+00  0.42483659519E+02  0.41800000000E+01 0. -1.
         -5    1    3    3    0  502 -0.28337864698E+02  0.59720049765E+01  0.15596434578E+03  0.15868537731E+03  0.41800000000E+01 0. -1.
        -11    1    1    2    0    0 -0.15120983795E+02 -0.39691078521E+02  0.14376120302E+02  0.44840815113E+02  0.00000000000E+00 0. -1.
         11    1    1    2    0    0  0.14209653383E+01  0.38105508646E+02  0.67491155038E+02  0.77518416780E+02  0.00000000000E+00 0.  1.
</event>
<event>
 7    1  0.2719869E-009  0.9559736E+02  0.7561462E-02  0.1289836E+00
         -2   -1    0    0    0  501 -0.00000000000E+00  0.00000000000E+00  0.43727515733E+02  0.43727515733E+02  0.00000000000E+00 0.  1.
          2   -1    0    0  501    0  0.00000000000E+00 -0.00000000000E+00 -0.52750443625E+03  0.52750443625E+03  0.00000000000E+00 0. -1.
         25    2    1    2    0    0  0.28094527389E+02  0.17368859153E+02 -0.30989830016E+03  0.33581705452E+03  0.12508060571E+03 0.  0.
          5    1    3    3  502    0  0.56393573280E+02  0.56822911616E+02 -0.20631985452E+03  0.22134686165E+03  0.41800000000E+01 0.  1.
         -5    1    3    3    0  502 -0.28299045890E+02 -0.39454052464E+02 -0.10357844564E+03  0.11447019287E+03  0.41800000000E+01 0.  1.
        -11    1    1    2    0    0  0.14543238604E+02 -0.12871938515E+02  0.25175263215E+02  0.31796013400E+02  0.00000000000E+00 0.  1.
         11    1    1    2    0    0 -0.42637765994E+02 -0.44969206380E+01 -0.19905388357E+03  0.20361888407E+03  0.00000000000E+00 0. -1.
</event>
<event>
 7    1  0.2719869E-009  0.1124032E+03  0.7561462E-02  0.1256183E+00
         -2   -1    0    0    0  501 -0.00000000000E+00  0.00000000000E+00  0.28950931357E+02  0.28950931357E+02  0.00000000000E+00 0.  1.
          2   -1    0    0  501    0  0.00000000000E+00 -0.00000000000E+00 -0.60092538406E+03  0.60092538406E+03  0.00000000000E+00 0. -1.
         25    2    1    2    0    0 -0.54185228270E+02  0.35426287827E+02 -0.41702800984E+03  0.44017059393E+03  0.12508688956E+03 0.  0.
          5    1    3    3  502    0 -0.54775698348E+02 -0.33983512905E+02 -0.13445784428E+03  0.14916983800E+03  0.41800000000E+01 0. -1.
         -5    1    3    3    0  502  0.59047007803E+00  0.69409800732E+02 -0.28257016556E+03  0.29100075594E+03  0.41800000000E+01 0. -1.
        -11    1    1    2    0    0 -0.14418488283E+02 -0.27293145482E+01  0.24919756571E+01  0.14884619745E+02  0.00000000000E+00 0.  1.
         11    1    1    2    0    0  0.68603716554E+02 -0.32696973279E+02 -0.15743841852E+03  0.17482110174E+03  0.00000000000E+00 0. -1.
</event>
<event>
 7    1  0.2719869E-009  0.1127301E+03  0.7561462E-02  0.1255596E+00
          3   -1    0    0  501    0  0.00000000000E+00  0.00000000000E+00  0.58322198028E+02  0.58322198028E+02  0.00000000000E+00 0. -1.
         -3   -1    0    0    0  501 -0.00000000000E+00 -0.00000000000E+00 -0.22708487582E+03  0.22708487582E+03  0.00000000000E+00 0.  1.
         25    2    1    2    0    0 -0.12798433183E+01 -0.37614861921E+02 -0.78190900203E+02  0.15224098068E+03  0.12508790304E+03 0.  0.
          5    1    3    3  502    0 -0.21117900637E+02 -0.79521168398E+02 -0.61420610150E+02  0.10275965016E+03  0.41800000000E+01 0.  1.
         -5    1    3    3    0  502  0.19838057319E+02  0.41906306477E+02 -0.16770290053E+02  0.49481330512E+02  0.41800000000E+01 0.  1.
        -11    1    1    2    0    0  0.10534839935E+00 -0.29449234273E+02 -0.18840497753E+02  0.34960446981E+02  0.00000000000E+00 0. -1.
         11    1    1    2    0    0  0.11744949190E+01  0.67064096194E+02 -0.71731279834E+02  0.98205646188E+02  0.00000000000E+00 0.  1.
</event>
<event>
 7    1  0.2719869E-009  0.2424264E+03  0.7561462E-02  0.1118187E+00
         -2   -1    0    0    0  501 -0.00000000000E+00  0.00000000000E+00  0.68910560932E+03  0.68910560932E+03  0.00000000000E+00 0.  1.
          2   -1    0    0  501    0  0.00000000000E+00 -0.00000000000E+00 -0.87510874026E+02  0.87510874026E+02  0.00000000000E+00 0. -1.
         25    2    1    2    0    0 -0.12333080062E+03  0.18113218446E+03  0.28247524511E+03  0.37876001740E+03  0.12509009571E+03 0.  0.
          5    1    3    3  502    0 -0.85535281459E+02  0.19397552349E+03  0.24215546195E+03  0.32186880594E+03  0.41800000000E+01 0.  1.
         -5    1    3    3    0  502 -0.37795519161E+02 -0.12843339027E+02  0.40319783166E+02  0.56891211453E+02  0.41800000000E+01 0.  1.
        -11    1    1    2    0    0 -0.11190619232E+02 -0.18493537801E+02  0.59273771471E+02  0.63092161823E+02  0.00000000000E+00 0.  1.
         11    1    1    2    0    0  0.13452141985E+03 -0.16263864666E+03  0.25984571871E+03  0.33476430413E+03  0.00000000000E+00 0. -1.
</event>
<event>
 7    1  0.2719869E-009  0.1680307E+03  0.7561462E-02  0.1179917E+00
         -2   -1    0    0    0  501 -0.00000000000E+00  0.00000000000E+00  0.93587975552E+02  0.93587975552E+02  0.00000000000E+00 0.  1.
          2   -1    0    0  501    0  0.00000000000E+00 -0.00000000000E+00 -0.50550014162E+03  0.50550014162E+03  0.00000000000E+00 0. -1.
         25    2    1    2    0    0  0.13260027387E+03  0.18386209811E+02 -0.31990175235E+02  0.18598437886E+03  0.12508370208E+03 0.  0.
          5    1    3    3  502    0  0.28021635324E+02  0.63157246005E+02 -0.83847735531E+01  0.69726799702E+02  0.41800000000E+01 0. -1.
         -5    1    3    3    0  502  0.10457863855E+03 -0.44771036194E+02 -0.23605401682E+02  0.11625757915E+03  0.41800000000E+01 0. -1.
        -11    1    1    2    0    0 -0.10618044648E+02 -0.28686412823E+02 -0.31973242896E+02  0.44248631776E+02  0.00000000000E+00 0.  1.
         11    1    1    2    0    0 -0.12198222922E+03  0.10300203012E+02 -0.34794874794E+03  0.36885510654E+03  0.00000000000E+00 0. -1.
</event>
<event>
 7    1  0.2719869E-009  0.7962928E+02  0.7561462E-02  0.1330107E+00
          2   -1    0    0  501    0  0.00000000000E+00  0.00000000000E+00  0.41645351443E+03  0.41645351443E+03  0.00000000000E+00 0. -1.
         -2   -1    0    0    0  501 -0.00000000000E+00 -0.00000000000E+00 -0.31526968305E+02  0.31526968305E+02  0.00000000000E+00 0.  1.
         25    2    1    2    0    0  0.11898599893E+02  0.30988321238E+02  0.25916584943E+03  0.28968450955E+03  0.12509326454E+03 0.  0.
          5    1    3    3  502    0  0.37341318215E+02 -0.13177224173E+02  0.22425804742E+03  0.22776557579E+03  0.41800000000E+01 0. -1.
         -5    1    3    3    0  502 -0.25442718322E+02  0.44165545410E+02  0.34907802007E+02  0.61918933760E+02  0.41800000000E+01 0. -1.
        -11    1    1    2    0    0  0.12939238350E+02 -0.39873333509E+02  0.15135198636E+02  0.44568832742E+02  0.00000000000E+00 0.  1.
         11    1    1    2    0    0 -0.24837838242E+02  0.88850122718E+01  0.11062549806E+03  0.11372714044E+03  0.00000000000E+00 0. -1.
</event>
<event>
 7    1  0.2719869E-009  0.2459854E+03  0.7561462E-02  0.1115869E+00
         -1   -1    0    0    0  501 -0.00000000000E+00  0.00000000000E+00  0.17930651184E+03  0.17930651184E+03  0.00000000000E+00 0.  1.
          1   -1    0    0  501    0  0.00000000000E+00 -0.00000000000E+00 -0.34326754566E+03  0.34326754566E+03  0.00000000000E+00 0. -1.
         25    2    1    2    0    0 -0.22014236812E+03  0.16474910506E+02 -0.11711612334E+03  0.27945961183E+03  0.12508958143E+03 0.  0.
          5    1    3    3  502    0 -0.21659915171E+03 -0.19287056743E+02 -0.98278544722E+02  0.23866991396E+03  0.41800000000E+01 0.  1.
         -5    1    3    3    0  502 -0.35432164121E+01  0.35761967249E+02 -0.18837578618E+02  0.40789697869E+02  0.41800000000E+01 0.  1.
        -11    1    1    2    0    0  0.97809490591E+02 -0.52180500755E+02 -0.27493430962E+02  0.11421641675E+03  0.00000000000E+00 0.  1.
         11    1    1    2    0    0  0.12233287753E+03  0.35705590249E+02 -0.19351479524E+02  0.12889802892E+03  0.00000000000E+00 0. -1.
</event>
<event>
 7    1  0.2719869E-009  0.9064600E+02  0.7561462E-02  0.1301295E+00
         -2   -1    0    0    0  501 -0.00000000000E+00  0.00000000000E+00  0.40981236748E+02  0.40981236748E+02  0.00000000000E+00 0.  1.
          2   -1    0    0  501    0  0.00000000000E+00 -0.00000000000E+00 -0.43358192691E+03  0.43358192691E+03  0.00000000000E+00 0. -1.
         25    2    1    2    0    0  0.57042282114E+02  0.11402397814E+02 -0.12601099898E+03  0.18681661427E+03  0.12505134496E+03 0.  0.
          5    1    3    3  502    0 -0.22617210655E+02  0.28944825597E+02 -0.38282725951E+00  0.36972423552E+02  0.41800000000E+01 0. -1.
         -5    1    3    3    0  502  0.79659492769E+02 -0.17542427782E+02 -0.12562817172E+03  0.14984419071E+03  0.41800000000E+01 0. -1.
        -11    1    1    2    0    0 -0.16098972806E+02  0.72479739067E+01 -0.27421054855E+00  0.17657441564E+02  0.00000000000E+00 0.  1.
         11    1    1    2    0    0 -0.40943309308E+02 -0.18650371721E+02 -0.26631548064E+03  0.27008910783E+03  0.00000000000E+00 0. -1.
</event>
<event>
 7    1  0.2719869E-009  0.9583592E+02  0.7561462E-02  0.1289304E+00
          3   -1    0    0  501    0  0.00000000000E+00  0.00000000000E+00  0.11229150788E+03  0.11229150788E+03  0.00000000000E+00 0. -1.
         -3   -1    0    0    0  501 -0.00000000000E+00 -0.00000000000E+00 -0.15289466887E+03  0.15289466887E+03  0.00000000000E+00 0.  1.
         25    2    1    2    0    0 -0.19467695451E+02  0.36048965626E+02 -0.16042076452E+02  0.13260208807E+03  0.12508975360E+03 0.  0.
          5    1    3    3  502    0 -0.39031727326E+02  0.46501027153E+02 -0.58566220923E+02  0.84458841441E+02  0.41800000000E+01 0.  1.
         -5    1    3    3    0  502  0.19564031875E+02 -0.10452061527E+02  0.42524144471E+02  0.48143246633E+02  0.41800000000E+01 0.  1.
        -11    1    1    2    0    0  0.60746901129E+02 -0.22958968088E+02  0.22408098348E+02  0.68698057353E+02  0.00000000000E+00 0. -1.
         11    1    1    2    0    0 -0.41279205678E+02 -0.13089997537E+02 -0.46969182893E+02  0.63886031326E+02  0.00000000000E+00 0.  1.
</event>
<event>
 7    1  0.2719869E-009  0.7982149E+02  0.7561462E-02  0.1329559E+00
         -1   -1    0    0    0  501 -0.00000000000E+00  0.00000000000E+00  0.23078251488E+02  0.23078251488E+02  0.00000000000E+00 0.  1.
          1   -1    0    0  501    0  0.00000000000E+00 -0.00000000000E+00 -0.68112070448E+03  0.68112070448E+03  0.00000000000E+00 0. -1.
         25    2    1    2    0    0 -0.28437431524E+02  0.42245325371E+02 -0.47334854246E+03  0.49223851059E+03  0.12508618482E+03 0.  0.
          5    1    3    3  502    0 -0.10154213620E+02  0.49794266770E+00  0.47355023709E+01  0.11968850565E+02  0.41800000000E+01 0. -1.
         -5    1    3    3    0  502 -0.18283217904E+02  0.41747382703E+02 -0.47808404483E+03  0.48026966002E+03  0.41800000000E+01 0. -1.
        -11    1    1    2    0    0  0.39899305865E+02 -0.65649891696E+02 -0.15043733998E+03  0.16891789765E+03  0.00000000000E+00 0. -1.
         11    1    1    2    0    0 -0.11461874341E+02  0.23404566325E+02 -0.34256570556E+02  0.43042547723E+02  0.00000000000E+00 0.  1.
</event>
<event>
 7    1  0.2954309E-009  0.1374116E+03  0.7561462E-02  0.1216855E+00
         -2   -1    0    0    0  501 -0.00000000000E+00  0.00000000000E+00  0.16855789901E+02  0.16855789901E+02  0.00000000000E+00 0. -1.
          2   -1    0    0  501    0  0.00000000000E+00 -0.00000000000E+00 -0.17363696922E+04  0.17363696922E+04  0.00000000000E+00 0.  1.
         25    2    1    2    0    0 -0.75561530049E+02  0.86181506160E+02 -0.12477018041E+04  0.12591837109E+04  0.12508808570E+03 0.  0.
          5    1    3    3  502    0 -0.48509977657E+02 -0.10161263178E+01 -0.83791593869E+03  0.83932999658E+03  0.41800000000E+01 0. -1.
         -5    1    3    3    0  502 -0.27051552392E+02  0.87197632478E+02 -0.40978586538E+03  0.41985371436E+03  0.41800000000E+01 0. -1.
        -11    1    1    2    0    0  0.44618962877E+02 -0.92906146859E+02 -0.42640607202E+03  0.43868501482E+03  0.00000000000E+00 0.  1.
         11    1    1    2    0    0  0.30942567172E+02  0.67246406993E+01 -0.45406026167E+02  0.55356756299E+02  0.00000000000E+00 0. -1.
</event>
<event>
 7    1  0.2719869E-009  0.1196608E+03  0.7561462E-02  0.1243658E+00
          2   -1    0    0  501    0  0.00000000000E+00  0.00000000000E+00  0.72026259639E+03  0.72026259639E+03  0.00000000000E+00 0. -1.
         -2   -1    0    0    0  501 -0.00000000000E+00 -0.00000000000E+00 -0.24632967254E+02  0.24632967254E+02  0.00000000000E+00 0.  1.
         25    2    1    2    0    0 -0.35880890704E+02  0.50377152810E+02  0.50764958057E+03  0.52648052577E+03  0.12509337123E+03 0.  0.
          5    1    3    3  502    0  0.41307603075E+02  0.11991207042E+02  0.87891244935E+02  0.97941056020E+02  0.41800000000E+01 0. -1.
         -5    1    3    3    0  502 -0.77188493779E+02  0.38385945767E+02  0.41975833563E+03  0.42853946975E+03  0.41800000000E+01 0. -1.
        -11    1    1    2    0    0  0.58927641902E+02 -0.60652575804E+02  0.12880150401E+03  0.15408124275E+03  0.00000000000E+00 0.  1.
         11    1    1    2    0    0 -0.23046751198E+02  0.10275422994E+02  0.59178544564E+02  0.64333795126E+02  0.00000000000E+00 0. -1.
</event>
<event>
 7    1  0.2719869E-009  0.2501894E+03  0.7561462E-02  0.1113185E+00
         -2   -1    0    0    0  501 -0.00000000000E+00  0.00000000000E+00  0.44594396483E+03  0.44594396483E+03  0.00000000000E+00 0.  1.
          2   -1    0    0  501    0  0.00000000000E+00 -0.00000000000E+00 -0.24952264156E+03  0.24952264156E+03  0.00000000000E+00 0. -1.
         25    2    1    2    0    0 -0.17997786707E+03 -0.14504739735E+03  0.32349410885E+03  0.41680648418E+03  0.12509367164E+03 0.  0.
          5    1    3    3  502    0 -0.91670000680E+02 -0.14820229974E+03  0.21855762091E+03  0.27955717971E+03  0.41800000000E+01 0. -1.
         -5    1    3    3    0  502 -0.88307866394E+02  0.31549023922E+01  0.10493648794E+03  0.13724930447E+03  0.41800000000E+01 0. -1.
        -11    1    1    2    0    0  0.16561343904E+03  0.10760703396E+03 -0.71322998492E+02  0.20998584491E+03  0.00000000000E+00 0.  1.
         11    1    1    2    0    0  0.14364428037E+02  0.37440363389E+02 -0.55749787081E+02  0.68674277304E+02  0.00000000000E+00 0. -1.
</event>
<event>
 7    1  0.2719869E-009  0.9169016E+02  0.7561462E-02  0.1298810E+00
         -2   -1    0    0    0  501 -0.00000000000E+00  0.00000000000E+00  0.60618868474E+02  0.60618868474E+02  0.00000000000E+00 0. -1.
          2   -1    0    0  501    0  0.00000000000E+00 -0.00000000000E+00 -0.22428377450E+03  0.22428377450E+03  0.00000000000E+00 0.  1.
         25    2    1    2    0    0  0.41675364345E+02 -0.18830857015E+02 -0.11437030100E+03  0.17555386429E+03  0.12508859399E+03 0.  0.
          5    1    3    3  502    0  0.71490862575E+02  0.24918462913E+02 -0.44942204089E+02  0.88142766771E+02  0.41800000000E+01 0. -1.
         -5    1    3    3    0  502 -0.29815498230E+02 -0.43749319928E+02 -0.69428096914E+02  0.87411097522E+02  0.41800000000E+01 0. -1.
        -11    1    1    2    0    0 -0.28072440684E+02  0.26692346583E+02  0.16206027206E+02  0.41990220408E+02  0.00000000000E+00 0. -1.
         11    1    1    2    0    0 -0.13602923661E+02 -0.78614895679E+01 -0.65500632227E+02  0.67358558272E+02  0.00000000000E+00 0.  1.
</event>
<event>
 7    1  0.2719869E-009  0.8730912E+02  0.7561462E-02  0.1309502E+00
         -1   -1    0    0    0  501 -0.00000000000E+00  0.00000000000E+00  0.55771017532E+02  0.55771017532E+02  0.00000000000E+00 0.  1.
          1   -1    0    0  501    0  0.00000000000E+00 -0.00000000000E+00 -0.24519684078E+03  0.24519684078E+03  0.00000000000E+00 0. -1.
         25    2    1    2    0    0 -0.34682546055E+02  0.26034022230E+02 -0.87751646575E+02  0.15884576258E+03  0.12510385885E+03 0.  0.
          5    1    3    3  502    0  0.44456543752E+02 -0.73122963324E+01 -0.20430668586E+02  0.49646133574E+02  0.41800000000E+01 0.  1.
         -5    1    3    3    0  502 -0.79139089807E+02  0.33346318562E+02 -0.67320977989E+02  0.10919962900E+03  0.41800000000E+01 0.  1.
        -11    1    1    2    0    0  0.87513786553E+01 -0.73815895169E+01  0.16289365712E+02  0.19910246795E+02  0.00000000000E+00 0.  1.
         11    1    1    2    0    0  0.25931167400E+02 -0.18652432713E+02 -0.11796354239E+03  0.12221184894E+03  0.00000000000E+00 0. -1.
</event>
<event>
 7    1  0.2719869E-009  0.1908107E+03  0.7561462E-02  0.1157732E+00
          1   -1    0    0  501    0  0.00000000000E+00  0.00000000000E+00  0.14584629517E+04  0.14584629517E+04  0.00000000000E+00 0. -1.
         -1   -1    0    0    0  501 -0.00000000000E+00 -0.00000000000E+00 -0.25372357736E+02  0.25372357736E+02  0.00000000000E+00 0.  1.
         25    2    1    2    0    0  0.15865208141E+03  0.22241350278E+02  0.75248374775E+03  0.77945132205E+03  0.12508961676E+03 0.  0.
          5    1    3    3  502    0  0.44524911019E+02 -0.49662879335E+02  0.20697302964E+03  0.21749523370E+03  0.41800000000E+01 0.  1.
         -5    1    3    3    0  502  0.11412717039E+03  0.71904229614E+02  0.54551071811E+03  0.56195608834E+03  0.41800000000E+01 0.  1.
        -11    1    1    2    0    0 -0.88684540127E+02 -0.53099766245E+02  0.43690865305E+03  0.44896960247E+03  0.00000000000E+00 0.  1.
         11    1    1    2    0    0 -0.69967541284E+02  0.30858415967E+02  0.24369819315E+03  0.25541438490E+03  0.00000000000E+00 0. -1.
</event>
<event>
 7    1  0.2719869E-009  0.1375272E+03  0.7561462E-02  0.1216696E+00
          3   -1    0    0  501    0  0.00000000000E+00  0.00000000000E+00  0.17058908304E+02  0.17058908304E+02  0.00000000000E+00 0. -1.
         -3   -1    0    0    0  501 -0.00000000000E+00 -0.00000000000E+00 -0.14020089711E+04  0.14020089711E+04  0.00000000000E+00 0.  1.
         25    2    1    2    0    0 -0.76443775044E+02 -0.60141923732E+02 -0.97659335465E+03  0.98936638883E+03  0.12510223523E+03 0.  0.
          5    1    3    3  502    0 -0.10684960259E+03 -0.53729903909E+02 -0.62328779258E+03  0.63467226577E+03  0.41800000000E+01 0. -1.
         -5    1    3    3    0  502  0.30405827545E+02 -0.64120198231E+01 -0.35330556207E+03  0.35469412306E+03  0.41800000000E+01 0. -1.
        -11    1    1    2    0    0  0.78436747112E+02  0.16263498868E+02 -0.17799668647E+03  0.19519130382E+03  0.00000000000E+00 0.  1.
         11    1    1    2    0    0 -0.19929720682E+01  0.43878424865E+02 -0.23036002172E+03  0.23451018680E+03  0.00000000000E+00 0. -1.
</event>
<event>
 7    1  0.3650185E-009  0.1054737E+03  0.7561462E-02  0.1269189E+00
          1   -1    0    0  501    0  0.00000000000E+00  0.00000000000E+00  0.73782320305E+02  0.73782320305E+02  0.00000000000E+00 0. -1.
         -1   -1    0    0    0  501 -0.00000000000E+00 -0.00000000000E+00 -0.25429440402E+03  0.25429440402E+03  0.00000000000E+00 0.  1.
         25    2    1    2    0    0  0.19290193410E+02 -0.61962528603E+02 -0.36778299731E+02  0.14563871855E+03  0.12508607635E+03 0.  0.
          5    1    3    3  502    0  0.58543079672E+02  0.11768875446E+01  0.72222968069E+01  0.59146523253E+02  0.41800000000E+01 0.  1.
         -5    1    3    3    0  502 -0.39252886261E+02 -0.63139416147E+02 -0.44000596538E+02  0.86492195295E+02  0.41800000000E+01 0.  1.
        -11    1    1    2    0    0 -0.21780762412E+02  0.71699326221E+01 -0.12085052345E+03  0.12300674194E+03  0.00000000000E+00 0.  1.
         11    1    1    2    0    0  0.24905690019E+01  0.54792595981E+02 -0.22883260533E+02  0.59431263834E+02  0.00000000000E+00 0. -1.
</event>
<event>
 6    1  0.2719869E-009  0.8991423E+02  0.7561462E-02  0.1303060E+00
          2   -1    0    0  501    0  0.00000000000E+00  0.00000000000E+00  0.16259224414E+03  0.16259224414E+03  0.00000000000E+00 0.  1.
         -2   -1    0    0    0  501 -0.00000000000E+00 -0.00000000000E+00 -0.94078086133E+02  0.94078086133E+02  0.00000000000E+00 0. -1.
          5    1    1    2  502    0  0.93711205389E+01 -0.68124914189E+02 -0.38236304569E+01  0.68999379586E+02  0.41800000000E+01 0.  1.
         -5    1    1    2    0  502  0.34121122080E+02  0.54086599917E+02  0.43854821687E+01  0.64236408029E+02  0.41800000000E+01 0.  1.
        -11    1    1    2    0    0 -0.24538278945E+02  0.25155016282E+01  0.89302882723E+02  0.92646962954E+02  0.00000000000E+00 0.  1.
         11    1    1    2    0    0 -0.18953963674E+02  0.11522812644E+02 -0.21350576428E+02  0.30787579704E+02  0.00000000000E+00 0. -1.
</event>
<event>
 7    1  0.2719869E-009  0.1804591E+03  0.7561462E-02  0.1167359E+00
          2   -1    0    0  501    0  0.00000000000E+00  0.00000000000E+00  0.85591626794E+02  0.85591626794E+02  0.00000000000E+00 0.  1.
         -2   -1    0    0    0  501 -0.00000000000E+00 -0.00000000000E+00 -0.55806594345E+03  0.55806594345E+03  0.00000000000E+00 0. -1.
         25    2    1    2    0    0  0.15479951334E+03 -0.91007802663E+02 -0.15583896517E+03  0.26865829866E+03  0.12508472687E+03 0.  0.
          5    1    3    3  502    0  0.51601202921E+01 -0.71345359739E+01 -0.80782029734E+02  0.81367912428E+02  0.41800000000E+01 0. -1.
         -5    1    3    3    0  502  0.14963939305E+03 -0.83873266689E+02 -0.75056935433E+02  0.18729038623E+03  0.41800000000E+01 0. -1.
        -11    1    1    2    0    0 -0.11573530832E+03  0.68924441123E+02 -0.14637354898E+03  0.19892324152E+03  0.00000000000E+00 0.  1.
         11    1    1    2    0    0 -0.39064205023E+02  0.22083361540E+02 -0.17026180251E+03  0.17607603007E+03  0.00000000000E+00 0. -1.
</event>
<event>
 7    1  0.2719869E-009  0.2863622E+03  0.7561462E-02  0.1092264E+00
          1   -1    0    0  501    0  0.00000000000E+00  0.00000000000E+00  0.13690004459E+04  0.13690004459E+04  0.00000000000E+00 0. -1.
         -1   -1    0    0    0  501 -0.00000000000E+00 -0.00000000000E+00 -0.73110948771E+02  0.73110948771E+02  0.00000000000E+00 0.  1.
         25    2    1    2    0    0 -0.14295710535E+03  0.23286278737E+03  0.39607705299E+03  0.49717837319E+03  0.12508993226E+03 0.  0.
          5    1    3    3  502    0 -0.12656358823E+03  0.13407549817E+03  0.32710852494E+03  0.37551569949E+03  0.41800000000E+01 0.  1.
         -5    1    3    3    0  502 -0.16393517122E+02  0.98787289200E+02  0.68968528047E+02  0.12166267370E+03  0.41800000000E+01 0.  1.
        -11    1    1    2    0    0  0.95477158416E+02 -0.69880962863E+02  0.39521765003E+03  0.41254845491E+03  0.00000000000E+00 0.  1.
         11    1    1    2    0    0  0.47479946932E+02 -0.16298182451E+03  0.50459479410E+03  0.53238456656E+03  0.00000000000E+00 0. -1.
</event>
<event>
 7    1  0.2719869E-009  0.1033628E+03  0.7561462E-02  0.1273379E+00
         -2   -1    0    0    0  501 -0.00000000000E+00  0.00000000000E+00  0.29499460263E+02  0.29499460263E+02  0.00000000000E+00 0.  1.
          2   -1    0    0  501    0  0.00000000000E+00 -0.00000000000E+00 -0.50140757715E+03  0.50140757715E+03  0.00000000000E+00 0. -1.
         25    2    1    2    0    0 -0.50587816621E+02 -0.12161421680E+02 -0.23227480618E+03  0.26890417127E+03  0.12510331880E+03 0.  0.
          5    1    3    3  502    0 -0.75901614375E+02 -0.12039414205E+01 -0.67137763078E+02  0.10142709781E+03  0.41800000000E+01 0. -1.
         -5    1    3    3    0  502  0.25313797754E+02 -0.10957480259E+02 -0.16513704310E+03  0.16747707346E+03  0.41800000000E+01 0. -1.
        -11    1    1    2    0    0  0.45689638440E+00 -0.34387804855E+02 -0.52539405538E+02  0.62794259382E+02  0.00000000000E+00 0. -1.
         11    1    1    2    0    0  0.50130920236E+02  0.46549226535E+02 -0.18709390518E+03  0.19920860676E+03  0.00000000000E+00 0.  1.
</event>
<event>
 7    1  0.2719869E-009  0.1279037E+03  0.7561462E-02  0.1230600E+00
         -2   -1    0    0    0  501 -0.00000000000E+00  0.00000000000E+00  0.72478801277E+02  0.72478801277E+02  0.00000000000E+00 0. -1.
          2   -1    0    0  501    0  0.00000000000E+00 -0.00000000000E+00 -0.25386034643E+03  0.25386034643E+03  0.00000000000E+00 0.  1.
         25    2    1    2    0    0  0.20994943067E+02  0.77686309407E+02 -0.95108751819E+02  0.17654988457E+03  0.12509291253E+03 0.  0.
          5    1    3    3  502    0  0.57283187553E+02  0.89973168726E+02 -0.85674515372E+02  0.13687267679E+03  0.41800000000E+01 0. -1.
         -5    1    3    3    0  502 -0.36288244486E+02 -0.12286859319E+02 -0.94342364475E+01  0.39677207779E+02  0.41800000000E+01 0. -1.
        -11    1    1    2    0    0 -0.48664619953E+02 -0.36173756100E+02 -0.14441068689E+02  0.62332417974E+02  0.00000000000E+00 0.  1.
         11    1    1    2    0    0  0.27669676886E+02 -0.41512553307E+02 -0.71831724646E+02  0.87456845167E+02  0.00000000000E+00 0. -1.
</event>
<event>
 7    1  0.2719869E-009  0.1014814E+03  0.7561462E-02  0.1277211E+00
         -1   -1    0    0    0  501 -0.00000000000E+00  0.00000000000E+00  0.15079768073E+03  0.15079768073E+03  0.00000000000E+00 0.  1.
          1   -1    0    0  501    0  0.00000000000E+00 -0.00000000000E+00 -0.12313219937E+03  0.12313219937E+03  0.00000000000E+00 0. -1.
         25    2    1    2    0    0 -0.22056799200E+02  0.58180573425E+02 -0.34123893388E+02  0.14381666250E+03  0.12508921136E+03 0.  0.
          5    1    3    3  502    0 -0.86748874280E+01  0.75524014764E+02  0.25393326152E+02  0.80258481739E+02  0.41800000000E+01 0. -1.
         -5    1    3    3    0  502 -0.13381911772E+02 -0.17343441339E+02 -0.59517219540E+02  0.63558180764E+02  0.41800000000E+01 0. -1.
        -11    1    1    2    0    0  0.42423197195E+02  0.48507636454E+00  0.52216403592E+02  0.67279385873E+02  0.00000000000E+00 0.  1.
         11    1    1    2    0    0 -0.20366397995E+02 -0.58665649790E+02  0.95729711548E+01  0.62833831725E+02  0.00000000000E+00 0. -1.
</event>
<event>
 7    1  0.2719869E-009  0.1560377E+03  0.7561462E-02  0.1193244E+00
         -1   -1    0    0    0  501 -0.00000000000E+00  0.00000000000E+00  0.40839932428E+02  0.40839932428E+02  0.00000000000E+00 0.  1.
          1   -1    0    0  501    0  0.00000000000E+00 -0.00000000000E+00 -0.15744264200E+04  0.15744264200E+04  0.00000000000E+00 0. -1.
         25    2    1    2    0    0  0.12562255819E+03  0.71216232932E+02 -0.13473412031E+04  0.13608193229E+04  0.12509249772E+03 0.  0.
          5    1    3    3  502    0  0.12669241599E+03  0.35702842767E+02 -0.68692220135E+03  0.69943208703E+03  0.41800000000E+01 0. -1.
         -5    1    3    3    0  502 -0.10698577989E+01  0.35513390164E+02 -0.66041900177E+03  0.66138723587E+03  0.41800000000E+01 0. -1.
        -11    1    1    2    0    0 -0.95434275402E+02 -0.57792939651E+02 -0.19087065336E+03  0.22108670496E+03  0.00000000000E+00 0. -1.
         11    1    1    2    0    0 -0.30188282791E+02 -0.13423293281E+02  0.46253688771E+01  0.33360324603E+02  0.00000000000E+00 0.  1.
</event>
<event>
 7    1  0.2719869E-009  0.1117577E+03  0.7561462E-02  0.1257349E+00
          2   -1    0    0  501    0  0.00000000000E+00  0.00000000000E+00  0.54946501318E+02  0.54946501318E+02  0.00000000000E+00 0. -1.
         -2   -1    0    0    0  501 -0.00000000000E+00 -0.00000000000E+00 -0.28364565856E+03  0.28364565856E+03  0.00000000000E+00 0.  1.
         25    2    1    2    0    0 -0.29131056800E+02 -0.50296006633E+02 -0.15546493868E+03  0.20784948143E+03  0.12511495920E+03 0.  0.
          5    1    3    3  502    0  0.17788834009E+02 -0.79067468669E+02 -0.10772378214E+03  0.13487028159E+03  0.41800000000E+01 0. -1.
         -5    1    3    3    0  502 -0.46919890809E+02  0.28771462036E+02 -0.47741156542E+02  0.72979199839E+02  0.41800000000E+01 0. -1.
        -11    1    1    2    0    0  0.23153885601E+02  0.66223416926E+02 -0.84885282557E+02  0.11012336066E+03  0.00000000000E+00 0.  1.
         11    1    1    2    0    0  0.59771711995E+01 -0.15927410293E+02  0.11651063994E+02  0.20619317796E+02  0.00000000000E+00 0. -1.
</event>
<event>
 7    1  0.2719869E-009  0.2019789E+03  0.7561462E-02  0.1148080E+00
         -1   -1    0    0    0  501 -0.00000000000E+00  0.00000000000E+00  0.70557916192E+02  0.70557916192E+02  0.00000000000E+00 0.  1.
          1   -1    0    0  501    0  0.00000000000E+00 -0.00000000000E+00 -0.77368190412E+03  0.77368190412E+03  0.00000000000E+00 0. -1.
         25    2    1    2    0    0  0.18680603441E+03  0.26520372250E+01 -0.52950630989E+03  0.57526293100E+03  0.12508788821E+03 0.  0.
          5    1    3    3  502    0  0.13595207465E+03 -0.28176513894E+02 -0.22083807042E+03  0.26089041431E+03  0.41800000000E+01 0. -1.
         -5    1    3    3    0  502  0.50853959761E+02  0.30828551119E+02 -0.30866823948E+03  0.31437251669E+03  0.41800000000E+01 0. -1.
        -11    1    1    2    0    0 -0.33683416435E+02 -0.35387793755E+02 -0.41701196224E+02  0.64232844061E+02  0.00000000000E+00 0. -1.
         11    1    1    2    0    0 -0.15312261797E+03  0.32735756530E+02 -0.13191648181E+03  0.20474404524E+03  0.00000000000E+00 0.  1.
</event>
<event>
 7    1  0.2719869E-009  0.1178514E+03  0.7561462E-02  0.1246684E+00
          2   -1    0    0  501    0  0.00000000000E+00  0.00000000000E+00  0.11882580633E+04  0.11882580633E+04  0.00000000000E+00 0. -1.
         -2   -1    0    0    0  501 -0.00000000000E+00 -0.00000000000E+00 -0.13683019764E+02  0.13683019764E+02  0.00000000000E+00 0.  1.
         25    2    1    2    0    0  0.35035413791E+02 -0.48843148220E+02  0.81860502688E+03  0.83028581246E+03  0.12508879642E+03 0.  0.
          5    1    3    3  502    0  0.44121057639E+02  0.30998400098E+02  0.23398003648E+03  0.24014932522E+03  0.41800000000E+01 0. -1.
         -5    1    3    3    0  502 -0.90856438481E+01 -0.79841548317E+02  0.58462499041E+03  0.59013648724E+03  0.41800000000E+01 0. -1.
        -11    1    1    2    0    0 -0.14080566567E+02  0.69984425131E+02  0.18858736651E+03  0.20164641560E+03  0.00000000000E+00 0.  1.
         11    1    1    2    0    0 -0.20954847225E+02 -0.21141276911E+02  0.16738265018E+03  0.17000885504E+03  0.00000000000E+00 0. -1.
</event>
<event>
 7    1  0.2719869E-009  0.1054847E+03  0.7561462E-02  0.1269168E+00
          2   -1    0    0  501    0  0.00000000000E+00  0.00000000000E+00  0.26663628099E+03  0.26663628099E+03  0.00000000000E+00 0.  1.
         -2   -1    0    0    0  501 -0.00000000000E+00 -0.00000000000E+00 -0.49170026064E+02  0.49170026064E+02  0.00000000000E+00 0. -1.
         25    2    1    2    0    0 -0.20268753100E+02  0.33041129519E+02  0.11760994960E+03  0.17601943723E+03  0.12509277935E+03 0.  0.
          5    1    3    3  502    0 -0.27577706497E+02 -0.44146117581E+02  0.58630810553E+02  0.78514036575E+02  0.41800000000E+01 0. -1.
         -5    1    3    3    0  502  0.73089533978E+01  0.77187247100E+02  0.58979139049E+02  0.97505400659E+02  0.41800000000E+01 0. -1.
        -11    1    1    2    0    0  0.24421608260E+02 -0.54249779537E+02  0.10198648829E+03  0.11807073017E+03  0.00000000000E+00 0.  1.
         11    1    1    2    0    0 -0.41528551609E+01  0.21208650017E+02 -0.21301829699E+01  0.21716139644E+02  0.00000000000E+00 0. -1.
</event>
<event>
 7    1  0.2719869E-009  0.8672758E+02  0.7561462E-02  0.1310976E+00
         -2   -1    0    0    0  501 -0.00000000000E+00  0.00000000000E+00  0.11686944412E+03  0.11686944412E+03  0.00000000000E+00 0.  1.
          2   -1    0    0  501    0  0.00000000000E+00 -0.00000000000E+00 -0.14298845494E+03  0.14298845494E+03  0.00000000000E+00 0. -1.
         25    2    1    2    0    0  0.33865805862E+01 -0.58233791081E+02 -0.53521258215E+02  0.14803417389E+03  0.12508776202E+03 0.  0.
          5    1    3    3  502    0  0.26646950218E+02  0.19427472804E+01  0.31312400092E+02  0.41373578796E+02  0.41800000000E+01 0.  1.
         -5    1    3    3    0  502 -0.23260369632E+02 -0.60176538361E+02 -0.84833658307E+02  0.10666059510E+03  0.41800000000E+01 0.  1.
        -11    1    1    2    0    0  0.23989201402E+02  0.45783586378E+02  0.51740905313E+02  0.73135079464E+02  0.00000000000E+00 0.  1.
         11    1    1    2    0    0 -0.27375781988E+02  0.12450204702E+02 -0.24338657921E+02  0.38688645698E+02  0.00000000000E+00 0. -1.
</event>
<event>
 7    1  0.2719869E-009  0.1665168E+03  0.7561462E-02  0.1181530E+00
          1   -1    0    0  501    0  0.00000000000E+00  0.00000000000E+00  0.11738837894E+04  0.11738837894E+04  0.00000000000E+00 0. -1.
         -1   -1    0    0    0  501 -0.00000000000E+00 -0.00000000000E+00 -0.26265124614E+02  0.26265124614E+02  0.00000000000E+00 0.  1.
         25    2    1    2    0    0  0.30217450886E+02  0.12534174807E+03  0.76193917345E+03  0.78282982978E+03  0.12509032820E+03 0.  0.
          5    1    3    3  502    0  0.65451926570E+02  0.27497745918E+02  0.39787633051E+03  0.40418204748E+03  0.41800000000E+01 0.  1.
         -5    1    3    3    0  502 -0.35234475684E+02  0.97844002156E+02  0.36406284294E+03  0.37864778231E+03  0.41800000000E+01 0.  1.
        -11    1    1    2    0    0 -0.16752404213E+02  0.11510207731E+02  0.72161947792E+02  0.74969824850E+02  0.00000000000E+00 0. -1.
         11    1    1    2    0    0 -0.13465046673E+02 -0.13685195581E+03  0.31351754355E+03  0.34234925939E+03  0.00000000000E+00 0.  1.
</event>
<event>
 7    1  0.2719869E-009  0.1450776E+03  0.7561462E-02  0.1206655E+00
         -2   -1    0    0    0  501 -0.00000000000E+00  0.00000000000E+00  0.80959465432E+02  0.80959465432E+02  0.00000000000E+00 0.  1.
          2   -1    0    0  501    0  0.00000000000E+00 -0.00000000000E+00 -0.32661793404E+03  0.32661793404E+03  0.00000000000E+00 0. -1.
         25    2    1    2    0    0  0.93283504634E+02 -0.81807177662E+02 -0.19431418268E+03  0.26232083919E+03  0.12513989982E+03 0.  0.
          5    1    3    3  502    0  0.10897755821E+02 -0.70286256209E+02 -0.28452437359E+02  0.76719831110E+02  0.41800000000E+01 0.  1.
         -5    1    3    3    0  502  0.82385748813E+02 -0.11520921453E+02 -0.16586174532E+03  0.18560100808E+03  0.41800000000E+01 0.  1.
        -11    1    1    2    0    0 -0.58563372376E+02  0.82155634312E+02 -0.42112961260E+02  0.10932848823E+03  0.00000000000E+00 0.  1.
         11    1    1    2    0    0 -0.34720132258E+02 -0.34845665007E+00 -0.92313246668E+01  0.35928072049E+02  0.00000000000E+00 0. -1.
</event>
<event>
 7    1  0.2719869E-009  0.9460614E+02  0.7561462E-02  0.1292066E+00
         -1   -1    0    0    0  501 -0.00000000000E+00  0.00000000000E+00  0.11929007019E+04  0.11929007019E+04  0.00000000000E+00 0.  1.
          1   -1    0    0  501    0  0.00000000000E+00 -0.00000000000E+00 -0.15355244131E+02  0.15355244131E+02  0.00000000000E+00 0. -1.
         25    2    1    2    0    0  0.27152915432E+02  0.66718152728E+02  0.80491931718E+03  0.81775998710E+03  0.12509075353E+03 0.  0.
          5    1    3    3  502    0  0.87883872084E+00  0.26120247949E+02  0.71572215949E+03  0.71621136663E+03  0.41800000000E+01 0. -1.
         -5    1    3    3    0  502  0.26274076711E+02  0.40597904779E+02  0.89197157693E+02  0.10154862047E+03  0.41800000000E+01 0. -1.
        -11    1    1    2    0    0 -0.88060463849E+01  0.21955031182E+02  0.11532495163E+03  0.11772601376E+03  0.00000000000E+00 0.  1.
         11    1    1    2    0    0 -0.18346869047E+02 -0.88673183910E+02  0.25730118900E+03  0.27276994521E+03  0.00000000000E+00 0. -1.
</event>
<event>
 7    1  0.2719869E-009  0.1145763E+03  0.7561462E-02  0.1252322E+00
         -2   -1    0    0    0  501 -0.00000000000E+00  0.00000000000E+00  0.32708394550E+02  0.32708394550E+02  0.00000000000E+00 0.  1.
          2   -1    0    0  501    0  0.00000000000E+00 -0.00000000000E+00 -0.54778997373E+03  0.54778997373E+03  0.00000000000E+00 0. -1.
         25    2    1    2    0    0  0.40642741096E+02  0.35242003531E+02 -0.40711054529E+03  0.42927916139E+03  0.12509105125E+03 0.  0.
          5    1    3    3  502    0  0.41752898734E+01  0.72633630827E+02 -0.31489205222E+03  0.32321440921E+03  0.41800000000E+01 0. -1.
         -5    1    3    3    0  502  0.36467451222E+02 -0.37391627296E+02 -0.92218493070E+02  0.10606475218E+03  0.41800000000E+01 0. -1.
        -11    1    1    2    0    0 -0.44657773854E+02 -0.62230643339E+02 -0.65733987948E+02  0.10093526097E+03  0.00000000000E+00 0.  1.
         11    1    1    2    0    0  0.40150327587E+01  0.26988639808E+02 -0.42237045942E+02  0.50283945914E+02  0.00000000000E+00 0. -1.
</event>
<event>
 7    1  0.2719869E-009  0.8405718E+02  0.7561462E-02  0.1317917E+00
          2   -1    0    0  501    0  0.00000000000E+00  0.00000000000E+00  0.23609020044E+03  0.23609020044E+03  0.00000000000E+00 0. -1.
         -2   -1    0    0    0  501 -0.00000000000E+00 -0.00000000000E+00 -0.54832116953E+02  0.54832116953E+02  0.00000000000E+00 0.  1.
         25    2    1    2    0    0 -0.27567688779E+02  0.20991323987E+02  0.10426582055E+03  0.16649613171E+03  0.12509591277E+03 0.  0.
          5    1    3    3  502    0 -0.56024145210E+02  0.56107464594E+02  0.87379959316E+02  0.11806558398E+03  0.41800000000E+01 0. -1.
         -5    1    3    3    0  502  0.28456456431E+02 -0.35116140607E+02  0.16885861237E+02  0.48430547730E+02  0.41800000000E+01 0. -1.
        -11    1    1    2    0    0 -0.11979568162E+01 -0.13561173177E+02 -0.19320519198E+02  0.23635206379E+02  0.00000000000E+00 0.  1.
         11    1    1    2    0    0  0.28765645595E+02 -0.74301508098E+01  0.96312782136E+02  0.10079097931E+03  0.00000000000E+00 0. -1.
</event>
<event>
 7    1  0.2719869E-009  0.2408921E+03  0.7561462E-02  0.1119200E+00
         -1   -1    0    0    0  501 -0.00000000000E+00  0.00000000000E+00  0.62578523229E+02  0.62578523229E+02  0.00000000000E+00 0.  1.
          1   -1    0    0  501    0  0.00000000000E+00 -0.00000000000E+00 -0.10378996598E+04  0.10378996598E+04  0.00000000000E+00 0. -1.
         25    2    1    2    0    0  0.19067048151E+03 -0.11894088837E+03 -0.39106760754E+03  0.46806342551E+03  0.12508928487E+03 0.  0.
          5    1    3    3  502    0  0.16813140049E+03 -0.14440819722E+03 -0.35314202139E+03  0.41695162180E+03  0.41800000000E+01 0.  1.
         -5    1    3    3    0  502  0.22539081019E+02  0.25467308851E+02 -0.37925586156E+02  0.51111803711E+02  0.41800000000E+01 0.  1.
        -11    1    1    2    0    0 -0.42147912862E+02  0.15753071660E+02 -0.23335546375E+03  0.23765390442E+03  0.00000000000E+00 0. -1.
         11    1    1    2    0    0 -0.14852256864E+03  0.10318781671E+03 -0.35089806525E+03  0.39476085306E+03  0.00000000000E+00 0.  1.
</event>
<event>
 7    1  0.2719869E-009  0.1332202E+03  0.7561462E-02  0.1222754E+00
         -2   -1    0    0    0  501 -0.00000000000E+00  0.00000000000E+00  0.12071497876E+03  0.12071497876E+03  0.00000000000E+00 0.  1.
          2   -1    0    0  501    0  0.00000000000E+00 -0.00000000000E+00 -0.15905419312E+03  0.15905419312E+03  0.00000000000E+00 0. -1.
         25    2    1    2    0    0 -0.44365559808E+02  0.75805942660E+02 -0.10074448121E+02  0.15317894029E+03  0.12508976538E+03 0.  0.
          5    1    3    3  502    0  0.23735773722E+02  0.78640074365E+02  0.77153744486E+01  0.82611425682E+02  0.41800000000E+01 0.  1.
         -5    1    3    3    0  502 -0.68101333529E+02 -0.28341317055E+01 -0.17789822570E+02  0.70567514609E+02  0.41800000000E+01 0.  1.
        -11    1    1    2    0    0 -0.21653151938E+02 -0.19048911391E+02 -0.27019236101E+02  0.39519098339E+02  0.00000000000E+00 0. -1.
         11    1    1    2    0    0  0.66018711745E+02 -0.56757031268E+02 -0.12455301364E+01  0.87071133243E+02  0.00000000000E+00 0.  1.
</event>
<event>
 7    1  0.2719869E-009  0.2013618E+03  0.7561462E-02  0.1148595E+00
         -2   -1    0    0    0  501 -0.00000000000E+00  0.00000000000E+00  0.14509649945E+03  0.14509649945E+03  0.00000000000E+00 0.  1.
          2   -1    0    0  501    0  0.00000000000E+00 -0.00000000000E+00 -0.42980849677E+03  0.42980849677E+03  0.00000000000E+00 0. -1.
         25    2    1    2    0    0 -0.16078048316E+03 -0.10276157734E+03 -0.28645239539E+03  0.36621070235E+03  0.12507996700E+03 0.  0.
          5    1    3    3  502    0 -0.77226586335E+02 -0.71198766309E+02 -0.24707729414E+03  0.26851046840E+03  0.41800000000E+01 0. -1.
         -5    1    3    3    0  502 -0.83553896823E+02 -0.31562811031E+02 -0.39375101251E+02  0.97700233946E+02  0.41800000000E+01 0. -1.
        -11    1    1    2    0    0  0.69289029338E+02  0.93289851507E+02  0.81413781195E+01  0.11649140749E+03  0.00000000000E+00 0.  1.
         11    1    1    2    0    0  0.91491453820E+02  0.94717258326E+01 -0.64009800410E+01  0.92202886385E+02  0.00000000000E+00 0. -1.
</event>
<event>
 7    1  0.2719869E-009  0.1959140E+03  0.7561462E-02  0.1153233E+00
         -2   -1    0    0    0  501 -0.00000000000E+00  0.00000000000E+00  0.15688548690E+04  0.15688548690E+04  0.00000000000E+00 0.  1.
          2   -1    0    0  501    0  0.00000000000E+00 -0.00000000000E+00 -0.42797243548E+02  0.42797243548E+02  0.00000000000E+00 0. -1.
         25    2    1    2    0    0 -0.18085486808E+03  0.24251269256E+02  0.12489166410E+04  0.12683598386E+04  0.12508915454E+03 0.  0.
          5    1    3    3  502    0 -0.99354658058E+02 -0.38191037034E+02  0.84012025810E+03  0.84684675347E+03  0.41800000000E+01 0.  1.
         -5    1    3    3    0  502 -0.81500210019E+02  0.62442306290E+02  0.40879638292E+03  0.42151308513E+03  0.41800000000E+01 0.  1.
        -11    1    1    2    0    0  0.28008682186E+02 -0.18607096255E+01  0.24922624960E+01  0.28180842615E+02  0.00000000000E+00 0. -1.
         11    1    1    2    0    0  0.15284618589E+03 -0.22390559630E+02  0.27464872199E+03  0.31511143139E+03  0.00000000000E+00 0.  1.
</event>
<event>
 7    1  0.2719869E-009  0.1352636E+03  0.7561462E-02  0.1219848E+00
          1   -1    0    0  501    0  0.00000000000E+00  0.00000000000E+00  0.43304427555E+03  0.43304427555E+03  0.00000000000E+00 0. -1.
         -1   -1    0    0    0  501 -0.00000000000E+00 -0.00000000000E+00 -0.91023003810E+02  0.91023003810E+02  0.00000000000E+00 0.  1.
         25    2    1    2    0    0 -0.60904886768E+01  0.92561381357E+02 -0.25629989510E+01  0.15574668063E+03  0.12508299721E+03 0.  0.
          5    1    3    3  502    0 -0.56203213504E+02  0.15978108535E+02  0.19078060782E+02  0.61608002432E+02  0.41800000000E+01 0.  1.
         -5    1    3    3    0  502  0.50112724827E+02  0.76583272822E+02 -0.21641059733E+02  0.94138678194E+02  0.41800000000E+01 0.  1.
        -11    1    1    2    0    0  0.28928769075E+02 -0.93094351497E+02  0.20643792335E+03  0.22829815627E+03  0.00000000000E+00 0.  1.
         11    1    1    2    0    0 -0.22838280398E+02  0.53297014016E+00  0.13814634734E+03  0.14002244246E+03  0.00000000000E+00 0. -1.
</event>
<event>
 7    1  0.2719869E-009  0.1025857E+03  0.7561462E-02  0.1274951E+00
          1   -1    0    0  501    0  0.00000000000E+00  0.00000000000E+00  0.10292939867E+03  0.10292939867E+03  0.00000000000E+00 0. -1.
         -1   -1    0    0    0  501 -0.00000000000E+00 -0.00000000000E+00 -0.14210747226E+03  0.14210747226E+03  0.00000000000E+00 0.  1.
         25    2    1    2    0    0  0.48672154155E+02  0.29400361807E+02 -0.25384816336E+02  0.13973345091E+03  0.12509072124E+03 0.  0.
          5    1    3    3  502    0  0.11553987082E+02  0.60395561409E+02 -0.55226275931E+02  0.82755860267E+02  0.41800000000E+01 0. -1.
         -5    1    3    3    0  502  0.37118167073E+02 -0.30995199601E+02  0.29841459596E+02  0.56977590647E+02  0.41800000000E+01 0. -1.
        -11    1    1    2    0    0 -0.66152192335E+02 -0.37161244385E+02 -0.28630675711E+02  0.81097387298E+02  0.00000000000E+00 0.  1.
         11    1    1    2    0    0  0.17480038180E+02  0.77608825779E+01  0.14837418464E+02  0.24206032716E+02  0.00000000000E+00 0. -1.
</event>
<event>
 7    1  0.2719869E-009  0.5205756E+02  0.7561462E-02  0.1434549E+00
          1   -1    0    0  501    0  0.00000000000E+00  0.00000000000E+00  0.11548051123E+03  0.11548051123E+03  0.00000000000E+00 0. -1.
         -1   -1    0    0    0  501 -0.00000000000E+00 -0.00000000000E+00 -0.10445203891E+03  0.10445203891E+03  0.00000000000E+00 0.  1.
         25    2    1    2    0    0  0.10367406159E+02  0.18346487180E+02  0.75500482110E+01  0.12708381987E+03  0.12509683186E+03 0.  0.
          5    1    3    3  502    0  0.22993133002E+02 -0.58177615332E+01  0.61743922519E+02  0.66274541738E+02  0.41800000000E+01 0. -1.
         -5    1    3    3    0  502 -0.12625726843E+02  0.24164248713E+02 -0.54193874308E+02  0.60809278130E+02  0.41800000000E+01 0. -1.
        -11    1    1    2    0    0  0.11179273250E+02  0.11237179497E+02 -0.35806087920E+02  0.39157710423E+02  0.00000000000E+00 0.  1.
         11    1    1    2    0    0 -0.21546679409E+02 -0.29583666677E+02  0.39284512022E+02  0.53691019849E+02  0.00000000000E+00 0. -1.
</event>
<event>
 7    1  0.2719869E-009  0.1196660E+03  0.7561462E-02  0.1243649E+00
         -1   -1    0    0    0  501 -0.00000000000E+00  0.00000000000E+00  0.21508399127E+02  0.21508399127E+02  0.00000000000E+00 0.  1.
          1   -1    0    0  501    0  0.00000000000E+00 -0.00000000000E+00 -0.87460894993E+03  0.87460894993E+03  0.00000000000E+00 0. -1.
         25    2    1    2    0    0  0.26410923780E+02 -0.64676925691E+02 -0.31907250312E+03  0.34976479818E+03  0.12509000833E+03 0.  0.
          5    1    3    3  502    0  0.35585439188E+02  0.19845317898E+02 -0.37237267545E+02  0.55355637643E+02  0.41800000000E+01 0. -1.
         -5    1    3    3    0  502 -0.91745154078E+01 -0.84522243589E+02 -0.28183523558E+03  0.29440916054E+03  0.41800000000E+01 0. -1.
        -11    1    1    2    0    0 -0.58079040924E+02  0.55372112261E+02 -0.42206875571E+03  0.42962923592E+03  0.00000000000E+00 0. -1.
         11    1    1    2    0    0  0.31668117144E+02  0.93048134291E+01 -0.11195929198E+03  0.11672331497E+03  0.00000000000E+00 0.  1.
</event>
<event>
 7    1  0.3386905E-009  0.1100219E+03  0.7561462E-02  0.1260529E+00
         -2   -1    0    0    0  501 -0.00000000000E+00  0.00000000000E+00  0.41240574609E+02  0.41240574609E+02  0.00000000000E+00 0.  1.
          2   -1    0    0  501    0  0.00000000000E+00 -0.00000000000E+00 -0.46689196992E+03  0.46689196992E+03  0.00000000000E+00 0. -1.
         25    2    1    2    0    0 -0.34230040014E+02 -0.73554725023E+02 -0.17963455424E+03  0.23344366926E+03  0.12508149514E+03 0.  0.
          5    1    3    3  502    0 -0.65597030670E+01  0.30331790590E+02 -0.10571797534E+02  0.33049697847E+02  0.41800000000E+01 0.  1.
         -5    1    3    3    0  502 -0.27670336947E+02 -0.10388651561E+03 -0.16906275670E+03  0.20039397141E+03  0.41800000000E+01 0.  1.
        -11    1    1    2    0    0  0.17270172099E+02  0.35497816987E+02 -0.18873263330E+02  0.43755615913E+02  0.00000000000E+00 0.  1.
         11    1    1    2    0    0  0.16959867915E+02  0.38056908035E+02 -0.22714357775E+03  0.23093325936E+03  0.00000000000E+00 0. -1.
</event>
<event>
 7    1  0.2719869E-009  0.1027874E+03  0.7561462E-02  0.1274541E+00
         -2   -1    0    0    0  501 -0.00000000000E+00  0.00000000000E+00  0.17918872815E+02  0.17918872815E+02  0.00000000000E+00 0.  1.
          2   -1    0    0  501    0  0.00000000000E+00 -0.00000000000E+00 -0.69144715118E+03  0.69144715118E+03  0.00000000000E+00 0. -1.
         25    2    1    2    0    0  0.21558210562E+02  0.15428156238E+02 -0.35796307192E+03  0.38011515338E+03  0.12508870661E+03 0.  0.
          5    1    3    3  502    0 -0.40381315780E+02 -0.14584556865E+02 -0.57736412191E+02  0.72071670271E+02  0.41800000000E+01 0. -1.
         -5    1    3    3    0  502  0.61939526342E+02  0.30012713102E+02 -0.30022665973E+03  0.30804348310E+03  0.41800000000E+01 0. -1.
        -11    1    1    2    0    0 -0.28536219180E+01 -0.52173093816E+02 -0.16008869875E+03  0.16840001883E+03  0.00000000000E+00 0.  1.
         11    1    1    2    0    0 -0.18704588644E+02  0.36744937579E+02 -0.15547650770E+03  0.16085085179E+03  0.00000000000E+00 0. -1.
</event>
<event>
 7    1  0.2719869E-009  0.9202521E+02  0.7561462E-02  0.1298020E+00
         -2   -1    0    0    0  501 -0.00000000000E+00  0.00000000000E+00  0.10460369366E+03  0.10460369366E+03  0.00000000000E+00 0.  1.
          2   -1    0    0  501    0  0.00000000000E+00 -0.00000000000E+00 -0.12366663119E+03  0.12366663119E+03  0.00000000000E+00 0. -1.
         25    2    1    2    0    0 -0.34126451999E+02 -0.15604724030E+02 -0.63336850981E+01  0.13074538029E+03  0.12508443853E+03 0.  0.
          5    1    3    3  502    0 -0.10005433876E+02 -0.58815580381E+02 -0.38910807327E+02  0.71350574836E+02  0.41800000000E+01 0.  1.
         -5    1    3    3    0  502 -0.24121018123E+02  0.43210856351E+02  0.32577122229E+02  0.59394805451E+02  0.41800000000E+01 0.  1.
        -11    1    1    2    0    0  0.31031534965E+02 -0.21240704329E+02  0.24637141579E+02  0.44956784003E+02  0.00000000000E+00 0.  1.
         11    1    1    2    0    0  0.30949170342E+01  0.36845428360E+02 -0.37366394013E+02  0.52568160554E+02  0.00000000000E+00 0. -1.
</event>
<event>
 7    1  0.2719869E-009  0.1609032E+03  0.7561462E-02  0.1187681E+00
          1   -1    0    0  501    0  0.00000000000E+00  0.00000000000E+00  0.12656557946E+03  0.12656557946E+03  0.00000000000E+00 0. -1.
         -1   -1    0    0    0  501 -0.00000000000E+00 -0.00000000000E+00 -0.40275597740E+03  0.40275597740E+03  0.00000000000E+00 0.  1.
         25    2    1    2    0    0  0.35479049840E+02  0.90366216647E+02 -0.18331123092E+03  0.24222944569E+03  0.12508909181E+03 0.  0.
          5    1    3    3  502    0 -0.21169832830E+02  0.82572238753E+02 -0.54574879604E+02  0.10130264714E+03  0.41800000000E+01 0. -1.
         -5    1    3    3    0  502  0.56648882669E+02  0.77939778943E+01 -0.12873635132E+03  0.14092679855E+03  0.41800000000E+01 0. -1.
        -11    1    1    2    0    0 -0.94155544519E+02 -0.68792936562E+02 -0.15829373820E+03  0.19660783870E+03  0.00000000000E+00 0.  1.
         11    1    1    2    0    0  0.58676494680E+02 -0.21573280085E+02  0.65414571177E+02  0.90484272467E+02  0.00000000000E+00 0. -1.
</event>
<event>
 7    1  0.2719869E-009  0.1375040E+03  0.7561462E-02  0.1216728E+00
          1   -1    0    0  501    0  0.00000000000E+00  0.00000000000E+00  0.40756797319E+03  0.40756797319E+03  0.00000000000E+00 0. -1.
         -1   -1    0    0    0  501 -0.00000000000E+00 -0.00000000000E+00 -0.81188396178E+02  0.81188396178E+02  0.00000000000E+00 0.  1.
         25    2    1    2    0    0 -0.10881183047E+03 -0.20039109445E+02  0.45458597033E+02  0.17307660023E+03  0.12508974836E+03 0.  0.
          5    1    3    3  502    0 -0.61712796278E+02  0.48228993332E+02  0.62681869186E-01  0.78434567324E+02  0.41800000000E+01 0. -1.
         -5    1    3    3    0  502 -0.47099034192E+02 -0.68268102777E+02  0.45395915164E+02  0.94642032903E+02  0.41800000000E+01 0. -1.
        -11    1    1    2    0    0  0.73622008090E+02  0.25510877260E+02  0.26580871372E+03  0.27699328011E+03  0.00000000000E+00 0. -1.
         11    1    1    2    0    0  0.35189822380E+02 -0.54717678150E+01  0.15112266252E+02  0.38686489029E+02  0.00000000000E+00 0.  1.
</event>
<event>
 7    1  0.4832797E-009  0.1346352E+03  0.7561462E-02  0.1220736E+00
          1   -1    0    0  501    0  0.00000000000E+00  0.00000000000E+00  0.79539340517E+03  0.79539340517E+03  0.00000000000E+00 0. -1.
         -1   -1    0    0    0  501 -0.00000000000E+00 -0.00000000000E+00 -0.28713499269E+02  0.28713499269E+02  0.00000000000E+00 0.  1.
         25    2    1    2    0    0 -0.76078942726E+02  0.54139674569E+02  0.54347625374E+03  0.56544983721E+03  0.12509184676E+03 0.  0.
          5    1    3    3  502    0 -0.39810501793E+02 -0.38768847633E+02  0.17250486438E+03  0.18128237707E+03  0.41800000000E+01 0. -1.
         -5    1    3    3    0  502 -0.36268440932E+02  0.92908522202E+02  0.37097138936E+03  0.38416746014E+03  0.41800000000E+01 0. -1.
        -11    1    1    2    0    0  0.48439584524E+02 -0.67451142854E+02  0.92091037665E+02  0.12400326302E+03  0.00000000000E+00 0.  1.
         11    1    1    2    0    0  0.27639358202E+02  0.13311468285E+02  0.13111261449E+03  0.13465380421E+03  0.00000000000E+00 0. -1.
</event>
<event>
 7    1  0.2719869E-009  0.7065441E+02  0.7561462E-02  0.1357882E+00
          1   -1    0    0  501    0  0.00000000000E+00  0.00000000000E+00  0.21443743113E+03  0.21443743113E+03  0.00000000000E+00 0. -1.
         -1   -1    0    0    0  501 -0.00000000000E+00 -0.00000000000E+00 -0.63902547540E+02  0.63902547540E+02  0.00000000000E+00 0.  1.
         25    2    1    2    0    0 -0.21724300858E+02  0.34823310143E+02  0.76867251345E+02  0.15244855241E+03  0.12508948247E+03 0.  0.
          5    1    3    3  502    0  0.30724229707E+02  0.67251008215E+01  0.86402329427E+02  0.92043686381E+02  0.41800000000E+01 0.  1.
         -5    1    3    3    0  502 -0.52448530565E+02  0.28098209322E+02 -0.95350780822E+01  0.60404866026E+02  0.41800000000E+01 0.  1.
        -11    1    1    2    0    0  0.15321274636E+02 -0.83188001568E+00  0.87355125345E+02  0.88692454047E+02  0.00000000000E+00 0. -1.
         11    1    1    2    0    0  0.64030262216E+01 -0.33991430128E+02 -0.13687493097E+02  0.37198972220E+02  0.00000000000E+00 0.  1.
</event>
<event>
 7    1  0.2719869E-009  0.8829308E+02  0.7561462E-02  0.1307039E+00
          3   -1    0    0  501    0  0.00000000000E+00  0.00000000000E+00  0.57823794921E+02  0.57823794921E+02  0.00000000000E+00 0. -1.
         -3   -1    0    0    0  501 -0.00000000000E+00 -0.00000000000E+00 -0.23240609195E+03  0.23240609195E+03  0.00000000000E+00 0.  1.
         25    2    1    2    0    0  0.10368588421E+02  0.36142462503E+02 -0.79759548548E+02  0.15304706749E+03  0.12509210231E+03 0.  0.
          5    1    3    3  502    0 -0.43136732947E+02 -0.10678883902E+02 -0.67281012811E+02  0.80740469256E+02  0.41800000000E+01 0. -1.
         -5    1    3    3    0  502  0.53505321368E+02  0.46821346405E+02 -0.12478535737E+02  0.72306598233E+02  0.41800000000E+01 0. -1.
        -11    1    1    2    0    0 -0.15054351444E+02 -0.46760120731E+02 -0.10858525020E+03  0.11918011139E+03  0.00000000000E+00 0.  1.
         11    1    1    2    0    0  0.46857630237E+01  0.10617658227E+02  0.13762501725E+02  0.18002707993E+02  0.00000000000E+00 0. -1.
</event>
<event>
 7    1  0.2719869E-009  0.1136354E+03  0.7561462E-02  0.1253982E+00
         -2   -1    0    0    0  501 -0.00000000000E+00  0.00000000000E+00  0.31575634772E+02  0.31575634772E+02  0.00000000000E+00 0. -1.
          2   -1    0    0  501    0  0.00000000000E+00 -0.00000000000E+00 -0.54821761421E+03  0.54821761421E+03  0.00000000000E+00 0.  1.
         25    2    1    2    0    0 -0.81128541626E+00 -0.67945484526E+02 -0.35575238178E+03  0.38317703993E+03  0.12509052614E+03 0.  0.
          5    1    3    3  502    0  0.37926248792E+02 -0.56994632720E-01 -0.24264285434E+03  0.24562457279E+03  0.41800000000E+01 0.  1.
         -5    1    3    3    0  502 -0.38737534208E+02 -0.67888489893E+02 -0.11310952744E+03  0.13755246713E+03  0.41800000000E+01 0.  1.
        -11    1    1    2    0    0  0.39141859497E+02  0.60088465812E+02 -0.12157200718E+03  0.14114695115E+03  0.00000000000E+00 0. -1.
         11    1    1    2    0    0 -0.38330574081E+02  0.78570187137E+01 -0.39317590478E+02  0.55469257913E+02  0.00000000000E+00 0.  1.
</event>
<event>
 7    1  0.2719869E-009  0.1055806E+03  0.7561462E-02  0.1268980E+00
          2   -1    0    0  501    0  0.00000000000E+00  0.00000000000E+00  0.13661747009E+03  0.13661747009E+03  0.00000000000E+00 0. -1.
         -2   -1    0    0    0  501 -0.00000000000E+00 -0.00000000000E+00 -0.11355866522E+03  0.11355866522E+03  0.00000000000E+00 0.  1.
         25    2    1    2    0    0  0.20868818622E+02 -0.52292347089E+02 -0.66581793957E+01  0.13733206053E+03  0.12508303779E+03 0.  0.
          5    1    3    3  502    0 -0.49106317534E+02 -0.22839507106E+01  0.80083897727E+01  0.49982532542E+02  0.41800000000E+01 0.  1.
         -5    1    3    3    0  502  0.69975136156E+02 -0.50008396379E+02 -0.14666569168E+02  0.87349527988E+02  0.41800000000E+01 0.  1.
        -11    1    1    2    0    0 -0.19865859656E+02  0.62436835132E+02 -0.14802548453E+02  0.67172361890E+02  0.00000000000E+00 0.  1.
         11    1    1    2    0    0 -0.10029589667E+01 -0.10144488042E+02  0.44519532718E+02  0.45671712884E+02  0.00000000000E+00 0. -1.
</event>
<event>
 6    1  0.2719869E-009  0.1554928E+03  0.7561462E-02  0.1193881E+00
         -2   -1    0    0    0  501 -0.00000000000E+00  0.00000000000E+00  0.21628920507E+03  0.21628920507E+03  0.00000000000E+00 0.  1.
          2   -1    0    0  501    0  0.00000000000E+00 -0.00000000000E+00 -0.11430497459E+03  0.11430497459E+03  0.00000000000E+00 0. -1.
          5    1    1    2  502    0 -0.10780199232E+03 -0.65735537881E+02  0.28649657073E+02  0.12954036336E+03  0.41800000000E+01 0. -1.
         -5    1    1    2    0  502  0.36157337568E+02 -0.17743684452E+02  0.32872633124E+01  0.40625975657E+02  0.41800000000E+01 0. -1.
        -11    1    1    2    0    0  0.58013859786E+02 -0.15607299652E+01  0.24427132887E+02  0.62966091084E+02  0.00000000000E+00 0.  1.
         11    1    1    2    0    0  0.13630794969E+02  0.85039952298E+02  0.45620177206E+02  0.97461749557E+02  0.00000000000E+00 0. -1.
</event>
<event>
 7    1  0.2719869E-009  0.1245833E+03  0.7561462E-02  0.1235722E+00
         -1   -1    0    0    0  501 -0.00000000000E+00  0.00000000000E+00  0.38627631074E+03  0.38627631074E+03  0.00000000000E+00 0.  1.
          1   -1    0    0  501    0  0.00000000000E+00 -0.00000000000E+00 -0.42653449466E+02  0.42653449466E+02  0.00000000000E+00 0. -1.
         25    2    1    2    0    0  0.39552508130E+02 -0.52448143007E+02  0.23220232187E+03  0.27181263461E+03  0.12509588901E+03 0.  0.
          5    1    3    3  502    0 -0.28991367934E+02 -0.62651062476E+02  0.14237535786E+03  0.15828414314E+03  0.41800000000E+01 0. -1.
         -5    1    3    3    0  502  0.68543876063E+02  0.10202919470E+02  0.89826964010E+02  0.11352849147E+03  0.41800000000E+01 0. -1.
        -11    1    1    2    0    0 -0.34545353380E+02 -0.18683279300E+02  0.35176814430E+02  0.52724326823E+02  0.00000000000E+00 0.  1.
         11    1    1    2    0    0 -0.50071547502E+01  0.71131422307E+02  0.76243724972E+02  0.10439279877E+03  0.00000000000E+00 0. -1.
</event>
<event>
 7    1  0.2719869E-009  0.1031058E+03  0.7561462E-02  0.1273897E+00
         -1   -1    0    0    0  501 -0.00000000000E+00  0.00000000000E+00  0.10951297053E+03  0.10951297053E+03  0.00000000000E+00 0.  1.
          1   -1    0    0  501    0  0.00000000000E+00 -0.00000000000E+00 -0.14347436941E+03  0.14347436941E+03  0.00000000000E+00 0. -1.
         25    2    1    2    0    0  0.48352793068E+02 -0.20262154320E+02 -0.52026879401E+02  0.14526906000E+03  0.12509099136E+03 0.  0.
          5    1    3    3  502    0  0.31881335411E+02 -0.58266591517E+02 -0.72891975749E+02  0.98702217620E+02  0.41800000000E+01 0. -1.
         -5    1    3    3    0  502  0.16471457657E+02  0.38004437197E+02  0.20865096349E+02  0.46566842384E+02  0.41800000000E+01 0. -1.
        -11    1    1    2    0    0 -0.33276963441E+02  0.52662318821E+02 -0.89302205170E+01  0.62931907312E+02  0.00000000000E+00 0.  1.
         11    1    1    2    0    0 -0.15075829627E+02 -0.32400164501E+02  0.26995701038E+02  0.44786372628E+02  0.00000000000E+00 0. -1.
</event>
<event>
 7    1  0.2719869E-009  0.1611172E+03  0.7561462E-02  0.1187441E+00
          1   -1    0    0  501    0  0.00000000000E+00  0.00000000000E+00  0.18757538885E+03  0.18757538885E+03  0.00000000000E+00 0. -1.
         -1   -1    0    0    0  501 -0.00000000000E+00 -0.00000000000E+00 -0.17329179283E+03  0.17329179283E+03  0.00000000000E+00 0.  1.
         25    2    1    2    0    0  0.10248470576E+03  0.84422147284E+02 -0.45178847275E+02  0.18793224344E+03  0.12508871259E+03 0.  0.
          5    1    3    3  502    0  0.11931163068E+03  0.27004906155E+02 -0.28423552896E+02  0.12565787254E+03  0.41800000000E+01 0. -1.
         -5    1    3    3    0  502 -0.16826924921E+02  0.57417241129E+02 -0.16755294379E+02  0.62274370899E+02  0.41800000000E+01 0. -1.
        -11    1    1    2    0    0 -0.27412342660E+02 -0.72362194219E+00 -0.21114866732E+02  0.34609214899E+02  0.00000000000E+00 0.  1.
         11    1    1    2    0    0 -0.75072363103E+02 -0.83698525342E+02  0.80577310027E+02  0.13832572334E+03  0.00000000000E+00 0. -1.
</event>
<event>
 7    1  0.2719869E-009  0.8384569E+02  0.7561462E-02  0.1318479E+00
         -2   -1    0    0    0  501 -0.00000000000E+00  0.00000000000E+00  0.25538829332E+02  0.25538829332E+02  0.00000000000E+00 0.  1.
          2   -1    0    0  501    0  0.00000000000E+00 -0.00000000000E+00 -0.58042561681E+03  0.58042561681E+03  0.00000000000E+00 0. -1.
         25    2    1    2    0    0  0.37783708428E+02 -0.68544677183E+01 -0.20627064895E+03  0.24427357621E+03  0.12508959614E+03 0.  0.
          5    1    3    3  502    0  0.40459169312E+02  0.23995887908E+02 -0.20769285470E+03  0.21299422835E+03  0.41800000000E+01 0.  1.
         -5    1    3    3    0  502 -0.26754608838E+01 -0.30850355626E+02  0.14222057427E+01  0.31279347858E+02  0.41800000000E+01 0.  1.
        -11    1    1    2    0    0  0.19602224522E+02 -0.18064346409E+02 -0.50743170939E+02  0.57318733538E+02  0.00000000000E+00 0.  1.
         11    1    1    2    0    0 -0.57385932950E+02  0.24918814127E+02 -0.29787296759E+03  0.30437213640E+03  0.00000000000E+00 0. -1.
</event>
<event>
 7    1  0.2719869E-009  0.8337902E+02  0.7561462E-02  0.1319727E+00
          1   -1    0    0  501    0  0.00000000000E+00  0.00000000000E+00  0.50886236509E+03  0.50886236509E+03  0.00000000000E+00 0. -1.
         -1   -1    0    0    0  501 -0.00000000000E+00 -0.00000000000E+00 -0.25211922748E+02  0.25211922748E+02  0.00000000000E+00 0.  1.
         25    2    1    2    0    0  0.92708849811E+01  0.34156616814E+02  0.26499207243E+03  0.29516202216E+03  0.12508875688E+03 0.  0.
          5    1    3    3  502    0 -0.30693322095E+02 -0.19634288357E+02  0.21347779352E+02  0.42435661699E+02  0.41800000000E+01 0.  1.
         -5    1    3    3    0  502  0.39964207077E+02  0.53790905171E+02  0.24364429307E+03  0.25272636047E+03  0.41800000000E+01 0.  1.
        -11    1    1    2    0    0 -0.12659489352E+02  0.11533318048E+02  0.17459891658E+01  0.17214196874E+02  0.00000000000E+00 0.  1.
         11    1    1    2    0    0  0.33886043709E+01 -0.45689934862E+02  0.21691238075E+03  0.22169806880E+03  0.00000000000E+00 0. -1.
</event>
<event>
 7    1  0.2719869E-009  0.2025663E+03  0.7561462E-02  0.1147592E+00
          2   -1    0    0  501    0  0.00000000000E+00  0.00000000000E+00  0.81144400435E+02  0.81144400435E+02  0.00000000000E+00 0.  1.
         -2   -1    0    0    0  501 -0.00000000000E+00 -0.00000000000E+00 -0.58855422669E+03  0.58855422669E+03  0.00000000000E+00 0. -1.
         25    2    1    2    0    0 -0.15910630127E+03  0.97871421245E+02 -0.20613909103E+03  0.30501543660E+03  0.12508981377E+03 0.  0.
          5    1    3    3  502    0 -0.93401865472E+02  0.95687906682E+02 -0.63891490290E+02  0.14825545147E+03  0.41800000000E+01 0.  1.
         -5    1    3    3    0  502 -0.65704435802E+02  0.21835145637E+01 -0.14224760075E+03  0.15675998513E+03  0.41800000000E+01 0.  1.
        -11    1    1    2    0    0  0.18591924438E+02 -0.55776015730E+02 -0.88593375896E+02  0.10632690082E+03  0.00000000000E+00 0. -1.
         11    1    1    2    0    0  0.14051437684E+03 -0.42095405515E+02 -0.21267735933E+03  0.25835628971E+03  0.00000000000E+00 0.  1.
</event>
<event>
 7    1  0.2719869E-009  0.1192290E+03  0.7561462E-02  0.1244374E+00
         -2   -1    0    0    0  501 -0.00000000000E+00  0.00000000000E+00  0.34547171432E+02  0.34547171432E+02  0.00000000000E+00 0.  1.
          2   -1    0    0  501    0  0.00000000000E+00 -0.00000000000E+00 -0.74865569133E+03  0.74865569133E+03  0.00000000000E+00 0. -1.
         25    2    1    2    0    0 -0.63408605240E+02 -0.47961659905E+02 -0.60165815551E+03  0.61964727432E+03  0.12509690822E+03 0.  0.
          5    1    3    3  502    0 -0.59764813510E+02  0.29160740173E+02 -0.20610787537E+03  0.21661050388E+03  0.41800000000E+01 0. -1.
         -5    1    3    3    0  502 -0.36437917302E+01 -0.77122400078E+02 -0.39555028014E+03  0.40303677044E+03  0.41800000000E+01 0. -1.
        -11    1    1    2    0    0 -0.52362702995E+01  0.19506235105E+02  0.82484694816E+01  0.21816255027E+02  0.00000000000E+00 0.  1.
         11    1    1    2    0    0  0.68644875539E+02  0.28455424800E+02 -0.12069883388E+03  0.14173933342E+03  0.00000000000E+00 0. -1.
</event>
<event>
 7    1  0.2719869E-009  0.1126938E+03  0.7561462E-02  0.1255661E+00
         -1   -1    0    0    0  501 -0.00000000000E+00  0.00000000000E+00  0.55983300233E+02  0.55983300233E+02  0.00000000000E+00 0.  1.
          1   -1    0    0  501    0  0.00000000000E+00 -0.00000000000E+00 -0.38121794474E+03  0.38121794474E+03  0.00000000000E+00 0. -1.
         25    2    1    2    0    0  0.16166725193E+00  0.78721208967E+02 -0.26051986747E+03  0.29952401955E+03  0.12508789735E+03 0.  0.
          5    1    3    3  502    0  0.31343732435E+02 -0.19850726893E+02 -0.11543252169E+03  0.12132032140E+03  0.41800000000E+01 0. -1.
         -5    1    3    3    0  502 -0.31182065183E+02  0.98571935860E+02 -0.14508734578E+03  0.17820369815E+03  0.41800000000E+01 0. -1.
        -11    1    1    2    0    0 -0.14267119965E+02 -0.22698382868E+02  0.21176689582E+02  0.34164593932E+02  0.00000000000E+00 0.  1.
         11    1    1    2    0    0  0.14105452713E+02 -0.56022826100E+02 -0.85891466624E+02  0.10351263150E+03  0.00000000000E+00 0. -1.
</event>
<event>
 7    1  0.2719869E-009  0.1064117E+03  0.7561462E-02  0.1267363E+00
          2   -1    0    0  501    0  0.00000000000E+00  0.00000000000E+00  0.68287439779E+02  0.68287439779E+02  0.00000000000E+00 0. -1.
         -2   -1    0    0    0  501 -0.00000000000E+00 -0.00000000000E+00 -0.19379428902E+03  0.19379428902E+03  0.00000000000E+00 0.  1.
         25    2    1    2    0    0  0.56454507002E+01 -0.20690219480E+02 -0.42987533629E+02  0.13399524944E+03  0.12508733961E+03 0.  0.
          5    1    3    3  502    0  0.35399021609E+02 -0.57613243627E+02  0.29891596708E+01  0.67814335120E+02  0.41800000000E+01 0.  1.
         -5    1    3    3    0  502 -0.29753570909E+02  0.36923024147E+02 -0.45976693299E+02  0.66180914324E+02  0.41800000000E+01 0.  1.
        -11    1    1    2    0    0 -0.47919847883E+02 -0.47144542460E+01 -0.34366093246E+02  0.59157131987E+02  0.00000000000E+00 0.  1.
         11    1    1    2    0    0  0.42274397183E+02  0.25404673727E+02 -0.48153222370E+02  0.68929347371E+02  0.00000000000E+00 0. -1.
</event>
<event>
 7    1  0.2719869E-009  0.1238954E+03  0.7561462E-02  0.1236806E+00
         -4   -1    0    0    0  501 -0.00000000000E+00  0.00000000000E+00  0.12283568521E+03  0.12283568521E+03  0.00000000000E+00 0.  1.
          4   -1    0    0  501    0  0.00000000000E+00 -0.00000000000E+00 -0.18807403654E+03  0.18807403654E+03  0.00000000000E+00 0. -1.
         25    2    1    2    0    0  0.32937709690E+02  0.81801976909E+02 -0.93447111220E+02  0.17932241739E+03  0.12509080956E+03 0.  0.
          5    1    3    3  502    0  0.69569100696E+02  0.99009110714E+01 -0.29708955250E+02  0.76406689718E+02  0.41800000000E+01 0. -1.
         -5    1    3    3    0  502 -0.36631391006E+02  0.71901065837E+02 -0.63738155970E+02  0.10291572767E+03  0.41800000000E+01 0. -1.
        -11    1    1    2    0    0 -0.60110489556E+01 -0.64073405302E+02 -0.25273610126E+02  0.69139636573E+02  0.00000000000E+00 0. -1.
         11    1    1    2    0    0 -0.26926660734E+02 -0.17728571606E+02  0.53482370013E+02  0.62447667784E+02  0.00000000000E+00 0.  1.
</event>
<event>
 7    1  0.2719869E-009  0.7939559E+02  0.7561462E-02  0.1330775E+00
         -1   -1    0    0    0  501 -0.00000000000E+00  0.00000000000E+00  0.39148800353E+02  0.39148800353E+02  0.00000000000E+00 0.  1.
          1   -1    0    0  501    0  0.00000000000E+00 -0.00000000000E+00 -0.37009174937E+03  0.37009174937E+03  0.00000000000E+00 0. -1.
         25    2    1    2    0    0  0.13672580633E+02  0.47300569319E+02 -0.16290897040E+03  0.21121245346E+03  0.12508830697E+03 0.  0.
          5    1    3    3  502    0  0.54449426762E+01  0.47687294846E+02 -0.13738654142E+00  0.48179007519E+02  0.41800000000E+01 0. -1.
         -5    1    3    3    0  502  0.82276379570E+01 -0.38672552640E+00 -0.16277158386E+03  0.16303344594E+03  0.41800000000E+01 0. -1.
        -11    1    1    2    0    0  0.35498243207E+02 -0.36731970970E+02 -0.59580775972E+02  0.78480773617E+02  0.00000000000E+00 0.  1.
         11    1    1    2    0    0 -0.49170823840E+02 -0.10568598350E+02 -0.10845320265E+03  0.11954732265E+03  0.00000000000E+00 0. -1.
</event>
<event>
 7    1  0.2719869E-009  0.1683803E+03  0.7561462E-02  0.1179548E+00
         -2   -1    0    0    0  501 -0.00000000000E+00  0.00000000000E+00  0.37543748513E+02  0.37543748513E+02  0.00000000000E+00 0.  1.
          2   -1    0    0  501    0  0.00000000000E+00 -0.00000000000E+00 -0.82618139125E+03  0.82618139125E+03  0.00000000000E+00 0. -1.
         25    2    1    2    0    0 -0.13431538701E+02 -0.13738067215E+03 -0.49625445618E+03  0.53006581004E+03  0.12508965739E+03 0.  0.
          5    1    3    3  502    0  0.86283500812E+01 -0.15346794863E+03 -0.36732644179E+03  0.39821231387E+03  0.41800000000E+01 0.  1.
         -5    1    3    3    0  502 -0.22059888782E+02  0.16087276481E+02 -0.12892801439E+03  0.13185349617E+03  0.41800000000E+01 0.  1.
        -11    1    1    2    0    0  0.24075068441E+02  0.77298289584E+01 -0.86516266042E+02  0.90135583795E+02  0.00000000000E+00 0. -1.
         11    1    1    2    0    0 -0.10643529740E+02  0.12965084319E+03 -0.20586692052E+03  0.24352374593E+03  0.00000000000E+00 0.  1.
</event>
<event>
 7    1  0.2719869E-009  0.1475923E+03  0.7561462E-02  0.1203463E+00
          2   -1    0    0  501    0  0.00000000000E+00  0.00000000000E+00  0.51486817241E+03  0.51486817241E+03  0.00000000000E+00 0. -1.
         -2   -1    0    0    0  501 -0.00000000000E+00 -0.00000000000E+00 -0.51111785210E+02  0.51111785210E+02  0.00000000000E+00 0.  1.
         25    2    1    2    0    0  0.95207259744E+02  0.71763330577E+02  0.23865185482E+03  0.29464688727E+03  0.12509069689E+03 0.  0.
          5    1    3    3  502    0 -0.30006249527E+02  0.24019242129E+02  0.57013118343E+02  0.68885898893E+02  0.41800000000E+01 0. -1.
         -5    1    3    3    0  502  0.12521350927E+03  0.47744088448E+02  0.18163873647E+03  0.22576098838E+03  0.41800000000E+01 0. -1.
        -11    1    1    2    0    0 -0.30002638695E+02 -0.39774520596E+02  0.17782207143E+03  0.18466959659E+03  0.00000000000E+00 0. -1.
         11    1    1    2    0    0 -0.65204621049E+02 -0.31988809981E+02  0.47282460953E+02  0.86663473758E+02  0.00000000000E+00 0.  1.
</event>
<event>
 7    1  0.2719869E-009  0.1204357E+03  0.7561462E-02  0.1242380E+00
         -1   -1    0    0    0  501 -0.00000000000E+00  0.00000000000E+00  0.62807714001E+02  0.62807714001E+02  0.00000000000E+00 0.  1.
          1   -1    0    0  501    0  0.00000000000E+00 -0.00000000000E+00 -0.12135182039E+04  0.12135182039E+04  0.00000000000E+00 0. -1.
         25    2    1    2    0    0 -0.33826524029E+02  0.59048457888E+02 -0.11548492523E+04  0.11635956554E+04  0.12508836736E+03 0.  0.
          5    1    3    3  502    0 -0.74911746145E+02  0.66104172903E+02 -0.76724054093E+03  0.77372931405E+03  0.41800000000E+01 0.  1.
         -5    1    3    3    0  502  0.41085222116E+02 -0.70557150149E+01 -0.38760871137E+03  0.38986634135E+03  0.41800000000E+01 0.  1.
        -11    1    1    2    0    0  0.20523709444E+02 -0.75260885926E+02 -0.20220452718E+02  0.80587159696E+02  0.00000000000E+00 0. -1.
         11    1    1    2    0    0  0.13302814586E+02  0.16212428039E+02  0.24359215094E+02  0.32143102819E+02  0.00000000000E+00 0.  1.
</event>
<event>
 7    1  0.2719869E-009  0.3326251E+03  0.7561462E-02  0.1069981E+00
         -2   -1    0    0    0  501 -0.00000000000E+00  0.00000000000E+00  0.11998241749E+03  0.11998241749E+03  0.00000000000E+00 0.  1.
          2   -1    0    0  501    0  0.00000000000E+00 -0.00000000000E+00 -0.10125916508E+04  0.10125916508E+04  0.00000000000E+00 0. -1.
         25    2    1    2    0    0  0.19997845107E+03 -0.25362398337E+03 -0.57244302742E+03  0.66907029621E+03  0.12509011068E+03 0.  0.
          5    1    3    3  502    0  0.17173154866E+03 -0.25576156231E+03 -0.55701404410E+03  0.63654365073E+03  0.41800000000E+01 0. -1.
         -5    1    3    3    0  502  0.28246902418E+02  0.21375789361E+01 -0.15428983321E+02  0.32526645481E+02  0.41800000000E+01 0. -1.
        -11    1    1    2    0    0 -0.84232228741E+02  0.15519788224E+03 -0.21738600739E+03  0.28006807604E+03  0.00000000000E+00 0.  1.
         11    1    1    2    0    0 -0.11574622233E+03  0.98426101134E+02 -0.10278019847E+03  0.18343569600E+03  0.00000000000E+00 0. -1.
</event>
<event>
 7    1  0.2719869E-009  0.6871660E+02  0.7561462E-02  0.1364512E+00
          1   -1    0    0  501    0  0.00000000000E+00  0.00000000000E+00  0.29385889371E+02  0.29385889371E+02  0.00000000000E+00 0. -1.
         -1   -1    0    0    0  501 -0.00000000000E+00 -0.00000000000E+00 -0.41812621189E+03  0.41812621189E+03  0.00000000000E+00 0.  1.
         25    2    1    2    0    0  0.14464677907E+02  0.15255787219E+02 -0.23685625614E+03  0.26868119613E+03  0.12508690231E+03 0.  0.
          5    1    3    3  502    0 -0.57640175909E+01  0.51494988312E+02 -0.35260146055E+02  0.62814871009E+02  0.41800000000E+01 0. -1.
         -5    1    3    3    0  502  0.20228695498E+02 -0.36239201093E+02 -0.20159611009E+03  0.20586632512E+03  0.41800000000E+01 0. -1.
        -11    1    1    2    0    0 -0.25078440206E+02 -0.20031796757E+02 -0.16092406973E+03  0.16409374535E+03  0.00000000000E+00 0.  1.
         11    1    1    2    0    0  0.10613762299E+02  0.47760095379E+01  0.90400033639E+01  0.14737159769E+02  0.00000000000E+00 0. -1.
</event>
<event>
 7    1  0.3633109E-009  0.2262292E+03  0.7561462E-02  0.1129322E+00
         -1   -1    0    0    0  501 -0.00000000000E+00  0.00000000000E+00  0.87415726613E+02  0.87415726613E+02  0.00000000000E+00 0.  1.
          1   -1    0    0  501    0  0.00000000000E+00 -0.00000000000E+00 -0.82426166187E+03  0.82426166187E+03  0.00000000000E+00 0. -1.
         25    2    1    2    0    0 -0.21403854957E+03 -0.52070953736E+02 -0.56123829870E+03  0.61575903764E+03  0.12508748771E+03 0.  0.
          5    1    3    3  502    0 -0.91047904685E+02 -0.45252030050E+02 -0.40039347414E+03  0.41312210508E+03  0.41800000000E+01 0.  1.
         -5    1    3    3    0  502 -0.12299064488E+03 -0.68189236865E+01 -0.16084482456E+03  0.20263693256E+03  0.41800000000E+01 0.  1.
        -11    1    1    2    0    0  0.11939756836E+03  0.57764083854E+02 -0.57764990058E+02  0.14466949502E+03  0.00000000000E+00 0.  1.
         11    1    1    2    0    0  0.94640981207E+02 -0.56931301180E+01 -0.11784264650E+03  0.15124885582E+03  0.00000000000E+00 0. -1.
</event>
<event>
 7    1  0.2719869E-009  0.1623756E+03  0.7561462E-02  0.1186041E+00
          1   -1    0    0  501    0  0.00000000000E+00  0.00000000000E+00  0.10135140703E+04  0.10135140703E+04  0.00000000000E+00 0. -1.
         -1   -1    0    0    0  501 -0.00000000000E+00 -0.00000000000E+00 -0.32141178756E+02  0.32141178756E+02  0.00000000000E+00 0.  1.
         25    2    1    2    0    0 -0.84415861040E+02  0.10804603691E+03  0.39888488918E+03  0.43995072508E+03  0.12508997558E+03 0.  0.
          5    1    3    3  502    0  0.14809609462E+01  0.76283990875E+02  0.27754666793E+03  0.28787335026E+03  0.41800000000E+01 0.  1.
         -5    1    3    3    0  502 -0.85896821986E+02  0.31762046035E+02  0.12133822125E+03  0.15207737482E+03  0.41800000000E+01 0.  1.
        -11    1    1    2    0    0  0.73640232747E+02 -0.32742380136E+02  0.39926571907E+03  0.40731813336E+03  0.00000000000E+00 0. -1.
         11    1    1    2    0    0  0.10775628293E+02 -0.75303656774E+02  0.18322228327E+03  0.19838639060E+03  0.00000000000E+00 0.  1.
</event>
<event>
 7    1  0.2719869E-009  0.9821340E+02  0.7561462E-02  0.1284098E+00
          2   -1    0    0  501    0  0.00000000000E+00  0.00000000000E+00  0.29512110618E+03  0.29512110618E+03  0.00000000000E+00 0. -1.
         -2   -1    0    0    0  501 -0.00000000000E+00 -0.00000000000E+00 -0.46608662148E+02  0.46608662148E+02  0.00000000000E+00 0.  1.
         25    2    1    2    0    0 -0.21565865030E+02  0.21270548459E+02  0.94788637528E+02  0.15984158110E+03  0.12508765917E+03 0.  0.
          5    1    3    3  502    0  0.47016738623E+01 -0.35743409392E+02  0.89651737203E+02  0.96719198899E+02  0.41800000000E+01 0.  1.
         -5    1    3    3    0  502 -0.26267538892E+02  0.57013957851E+02  0.51369003244E+01  0.63122382197E+02  0.41800000000E+01 0.  1.
        -11    1    1    2    0    0 -0.35155959501E+02  0.34931379947E+01  0.56423577410E+02  0.66571492317E+02  0.00000000000E+00 0. -1.
         11    1    1    2    0    0  0.56721824531E+02 -0.24763686454E+02  0.97300229098E+02  0.11531669492E+03  0.00000000000E+00 0.  1.
</event>
<event>
 6    1  0.2719869E-009  0.1945361E+03  0.7561462E-02  0.1154433E+00
         -2   -1    0    0    0  501 -0.00000000000E+00  0.00000000000E+00  0.21630053494E+03  0.21630053494E+03  0.00000000000E+00 0.  1.
          2   -1    0    0  501    0  0.00000000000E+00 -0.00000000000E+00 -0.18415801498E+03  0.18415801498E+03  0.00000000000E+00 0. -1.
          5    1    1    2  502    0  0.17001691879E+03  0.59564603239E+02  0.23659083541E+02  0.18174410381E+03  0.41800000000E+01 0. -1.
         -5    1    1    2    0  502 -0.17247300238E+02  0.24109322343E+01 -0.17757002934E+02  0.25220339271E+02  0.41800000000E+01 0. -1.
        -11    1    1    2    0    0 -0.11082664139E+03 -0.88077445090E+02  0.26857840425E+02  0.14408859902E+03  0.00000000000E+00 0.  1.
         11    1    1    2    0    0 -0.41942977160E+02  0.26101909616E+02 -0.61740107646E+00  0.49405507817E+02  0.00000000000E+00 0. -1.
</event>
<event>
 7    1  0.2719869E-009  0.1538964E+03  0.7561462E-02  0.1195765E+00
          2   -1    0    0  501    0  0.00000000000E+00  0.00000000000E+00  0.31955964839E+03  0.31955964839E+03  0.00000000000E+00 0. -1.
         -2   -1    0    0    0  501 -0.00000000000E+00 -0.00000000000E+00 -0.82600303629E+02  0.82600303629E+02  0.00000000000E+00 0.  1.
         25    2    1    2    0    0  0.47266896204E+02  0.10793893718E+03  0.89751997191E+02  0.19387750329E+03  0.12509233248E+03 0.  0.
          5    1    3    3  502    0  0.81233441571E+02  0.91659016254E+02  0.95737459541E+02  0.15551006671E+03  0.41800000000E+01 0.  1.
         -5    1    3    3    0  502 -0.33966545367E+02  0.16279920925E+02 -0.59854623493E+01  0.38367436571E+02  0.41800000000E+01 0.  1.
        -11    1    1    2    0    0 -0.46732893855E+02 -0.12336143591E+03  0.13185414873E+03  0.18651413827E+03  0.00000000000E+00 0.  1.
         11    1    1    2    0    0 -0.53400234913E+00  0.15422498735E+02  0.15353198848E+02  0.21768310468E+02  0.00000000000E+00 0. -1.
</event>
<event>
 7    1  0.2719869E-009  0.9430442E+02  0.7561462E-02  0.1292750E+00
         -3   -1    0    0    0  501 -0.00000000000E+00  0.00000000000E+00  0.67457278471E+02  0.67457278471E+02  0.00000000000E+00 0.  1.
          3   -1    0    0  501    0  0.00000000000E+00 -0.00000000000E+00 -0.20604794927E+03  0.20604794927E+03  0.00000000000E+00 0. -1.
         25    2    1    2    0    0 -0.19216899114E+02 -0.12413666888E+02 -0.35472536752E+02  0.13201827335E+03  0.12508850985E+03 0.  0.
          5    1    3    3  502    0  0.53775298574E+01  0.51379141569E+02  0.56327692860E+01  0.52133813457E+02  0.41800000000E+01 0. -1.
         -5    1    3    3    0  502 -0.24594428972E+02 -0.63792808457E+02 -0.41105306038E+02  0.79884459889E+02  0.41800000000E+01 0. -1.
        -11    1    1    2    0    0 -0.11656203701E+02  0.30396180344E+02 -0.10052462164E+03  0.10566453719E+03  0.00000000000E+00 0. -1.
         11    1    1    2    0    0  0.30873102815E+02 -0.17982513456E+02 -0.25935124066E+01  0.35822417203E+02  0.00000000000E+00 0.  1.
</event>
<event>
 7    1  0.2719869E-009  0.2280192E+03  0.7561462E-02  0.1128042E+00
         -1   -1    0    0    0  501 -0.00000000000E+00  0.00000000000E+00  0.35356302939E+03  0.35356302939E+03  0.00000000000E+00 0.  1.
          1   -1    0    0  501    0  0.00000000000E+00 -0.00000000000E+00 -0.18637612469E+03  0.18637612469E+03  0.00000000000E+00 0. -1.
         25    2    1    2    0    0  0.11382483306E+03 -0.19518521125E+03  0.14215889921E+03  0.29479928733E+03  0.12507640813E+03 0.  0.
          5    1    3    3  502    0  0.76588326344E+02 -0.90162986818E+02  0.13991191137E+03  0.18327015924E+03  0.41800000000E+01 0. -1.
         -5    1    3    3    0  502  0.37236506713E+02 -0.10502222443E+03  0.22469878399E+01  0.11152912808E+03  0.41800000000E+01 0. -1.
        -11    1    1    2    0    0 -0.21617609341E+02  0.29971607817E+02  0.41082066356E+02  0.55257166819E+02  0.00000000000E+00 0.  1.
         11    1    1    2    0    0 -0.92207223716E+02  0.16521360343E+03 -0.16054060868E+02  0.18988269994E+03  0.00000000000E+00 0. -1.
</event>
<event>
 7    1  0.2719869E-009  0.1117807E+03  0.7561462E-02  0.1257307E+00
          1   -1    0    0  501    0  0.00000000000E+00  0.00000000000E+00  0.11575144567E+02  0.11575144567E+02  0.00000000000E+00 0. -1.
         -1   -1    0    0    0  501 -0.00000000000E+00 -0.00000000000E+00 -0.17258651946E+04  0.17258651946E+04  0.00000000000E+00 0.  1.
         25    2    1    2    0    0  0.24899757931E+02  0.16631587187E+02 -0.14619029305E+04  0.14675505858E+04  0.12509170970E+03 0.  0.
          5    1    3    3  502    0  0.54260715377E+02 -0.37974912094E+02 -0.78714766118E+03  0.78994001802E+03  0.41800000000E+01 0. -1.
         -5    1    3    3    0  502 -0.29360957446E+02  0.54606499281E+02 -0.67475526937E+03  0.67761056775E+03  0.41800000000E+01 0. -1.
        -11    1    1    2    0    0  0.25627121341E+02 -0.33150812960E+02 -0.12576877132E+03  0.13256511452E+03  0.00000000000E+00 0.  1.
         11    1    1    2    0    0 -0.50526879272E+02  0.16519225774E+02 -0.12661834818E+03  0.13732463888E+03  0.00000000000E+00 0. -1.
</event>
<event>
 7    1  0.2719869E-009  0.1118583E+03  0.7561462E-02  0.1257167E+00
          1   -1    0    0  501    0  0.00000000000E+00  0.00000000000E+00  0.52017466665E+03  0.52017466665E+03  0.00000000000E+00 0. -1.
         -1   -1    0    0    0  501 -0.00000000000E+00 -0.00000000000E+00 -0.34527805963E+02  0.34527805963E+02  0.00000000000E+00 0.  1.
         25    2    1    2    0    0 -0.43918161246E+02 -0.19501425958E+02  0.14555818773E+03  0.19784595719E+03  0.12508687485E+03 0.  0.
          5    1    3    3  502    0 -0.45003401495E+02  0.40756918913E+02  0.30920950772E+02  0.68264267242E+02  0.41800000000E+01 0. -1.
         -5    1    3    3    0  502  0.10852402491E+01 -0.60258344871E+02  0.11463723695E+03  0.12958168995E+03  0.41800000000E+01 0. -1.
        -11    1    1    2    0    0  0.58736084984E+02  0.44290749665E+02  0.28852928698E+03  0.29775954667E+03  0.00000000000E+00 0. -1.
         11    1    1    2    0    0 -0.14817923738E+02 -0.24789323707E+02  0.51559385982E+02  0.59096968760E+02  0.00000000000E+00 0.  1.
</event>
<event>
 7    1  0.2719869E-009  0.1457576E+03  0.7561462E-02  0.1205785E+00
          2   -1    0    0  501    0  0.00000000000E+00  0.00000000000E+00  0.33380821655E+03  0.33380821655E+03  0.00000000000E+00 0. -1.
         -2   -1    0    0    0  501 -0.00000000000E+00 -0.00000000000E+00 -0.83941129334E+02  0.83941129334E+02  0.00000000000E+00 0.  1.
         25    2    1    2    0    0 -0.58419856830E+02  0.10761803649E+03  0.14721031489E+03  0.22872006645E+03  0.12508984985E+03 0.  0.
          5    1    3    3  502    0 -0.24893603317E+02 -0.11828917878E+02 -0.89087891678E+01  0.29265230372E+02  0.41800000000E+01 0. -1.
         -5    1    3    3    0  502 -0.33526253513E+02  0.11944695437E+03  0.15611910406E+03  0.19945483608E+03  0.41800000000E+01 0. -1.
        -11    1    1    2    0    0  0.41962949016E+02 -0.13679378872E+02  0.79435552468E+02  0.90873656757E+02  0.00000000000E+00 0. -1.
         11    1    1    2    0    0  0.16456907814E+02 -0.93938657622E+02  0.23221219853E+02  0.98155622672E+02  0.00000000000E+00 0.  1.
</event>
<event>
 7    1  0.2719869E-009  0.1187198E+03  0.7561462E-02  0.1245224E+00
          2   -1    0    0  501    0  0.00000000000E+00  0.00000000000E+00  0.28808456156E+02  0.28808456156E+02  0.00000000000E+00 0. -1.
         -2   -1    0    0    0  501 -0.00000000000E+00 -0.00000000000E+00 -0.72649630130E+03  0.72649630130E+03  0.00000000000E+00 0.  1.
         25    2    1    2    0    0 -0.58220739344E+02 -0.71452891809E+02 -0.44104070910E+03  0.46761077794E+03  0.12509101619E+03 0.  0.
          5    1    3    3  502    0 -0.75188929773E+02 -0.58640376346E+02 -0.43466884596E+03  0.44502420940E+03  0.41800000000E+01 0.  1.
         -5    1    3    3    0  502  0.16968190429E+02 -0.12812515464E+02 -0.63718631341E+01  0.22586568547E+02  0.41800000000E+01 0.  1.
        -11    1    1    2    0    0  0.11341515572E+02  0.72553364446E+02 -0.20587796800E+03  0.21858261225E+03  0.00000000000E+00 0.  1.
         11    1    1    2    0    0  0.46879223772E+02 -0.11004726365E+01 -0.50769168048E+02  0.69111367269E+02  0.00000000000E+00 0. -1.
</event>
<event>
 7    1  0.2719869E-009  0.1561243E+03  0.7561462E-02  0.1193143E+00
         -2   -1    0    0    0  501 -0.00000000000E+00  0.00000000000E+00  0.25293517718E+03  0.25293517718E+03  0.00000000000E+00 0.  1.
          2   -1    0    0  501    0  0.00000000000E+00 -0.00000000000E+00 -0.16074315757E+03  0.16074315757E+03  0.00000000000E+00 0. -1.
         25    2    1    2    0    0 -0.67509423523E+02 -0.11152135207E+03  0.15740733646E+03  0.23962090932E+03  0.12508627575E+03 0.  0.
          5    1    3    3  502    0 -0.23775254441E+02 -0.13049525144E+03  0.11206433168E+03  0.17369559639E+03  0.41800000000E+01 0.  1.
         -5    1    3    3    0  502 -0.43734169083E+02  0.18973899363E+02  0.45343004772E+02  0.65925312924E+02  0.41800000000E+01 0.  1.
        -11    1    1    2    0    0  0.28801792775E+02  0.65472475632E+02  0.15700190010E+02  0.73230350940E+02  0.00000000000E+00 0.  1.
         11    1    1    2    0    0  0.38707630749E+02  0.46048876440E+02 -0.80915506858E+02  0.10082707449E+03  0.00000000000E+00 0. -1.
</event>
<event>
 7    1  0.2719869E-009  0.1070418E+03  0.7561462E-02  0.1266148E+00
          1   -1    0    0  501    0  0.00000000000E+00  0.00000000000E+00  0.36088116111E+03  0.36088116111E+03  0.00000000000E+00 0. -1.
         -1   -1    0    0    0  501 -0.00000000000E+00 -0.00000000000E+00 -0.55563826920E+02  0.55563826920E+02  0.00000000000E+00 0.  1.
         25    2    1    2    0    0  0.18230879715E+02  0.70583112438E+02  0.86099749229E+02  0.16844770980E+03  0.12508846223E+03 0.  0.
          5    1    3    3  502    0 -0.13952452200E+02 -0.81269369599E+01 -0.24026886296E+02  0.29248618631E+02  0.41800000000E+01 0.  1.
         -5    1    3    3    0  502  0.32183331915E+02  0.78710049398E+02  0.11012663553E+03  0.13919909117E+03  0.41800000000E+01 0.  1.
        -11    1    1    2    0    0 -0.48255273883E+02 -0.17594547176E+02  0.69943468275E+02  0.86776888065E+02  0.00000000000E+00 0.  1.
         11    1    1    2    0    0  0.30024394168E+02 -0.52988565262E+02  0.14927411668E+03  0.16122039017E+03  0.00000000000E+00 0. -1.
</event>
<event>
 7    1  0.2719869E-009  0.1685045E+03  0.7561462E-02  0.1179416E+00
          2   -1    0    0  501    0  0.00000000000E+00  0.00000000000E+00  0.10531120048E+04  0.10531120048E+04  0.00000000000E+00 0. -1.
         -2   -1    0    0    0  501 -0.00000000000E+00 -0.00000000000E+00 -0.84691230931E+02  0.84691230931E+02  0.00000000000E+00 0.  1.
         25    2    1    2    0    0  0.12964735292E+03  0.98131592273E+02  0.92336604763E+03  0.94588156587E+03  0.12509529658E+03 0.  0.
          5    1    3    3  502    0  0.10820433994E+03  0.91449493047E+02  0.44622226756E+03  0.46819117189E+03  0.41800000000E+01 0.  1.
         -5    1    3    3    0  502  0.21443012979E+02  0.66820992255E+01  0.47714378006E+03  0.47769039399E+03  0.41800000000E+01 0.  1.
        -11    1    1    2    0    0 -0.70058101627E+02 -0.17576875271E+02 -0.16813936475E+02  0.74160586618E+02  0.00000000000E+00 0.  1.
         11    1    1    2    0    0 -0.59589251295E+02 -0.80554717002E+02  0.61868662734E+02  0.11776108326E+03  0.00000000000E+00 0. -1.
</event>
<event>
 6    1  0.2719869E-009  0.1053204E+03  0.7561462E-02  0.1269490E+00
          1   -1    0    0  501    0  0.00000000000E+00  0.00000000000E+00  0.87099874479E+02  0.87099874479E+02  0.00000000000E+00 0. -1.
         -1   -1    0    0    0  501 -0.00000000000E+00 -0.00000000000E+00 -0.20936407528E+03  0.20936407528E+03  0.00000000000E+00 0.  1.
          5    1    1    2  502    0 -0.87766318435E+02  0.79004611264E+01 -0.27774111365E+02  0.92489013401E+02  0.41800000000E+01 0.  1.
         -5    1    1    2    0  502  0.31987175255E+02 -0.18538315223E+01  0.30572857671E+02  0.44483571105E+02  0.41800000000E+01 0.  1.
        -11    1    1    2    0    0 -0.85453876306E+00 -0.28990699141E+02 -0.12855394900E+02  0.31724628464E+02  0.00000000000E+00 0.  1.
         11    1    1    2    0    0  0.56633681943E+02  0.22944069536E+02 -0.11220755221E+03  0.12776673679E+03  0.00000000000E+00 0. -1.
</event>
<event>
 7    1  0.2719869E-009  0.1080623E+03  0.7561462E-02  0.1264201E+00
          2   -1    0    0  501    0  0.00000000000E+00  0.00000000000E+00  0.22323175186E+03  0.22323175186E+03  0.00000000000E+00 0. -1.
         -2   -1    0    0    0  501 -0.00000000000E+00 -0.00000000000E+00 -0.54492947682E+02  0.54492947682E+02  0.00000000000E+00 0.  1.
         25    2    1    2    0    0  0.82451231505E+01 -0.23907462979E+02  0.10494071020E+03  0.16522372425E+03  0.12508707989E+03 0.  0.
          5    1    3    3  502    0  0.26867547235E+02  0.46826690239E+02  0.49256320653E+02  0.73200147113E+02  0.41800000000E+01 0. -1.
         -5    1    3    3    0  502 -0.18622424085E+02 -0.70734153217E+02  0.55684389550E+02  0.92023577140E+02  0.41800000000E+01 0. -1.
        -11    1    1    2    0    0  0.15863770084E+02  0.50431940852E+02  0.53481799736E+02  0.75202013021E+02  0.00000000000E+00 0. -1.
         11    1    1    2    0    0 -0.24108893235E+02 -0.26524477873E+02  0.10316294238E+02  0.37298962268E+02  0.00000000000E+00 0.  1.
</event>
<event>
 7    1  0.2719869E-009  0.9911162E+02  0.7561462E-02  0.1282175E+00
         -2   -1    0    0    0  501 -0.00000000000E+00  0.00000000000E+00  0.41848638573E+02  0.41848638573E+02  0.00000000000E+00 0.  1.
          2   -1    0    0  501    0  0.00000000000E+00 -0.00000000000E+00 -0.28781640433E+03  0.28781640433E+03  0.00000000000E+00 0. -1.
         25    2    1    2    0    0 -0.24606575159E+01 -0.14640369082E+02 -0.15474857247E+03  0.19953995670E+03  0.12509467773E+03 0.  0.
          5    1    3    3  502    0  0.23823276631E+02  0.48876200895E+02 -0.48822798721E+02  0.73195420610E+02  0.41800000000E+01 0. -1.
         -5    1    3    3    0  502 -0.26283934146E+02 -0.63516569977E+02 -0.10592577375E+03  0.12634453609E+03  0.41800000000E+01 0. -1.
        -11    1    1    2    0    0  0.35862519691E+02 -0.47890886862E+01 -0.83106652762E+02  0.90640892661E+02  0.00000000000E+00 0. -1.
         11    1    1    2    0    0 -0.33401862175E+02  0.19429457768E+02 -0.81125405273E+01  0.39484193543E+02  0.00000000000E+00 0.  1.
</event>
<event>
 7    1  0.2719869E-009  0.1549513E+03  0.7561462E-02  0.1194517E+00
         -2   -1    0    0    0  501 -0.00000000000E+00  0.00000000000E+00  0.48327332042E+02  0.48327332042E+02  0.00000000000E+00 0.  1.
          2   -1    0    0  501    0  0.00000000000E+00 -0.00000000000E+00 -0.67525355326E+03  0.67525355326E+03  0.00000000000E+00 0. -1.
         25    2    1    2    0    0  0.13088029502E+02 -0.14302152680E+03 -0.30497722783E+03  0.35956155239E+03  0.12508775647E+03 0.  0.
          5    1    3    3  502    0  0.75435403597E+01 -0.16697823266E+02  0.91587612154E+01  0.20906401172E+02  0.41800000000E+01 0.  1.
         -5    1    3    3    0  502  0.55444891424E+01 -0.12632370353E+03 -0.31413598905E+03  0.33865515122E+03  0.41800000000E+01 0.  1.
        -11    1    1    2    0    0 -0.43059978356E+02  0.11779853550E+03 -0.20135422011E+03  0.23722179213E+03  0.00000000000E+00 0. -1.
         11    1    1    2    0    0  0.29971948854E+02  0.25222991300E+02 -0.12059477327E+03  0.12679754078E+03  0.00000000000E+00 0.  1.
</event>
<event>
 7    1  0.2719869E-009  0.1146584E+03  0.7561462E-02  0.1252179E+00
         -4   -1    0    0    0  501 -0.00000000000E+00  0.00000000000E+00  0.42579486786E+03  0.42579486786E+03  0.00000000000E+00 0. -1.
          4   -1    0    0  501    0  0.00000000000E+00 -0.00000000000E+00 -0.50364302962E+02  0.50364302962E+02  0.00000000000E+00 0.  1.
         25    2    1    2    0    0 -0.77409757539E+02  0.60789466654E+01  0.10836507846E+03  0.18280962148E+03  0.12508854192E+03 0.  0.
          5    1    3    3  502    0 -0.48849881924E+02  0.45035925982E+02  0.27880409694E+01  0.66631757935E+02  0.41800000000E+01 0.  1.
         -5    1    3    3    0  502 -0.28559875616E+02 -0.38956979317E+02  0.10557703749E+03  0.11617786354E+03  0.41800000000E+01 0.  1.
        -11    1    1    2    0    0  0.32777352235E+02 -0.44567421062E+02  0.17922929878E+03  0.18757332268E+03  0.00000000000E+00 0. -1.
         11    1    1    2    0    0  0.44632405304E+02  0.38488474396E+02  0.87836187661E+02  0.10577622666E+03  0.00000000000E+00 0.  1.
</event>
<event>
 7    1  0.2719869E-009  0.1512723E+03  0.7561462E-02  0.1198918E+00
          1   -1    0    0  501    0  0.00000000000E+00  0.00000000000E+00  0.83786356980E+03  0.83786356980E+03  0.00000000000E+00 0. -1.
         -1   -1    0    0    0  501 -0.00000000000E+00 -0.00000000000E+00 -0.30152671777E+02  0.30152671777E+02  0.00000000000E+00 0.  1.
         25    2    1    2    0    0 -0.10630690573E+03  0.42022309007E+02  0.48954002574E+03  0.51803549979E+03  0.12507721447E+03 0.  0.
          5    1    3    3  502    0 -0.67784871357E+02  0.79762775909E+02  0.22735586326E+03  0.25032988268E+03  0.41800000000E+01 0.  1.
         -5    1    3    3    0  502 -0.38522034377E+02 -0.37740466902E+02  0.26218416248E+03  0.26770561711E+03  0.41800000000E+01 0.  1.
        -11    1    1    2    0    0  0.49866263640E+02 -0.65707233129E+02  0.15275503100E+03  0.17360352597E+03  0.00000000000E+00 0. -1.
         11    1    1    2    0    0  0.56440642094E+02  0.23684924122E+02  0.16541584129E+03  0.17637721582E+03  0.00000000000E+00 0.  1.
</event>
<event>
 7    1  0.2719869E-009  0.7102026E+02  0.7561462E-02  0.1356658E+00
          1   -1    0    0  501    0  0.00000000000E+00  0.00000000000E+00  0.14295642879E+03  0.14295642879E+03  0.00000000000E+00 0. -1.
         -1   -1    0    0    0  501 -0.00000000000E+00 -0.00000000000E+00 -0.16537969982E+03  0.16537969982E+03  0.00000000000E+00 0.  1.
         25    2    1    2    0    0  0.31492062928E+02  0.35812897533E+02 -0.11201426548E+03  0.17454710705E+03  0.12508070695E+03 0.  0.
          5    1    3    3  502    0  0.93119306653E+01 -0.17602866861E+01 -0.12760572813E+03  0.12802540730E+03  0.41800000000E+01 0.  1.
         -5    1    3    3    0  502  0.22180132263E+02  0.37573184219E+02  0.15591462654E+02  0.46521699746E+02  0.41800000000E+01 0.  1.
        -11    1    1    2    0    0 -0.17617569807E+02  0.22121087383E+02  0.61985146118E+02  0.68131340895E+02  0.00000000000E+00 0. -1.
         11    1    1    2    0    0 -0.13874493121E+02 -0.57933984916E+02  0.27605848330E+02  0.65657680660E+02  0.00000000000E+00 0.  1.
</event>
<event>
 7    1  0.2719869E-009  0.1647677E+03  0.7561462E-02  0.1183417E+00
          1   -1    0    0  501    0  0.00000000000E+00  0.00000000000E+00  0.20479221276E+03  0.20479221276E+03  0.00000000000E+00 0. -1.
         -1   -1    0    0    0  501 -0.00000000000E+00 -0.00000000000E+00 -0.16089848804E+03  0.16089848804E+03  0.00000000000E+00 0.  1.
         25    2    1    2    0    0  0.86691933786E+01  0.13363980386E+03 -0.30438120428E+02  0.18576109058E+03  0.12508377795E+03 0.  0.
          5    1    3    3  502    0  0.10505893034E+02 -0.19392878343E+02 -0.23506290860E+02  0.32503471028E+02  0.41800000000E+01 0. -1.
         -5    1    3    3    0  502 -0.18366996550E+01  0.15303268221E+03 -0.69318295674E+01  0.15325761955E+03  0.41800000000E+01 0. -1.
        -11    1    1    2    0    0 -0.38628640892E+02 -0.10748756517E+03  0.80431992814E+02  0.13969629212E+03  0.00000000000E+00 0. -1.
         11    1    1    2    0    0  0.29959447514E+02 -0.26152238695E+02 -0.61001476719E+01  0.40233318104E+02  0.00000000000E+00 0.  1.
</event>
<event>
 7    1  0.2719869E-009  0.1913671E+03  0.7561462E-02  0.1157234E+00
         -2   -1    0    0    0  501 -0.00000000000E+00  0.00000000000E+00  0.18748513854E+03  0.18748513854E+03  0.00000000000E+00 0.  1.
          2   -1    0    0  501    0  0.00000000000E+00 -0.00000000000E+00 -0.32587071405E+03  0.32587071405E+03  0.00000000000E+00 0. -1.
         25    2    1    2    0    0 -0.14858730934E+03  0.86863431847E+02  0.71844646778E+02  0.22457925534E+03  0.12510293509E+03 0.  0.
          5    1    3    3  502    0 -0.88391179466E+02  0.18947018774E+01 -0.13936820623E+02  0.89600769370E+02  0.41800000000E+01 0. -1.
         -5    1    3    3    0  502 -0.60196129871E+02  0.84968729970E+02  0.85781467402E+02  0.13497848597E+03  0.41800000000E+01 0. -1.
        -11    1    1    2    0    0  0.92785939369E+02 -0.76314032542E+01 -0.14371833345E+03  0.17123792871E+03  0.00000000000E+00 0.  1.
         11    1    1    2    0    0  0.55801369968E+02 -0.79232028593E+02 -0.66511888843E+02  0.11753866854E+03  0.00000000000E+00 0. -1.
</event>
<event>
 7    1  0.2719869E-009  0.9347319E+02  0.7561462E-02  0.1294652E+00
         -3   -1    0    0    0  501 -0.00000000000E+00  0.00000000000E+00  0.30025866164E+03  0.30025866164E+03  0.00000000000E+00 0.  1.
          3   -1    0    0  501    0  0.00000000000E+00 -0.00000000000E+00 -0.54458096961E+02  0.54458096961E+02  0.00000000000E+00 0. -1.
         25    2    1    2    0    0 -0.14174386154E+02 -0.43950033907E+02  0.20409024624E+03  0.24378754523E+03  0.12508804857E+03 0.  0.
          5    1    3    3  502    0  0.47331302302E+02 -0.71625083094E+01  0.13830509738E+03  0.14641491066E+03  0.41800000000E+01 0.  1.
         -5    1    3    3    0  502 -0.61505688456E+02 -0.36787525598E+02  0.65785148860E+02  0.97372634567E+02  0.41800000000E+01 0.  1.
        -11    1    1    2    0    0  0.33644501463E+01 -0.10792536732E+02 -0.22912391642E+02  0.25549482669E+02  0.00000000000E+00 0. -1.
         11    1    1    2    0    0  0.10809936008E+02  0.54742570639E+02  0.64622710086E+02  0.85379730707E+02  0.00000000000E+00 0.  1.
</event>
<event>
 7    1  0.2719869E-009  0.8110000E+02  0.7561462E-02  0.1325958E+00
          1   -1    0    0  501    0  0.00000000000E+00  0.00000000000E+00  0.45496543577E+02  0.45496543577E+02  0.00000000000E+00 0. -1.
         -1   -1    0    0    0  501 -0.00000000000E+00 -0.00000000000E+00 -0.29189954694E+03  0.29189954694E+03  0.00000000000E+00 0.  1.
         25    2    1    2    0    0  0.26172948876E+02  0.26730352069E+02 -0.13120395141E+03  0.18509887420E+03  0.12509029295E+03 0.  0.
          5    1    3    3  502    0  0.58806857802E+02  0.17253428778E+02 -0.14009228886E+02  0.63005223777E+02  0.41800000000E+01 0.  1.
         -5    1    3    3    0  502 -0.32633908926E+02  0.94769232909E+01 -0.11719472252E+03  0.12209365042E+03  0.41800000000E+01 0.  1.
        -11    1    1    2    0    0 -0.24298414714E+02 -0.43410713238E+02 -0.12381074966E+03  0.13343164809E+03  0.00000000000E+00 0.  1.
         11    1    1    2    0    0 -0.18745341616E+01  0.16680361169E+02  0.86116977039E+01  0.18865568223E+02  0.00000000000E+00 0. -1.
</event>
<event>
 7    1  0.2719869E-009  0.2104549E+03  0.7561462E-02  0.1141206E+00
          2   -1    0    0  501    0  0.00000000000E+00  0.00000000000E+00  0.18576917696E+03  0.18576917696E+03  0.00000000000E+00 0.  1.
         -2   -1    0    0    0  501 -0.00000000000E+00 -0.00000000000E+00 -0.26011804360E+03  0.26011804360E+03  0.00000000000E+00 0. -1.
         25    2    1    2    0    0  0.10301773463E+03 -0.15981709980E+03 -0.54874548404E+02  0.23412241891E+03  0.12509169412E+03 0.  0.
          5    1    3    3  502    0  0.10582992011E+03 -0.49068980582E+02 -0.29295097250E+02  0.12034704803E+03  0.41800000000E+01 0. -1.
         -5    1    3    3    0  502 -0.28121854850E+01 -0.11074811922E+03 -0.25579451153E+02  0.11377537088E+03  0.41800000000E+01 0. -1.
        -11    1    1    2    0    0 -0.30100083662E+02  0.78632152216E+02 -0.50672859372E+02  0.98268861170E+02  0.00000000000E+00 0.  1.
         11    1    1    2    0    0 -0.72917650965E+02  0.81184947586E+02  0.31198541129E+02  0.11349594048E+03  0.00000000000E+00 0. -1.
</event>
<event>
 7    1  0.2719869E-009  0.1064764E+03  0.7561462E-02  0.1267238E+00
         -2   -1    0    0    0  501 -0.00000000000E+00  0.00000000000E+00  0.14425685113E+03  0.14425685113E+03  0.00000000000E+00 0.  1.
          2   -1    0    0  501    0  0.00000000000E+00 -0.00000000000E+00 -0.12189105754E+03  0.12189105754E+03  0.00000000000E+00 0. -1.
         25    2    1    2    0    0  0.49029176619E+02  0.56244361731E+02 -0.84543785616E+01  0.14589576255E+03  0.12508720409E+03 0.  0.
          5    1    3    3  502    0  0.65710097853E+02 -0.10123288871E+02 -0.31336115464E+02  0.73618764387E+02  0.41800000000E+01 0. -1.
         -5    1    3    3    0  502 -0.16680921235E+02  0.66367650602E+02  0.22881736903E+02  0.72276998162E+02  0.41800000000E+01 0. -1.
        -11    1    1    2    0    0 -0.42956089248E+02 -0.34190028495E+02  0.61203984143E+02  0.82219896175E+02  0.00000000000E+00 0.  1.
         11    1    1    2    0    0 -0.60730873704E+01 -0.22054333236E+02 -0.30383811991E+02  0.38032249944E+02  0.00000000000E+00 0. -1.
</event>
<event>
 7    1  0.2719869E-009  0.1091480E+03  0.7561462E-02  0.1262156E+00
          1   -1    0    0  501    0  0.00000000000E+00  0.00000000000E+00  0.80468996908E+02  0.80468996908E+02  0.00000000000E+00 0. -1.
         -1   -1    0    0    0  501 -0.00000000000E+00 -0.00000000000E+00 -0.25160158456E+03  0.25160158456E+03  0.00000000000E+00 0.  1.
         25    2    1    2    0    0 -0.53168388582E+02 -0.38142106613E+02 -0.18898402693E+02  0.14242775958E+03  0.12508724649E+03 0.  0.
          5    1    3    3  502    0  0.15204245226E+02  0.25674962332E+02  0.24881488360E+02  0.39075998090E+02  0.41800000000E+01 0.  1.
         -5    1    3    3    0  502 -0.68372633809E+02 -0.63817068945E+02 -0.43779891053E+02  0.10335176149E+03  0.41800000000E+01 0.  1.
        -11    1    1    2    0    0  0.32228394179E+02 -0.16370849147E+02 -0.11460996558E+03  0.12017536479E+03  0.00000000000E+00 0.  1.
         11    1    1    2    0    0  0.20939994403E+02  0.54512955759E+02 -0.37624219382E+02  0.69467457096E+02  0.00000000000E+00 0. -1.
</event>
<event>
 7    1  0.2719869E-009  0.1196564E+03  0.7561462E-02  0.1243665E+00
          1   -1    0    0  501    0  0.00000000000E+00  0.00000000000E+00  0.23566808145E+03  0.23566808145E+03  0.00000000000E+00 0. -1.
         -1   -1    0    0    0  501 -0.00000000000E+00 -0.00000000000E+00 -0.77351903352E+02  0.77351903352E+02  0.00000000000E+00 0.  1.
         25    2    1    2    0    0 -0.39025979050E+02 -0.58484210860E+02  0.13049861954E+03  0.19396416204E+03  0.12509506983E+03 0.  0.
          5    1    3    3  502    0 -0.58003685371E+02 -0.85457546943E+02  0.69704201640E+02  0.12467384638E+03  0.41800000000E+01 0. -1.
         -5    1    3    3    0  502  0.18977706321E+02  0.26973336082E+02  0.60794417896E+02  0.69290315657E+02  0.41800000000E+01 0. -1.
        -11    1    1    2    0    0  0.16825777819E+02 -0.17060341140E+02 -0.16127743752E+02  0.28883665930E+02  0.00000000000E+00 0.  1.
         11    1    1    2    0    0  0.22200201231E+02  0.75544552000E+02  0.43945302311E+02  0.90172156827E+02  0.00000000000E+00 0. -1.
</event>
<event>
 7    1  0.2719869E-009  0.1098369E+03  0.7561462E-02  0.1260872E+00
          2   -1    0    0  501    0  0.00000000000E+00  0.00000000000E+00  0.13743809179E+03  0.13743809179E+03  0.00000000000E+00 0. -1.
         -2   -1    0    0    0  501 -0.00000000000E+00 -0.00000000000E+00 -0.94781685154E+02  0.94781685154E+02  0.00000000000E+00 0.  1.
         25    2    1    2    0    0 -0.35939887308E+02 -0.92949480804E+00  0.21121640728E+02  0.13185384029E+03  0.12508705781E+03 0.  0.
          5    1    3    3  502    0 -0.77157315191E+02  0.13590625663E+02  0.34863083612E+02  0.85853732548E+02  0.41800000000E+01 0.  1.
         -5    1    3    3    0  502  0.41217427884E+02 -0.14520120471E+02 -0.13741442884E+02  0.46000107743E+02  0.41800000000E+01 0.  1.
        -11    1    1    2    0    0  0.63193327730E+02  0.17308606056E+02  0.87801343430E+01  0.66106544852E+02  0.00000000000E+00 0.  1.
         11    1    1    2    0    0 -0.27253440423E+02 -0.16379111248E+02  0.12754631564E+02  0.34259391800E+02  0.00000000000E+00 0. -1.
</event>
<event>
 7    1  0.2719869E-009  0.7131828E+02  0.7561462E-02  0.1355667E+00
          3   -1    0    0  501    0  0.00000000000E+00  0.00000000000E+00  0.22653129152E+03  0.22653129152E+03  0.00000000000E+00 0. -1.
         -3   -1    0    0    0  501 -0.00000000000E+00 -0.00000000000E+00 -0.57160297374E+02  0.57160297374E+02  0.00000000000E+00 0.  1.
         25    2    1    2    0    0  0.14441769436E+02 -0.55480950854E+01  0.14302245528E+03  0.19063783007E+03  0.12509202003E+03 0.  0.
          5    1    3    3  502    0 -0.72019377837E+01  0.44714346791E+02  0.12476503125E+03  0.13279693573E+03  0.41800000000E+01 0. -1.
         -5    1    3    3    0  502  0.21643707219E+02 -0.50262441877E+02  0.18257424030E+02  0.57840894338E+02  0.41800000000E+01 0. -1.
        -11    1    1    2    0    0 -0.68857181848E+01  0.22596198745E+02  0.54435622321E+02  0.59340022667E+02  0.00000000000E+00 0. -1.
         11    1    1    2    0    0 -0.75560512508E+01 -0.17048103659E+02 -0.28087083453E+02  0.33713736159E+02  0.00000000000E+00 0.  1.
</event>
<event>
 7    1  0.2719869E-009  0.1221324E+03  0.7561462E-02  0.1239620E+00
         -3   -1    0    0    0  501 -0.00000000000E+00  0.00000000000E+00  0.46079978554E+03  0.46079978554E+03  0.00000000000E+00 0. -1.
          3   -1    0    0  501    0  0.00000000000E+00 -0.00000000000E+00 -0.62674084799E+02  0.62674084799E+02  0.00000000000E+00 0.  1.
         25    2    1    2    0    0  0.80157699845E+02 -0.75364006743E+02  0.31223195124E+03  0.35389407235E+03  0.12508889922E+03 0.  0.
          5    1    3    3  502    0  0.38860314922E+02  0.51586364108E+01  0.13409732463E+02  0.41641672999E+02  0.41800000000E+01 0. -1.
         -5    1    3    3    0  502  0.41297384923E+02 -0.80522643153E+02  0.29882221878E+03  0.31225239935E+03  0.41800000000E+01 0. -1.
        -11    1    1    2    0    0 -0.23913789199E+02  0.43414015482E+02 -0.13154481098E+02  0.51280468281E+02  0.00000000000E+00 0.  1.
         11    1    1    2    0    0 -0.56243910646E+02  0.31949991260E+02  0.99048230601E+02  0.11829932972E+03  0.00000000000E+00 0. -1.
</event>
<event>
 7    1  0.2719869E-009  0.1163305E+03  0.7561462E-02  0.1249276E+00
         -1   -1    0    0    0  501 -0.00000000000E+00  0.00000000000E+00  0.68991251393E+02  0.68991251393E+02  0.00000000000E+00 0.  1.
          1   -1    0    0  501    0  0.00000000000E+00 -0.00000000000E+00 -0.27906427708E+03  0.27906427708E+03  0.00000000000E+00 0. -1.
         25    2    1    2    0    0 -0.15848825229E+02 -0.67213025944E+02 -0.49587529857E+02  0.15125340991E+03  0.12509953946E+03 0.  0.
          5    1    3    3  502    0 -0.14770099733E+02 -0.10335108004E+03 -0.25317532475E+02  0.10750837847E+03  0.41800000000E+01 0.  1.
         -5    1    3    3    0  502 -0.10787254963E+01  0.36138054095E+02 -0.24269997382E+02  0.43745031436E+02  0.41800000000E+01 0.  1.
        -11    1    1    2    0    0  0.68498401047E+01  0.77677813698E+02 -0.16481967967E+03  0.18233565164E+03  0.00000000000E+00 0. -1.
         11    1    1    2    0    0  0.89989851243E+01 -0.10464787754E+02  0.43341838363E+01  0.14466466933E+02  0.00000000000E+00 0.  1.
</event>
<event>
 7    1  0.2719869E-009  0.9681116E+02  0.7561462E-02  0.1287148E+00
         -1   -1    0    0    0  501 -0.00000000000E+00  0.00000000000E+00  0.13210580425E+03  0.13210580425E+03  0.00000000000E+00 0.  1.
          1   -1    0    0  501    0  0.00000000000E+00 -0.00000000000E+00 -0.17097849200E+03  0.17097849200E+03  0.00000000000E+00 0. -1.
         25    2    1    2    0    0 -0.53277506661E+02 -0.58579002783E+02 -0.87998190209E+02  0.17222247746E+03  0.12508760123E+03 0.  0.
          5    1    3    3  502    0 -0.32415272210E+02 -0.25392889962E+02  0.27826406542E+02  0.49873139405E+02  0.41800000000E+01 0. -1.
         -5    1    3    3    0  502 -0.20862234450E+02 -0.33186112821E+02 -0.11582459675E+03  0.12234933806E+03  0.41800000000E+01 0. -1.
        -11    1    1    2    0    0  0.74742131129E+02  0.48502664031E+02  0.16637078943E+02  0.90640426850E+02  0.00000000000E+00 0. -1.
         11    1    1    2    0    0 -0.21464624469E+02  0.10076338752E+02  0.32488423521E+02  0.40221391934E+02  0.00000000000E+00 0.  1.
</event>
<event>
 7    1  0.2719869E-009  0.1019622E+03  0.7561462E-02  0.1276223E+00
          2   -1    0    0  501    0  0.00000000000E+00  0.00000000000E+00  0.45450981265E+03  0.45450981265E+03  0.00000000000E+00 0. -1.
         -2   -1    0    0    0  501 -0.00000000000E+00 -0.00000000000E+00 -0.31069738393E+02  0.31069738393E+02  0.00000000000E+00 0.  1.
         25    2    1    2    0    0 -0.41875471724E+02  0.16838483441E+02  0.28654982914E+03  0.31590659292E+03  0.12509628776E+03 0.  0.
          5    1    3    3  502    0  0.26159145319E+02  0.35565702933E+02  0.19641309459E+03  0.20135738436E+03  0.41800000000E+01 0. -1.
         -5    1    3    3    0  502 -0.68034617043E+02 -0.18727219492E+02  0.90136734544E+02  0.11454920855E+03  0.41800000000E+01 0. -1.
        -11    1    1    2    0    0  0.64550992632E+02 -0.13807008953E+02  0.12996881585E+03  0.14577159270E+03  0.00000000000E+00 0. -1.
         11    1    1    2    0    0 -0.22675520908E+02 -0.30314744880E+01  0.69214292693E+01  0.23901365424E+02  0.00000000000E+00 0.  1.
</event>
<event>
 7    1  0.2719869E-009  0.1010693E+03  0.7561462E-02  0.1278063E+00
         -3   -1    0    0    0  501 -0.00000000000E+00  0.00000000000E+00  0.82353480532E+03  0.82353480532E+03  0.00000000000E+00 0.  1.
          3   -1    0    0  501    0  0.00000000000E+00 -0.00000000000E+00 -0.20720663774E+02  0.20720663774E+02  0.00000000000E+00 0. -1.
         25    2    1    2    0    0 -0.22932472920E+02 -0.67546193030E+02  0.42046855147E+03  0.44444291550E+03  0.12508923155E+03 0.  0.
          5    1    3    3  502    0  0.14993060042E+02 -0.18024801264E+02  0.50472225286E+01  0.24344037571E+02  0.41800000000E+01 0. -1.
         -5    1    3    3    0  502 -0.37925532962E+02 -0.49521391766E+02  0.41542132894E+03  0.42009887793E+03  0.41800000000E+01 0. -1.
        -11    1    1    2    0    0 -0.33288022336E+02  0.86654123458E+01  0.90207920414E+02  0.96543517170E+02  0.00000000000E+00 0.  1.
         11    1    1    2    0    0  0.56220495256E+02  0.58880780684E+02  0.29213766966E+03  0.30326903643E+03  0.00000000000E+00 0. -1.
</event>
<event>
 7    1  0.2719869E-009  0.1094242E+03  0.7561462E-02  0.1261640E+00
         -1   -1    0    0    0  501 -0.00000000000E+00  0.00000000000E+00  0.35415480373E+03  0.35415480373E+03  0.00000000000E+00 0.  1.
          1   -1    0    0  501    0  0.00000000000E+00 -0.00000000000E+00 -0.57556576433E+02  0.57556576433E+02  0.00000000000E+00 0. -1.
         25    2    1    2    0    0  0.96889461194E+02 -0.30234353754E+02  0.16987501984E+03  0.23410739627E+03  0.12508823600E+03 0.  0.
          5    1    3    3  502    0  0.79085966535E+02  0.80716856544E+00  0.22416924335E+02  0.82311800615E+02  0.41800000000E+01 0.  1.
         -5    1    3    3    0  502  0.17803494660E+02 -0.31041522320E+02  0.14745809550E+03  0.15179559565E+03  0.41800000000E+01 0.  1.
        -11    1    1    2    0    0 -0.23629036637E+02  0.17158690861E+02  0.89998265276E+02  0.94617333492E+02  0.00000000000E+00 0.  1.
         11    1    1    2    0    0 -0.73260424557E+02  0.13075662894E+02  0.36724942178E+02  0.82986650399E+02  0.00000000000E+00 0. -1.
</event>
<event>
 7    1  0.2719869E-009  0.1893741E+03  0.7561462E-02  0.1159027E+00
          1   -1    0    0  501    0  0.00000000000E+00  0.00000000000E+00  0.62229695844E+02  0.62229695844E+02  0.00000000000E+00 0. -1.
         -1   -1    0    0    0  501 -0.00000000000E+00 -0.00000000000E+00 -0.74238136015E+03  0.74238136015E+03  0.00000000000E+00 0.  1.
         25    2    1    2    0    0 -0.41652638396E+01  0.16280741891E+03 -0.18732447271E+03  0.27795932041E+03  0.12508925073E+03 0.  0.
          5    1    3    3  502    0  0.49504634623E+02  0.43158601405E+02 -0.27873595783E+02  0.71468758673E+02  0.41800000000E+01 0. -1.
         -5    1    3    3    0  502 -0.53669898463E+02  0.11964881751E+03 -0.15945087693E+03  0.20649056174E+03  0.41800000000E+01 0. -1.
        -11    1    1    2    0    0  0.19295226815E+02 -0.16528395971E+03 -0.47406136096E+03  0.50241941351E+03  0.00000000000E+00 0.  1.
         11    1    1    2    0    0 -0.15129962975E+02  0.24765407961E+01 -0.18765830639E+02  0.24232322083E+02  0.00000000000E+00 0. -1.
</event>
<event>
 7    1  0.2719869E-009  0.1106549E+03  0.7561462E-02  0.1259362E+00
         -1   -1    0    0    0  501 -0.00000000000E+00  0.00000000000E+00  0.33494914034E+02  0.33494914034E+02  0.00000000000E+00 0.  1.
          1   -1    0    0  501    0  0.00000000000E+00 -0.00000000000E+00 -0.39214566934E+03  0.39214566934E+03  0.00000000000E+00 0. -1.
         25    2    1    2    0    0 -0.29210629486E+02 -0.30728418007E+02 -0.21643004448E+03  0.25355061236E+03  0.12509377414E+03 0.  0.
          5    1    3    3  502    0 -0.32275401540E+02 -0.77797292347E+02 -0.14787659915E+03  0.17023243292E+03  0.41800000000E+01 0.  1.
         -5    1    3    3    0  502  0.30647720541E+01  0.47068874340E+02 -0.68553445325E+02  0.83318179441E+02  0.41800000000E+01 0.  1.
        -11    1    1    2    0    0  0.55403184795E+02  0.30890977918E+02 -0.66209005963E+02  0.91691863722E+02  0.00000000000E+00 0. -1.
         11    1    1    2    0    0 -0.26192555309E+02 -0.16255991146E+00 -0.76011704866E+02  0.80398107291E+02  0.00000000000E+00 0.  1.
</event>
<event>
 7    1  0.2719869E-009  0.1779612E+03  0.7561462E-02  0.1169791E+00
         -2   -1    0    0    0  501 -0.00000000000E+00  0.00000000000E+00  0.93901011792E+02  0.93901011792E+02  0.00000000000E+00 0.  1.
          2   -1    0    0  501    0  0.00000000000E+00 -0.00000000000E+00 -0.43265508639E+03  0.43265508639E+03  0.00000000000E+00 0. -1.
         25    2    1    2    0    0 -0.10910875031E+03 -0.10087683080E+03 -0.28226718789E+03  0.34264139422E+03  0.12508998875E+03 0.  0.
          5    1    3    3  502    0 -0.18791473164E+02  0.21964087880E+02 -0.10402026390E+03  0.10804271527E+03  0.41800000000E+01 0.  1.
         -5    1    3    3    0  502 -0.90317277149E+02 -0.12284091868E+03 -0.17824692399E+03  0.23459867896E+03  0.41800000000E+01 0.  1.
        -11    1    1    2    0    0  0.73555048203E+01  0.66321310098E+02 -0.30435663604E+02  0.73341320163E+02  0.00000000000E+00 0. -1.
         11    1    1    2    0    0  0.10175324549E+03  0.34555520707E+02 -0.26051223103E+02  0.11057338380E+03  0.00000000000E+00 0.  1.
</event>
<event>
 7    1  0.2719869E-009  0.1260756E+03  0.7561462E-02  0.1233398E+00
         -2   -1    0    0    0  501 -0.00000000000E+00  0.00000000000E+00  0.65108526187E+02  0.65108526187E+02  0.00000000000E+00 0.  1.
          2   -1    0    0  501    0  0.00000000000E+00 -0.00000000000E+00 -0.38861480273E+03  0.38861480273E+03  0.00000000000E+00 0. -1.
         25    2    1    2    0    0  0.82197004902E+02 -0.66115687415E+02 -0.23727695650E+03  0.28822711618E+03  0.12508750809E+03 0.  0.
          5    1    3    3  502    0  0.71996647353E+01 -0.70534903938E+02 -0.51324172430E+02  0.87627911772E+02  0.41800000000E+01 0. -1.
         -5    1    3    3    0  502  0.74997340166E+02  0.44192165236E+01 -0.18595278407E+03  0.20059920441E+03  0.41800000000E+01 0. -1.
        -11    1    1    2    0    0 -0.58302350503E+02  0.41404998145E+02 -0.10445642032E+03  0.12658863177E+03  0.00000000000E+00 0. -1.
         11    1    1    2    0    0 -0.23894654399E+02  0.24710689269E+02  0.18227100273E+02  0.38907580976E+02  0.00000000000E+00 0.  1.
</event>
<event>
 7    1  0.2719869E-009  0.1248150E+03  0.7561462E-02  0.1235359E+00
         -1   -1    0    0    0  501 -0.00000000000E+00  0.00000000000E+00  0.32478990168E+03  0.32478990168E+03  0.00000000000E+00 0.  1.
          1   -1    0    0  501    0  0.00000000000E+00 -0.00000000000E+00 -0.51816909526E+02  0.51816909526E+02  0.00000000000E+00 0. -1.
         25    2    1    2    0    0  0.29251890869E+02 -0.61931131197E+02  0.12674839307E+03  0.19079779276E+03  0.12508998539E+03 0.  0.
          5    1    3    3  502    0  0.69127828402E+01  0.38242356637E+02  0.44333439354E+02  0.59103220324E+02  0.41800000000E+01 0. -1.
         -5    1    3    3    0  502  0.22339108029E+02 -0.10017348783E+03  0.82414953717E+02  0.13169457243E+03  0.41800000000E+01 0. -1.
        -11    1    1    2    0    0 -0.16304577928E+02  0.82184586516E+02  0.13588848476E+03  0.15964280695E+03  0.00000000000E+00 0.  1.
         11    1    1    2    0    0 -0.12947312941E+02 -0.20253455320E+02  0.10336114330E+02  0.26166211499E+02  0.00000000000E+00 0. -1.
</event>
<event>
 7    1  0.2719869E-009  0.1125440E+03  0.7561462E-02  0.1255930E+00
          2   -1    0    0  501    0  0.00000000000E+00  0.00000000000E+00  0.21194077904E+03  0.21194077904E+03  0.00000000000E+00 0. -1.
         -2   -1    0    0    0  501 -0.00000000000E+00 -0.00000000000E+00 -0.69068192689E+02  0.69068192689E+02  0.00000000000E+00 0.  1.
         25    2    1    2    0    0  0.38988098374E+02  0.37439084384E+02  0.78501176750E+02  0.15725020420E+03  0.12507371873E+03 0.  0.
          5    1    3    3  502    0 -0.23014629833E+02 -0.23703297519E+02 -0.82016465377E+01  0.34296631110E+02  0.41800000000E+01 0. -1.
         -5    1    3    3    0  502  0.62002728207E+02  0.61142381903E+02  0.86702823288E+02  0.12295357309E+03  0.41800000000E+01 0. -1.
        -11    1    1    2    0    0 -0.35420180047E+02 -0.66491141030E+02  0.38079456098E+02  0.84413896764E+02  0.00000000000E+00 0. -1.
         11    1    1    2    0    0 -0.35679183270E+01  0.29052056646E+02  0.26291953508E+02  0.39344870769E+02  0.00000000000E+00 0.  1.
</event>
<event>
 7    1  0.2719869E-009  0.1126880E+03  0.7561462E-02  0.1255672E+00
          2   -1    0    0  501    0  0.00000000000E+00  0.00000000000E+00  0.34199390848E+03  0.34199390848E+03  0.00000000000E+00 0.  1.
         -2   -1    0    0    0  501 -0.00000000000E+00 -0.00000000000E+00 -0.53901682372E+02  0.53901682372E+02  0.00000000000E+00 0. -1.
         25    2    1    2    0    0 -0.32430392421E+02  0.25118684358E+02  0.26011936945E+03  0.29152345724E+03  0.12506462770E+03 0.  0.
          5    1    3    3  502    0  0.91486175645E+01  0.69652191395E+02  0.13173456533E+03  0.14935391884E+03  0.41800000000E+01 0.  1.
         -5    1    3    3    0  502 -0.41579009985E+02 -0.44533507037E+02  0.12838480412E+03  0.14216953840E+03  0.41800000000E+01 0.  1.
        -11    1    1    2    0    0  0.18238002154E+02 -0.56564146114E+02  0.35269518168E+02  0.69109089561E+02  0.00000000000E+00 0.  1.
         11    1    1    2    0    0  0.14192390267E+02  0.31445461756E+02 -0.72966615120E+01  0.35263044051E+02  0.00000000000E+00 0. -1.
</event>
<event>
 7    1  0.2719869E-009  0.9697244E+02  0.7561462E-02  0.1286794E+00
         -2   -1    0    0    0  501 -0.00000000000E+00  0.00000000000E+00  0.33567251101E+02  0.33567251101E+02  0.00000000000E+00 0.  1.
          2   -1    0    0  501    0  0.00000000000E+00 -0.00000000000E+00 -0.38815475414E+03  0.38815475414E+03  0.00000000000E+00 0. -1.
         25    2    1    2    0    0  0.50456267814E+02 -0.36579879868E+01 -0.17067185320E+03  0.21756618247E+03  0.12508775496E+03 0.  0.
          5    1    3    3  502    0 -0.30304946389E+02 -0.13472535149E+02 -0.61603416359E+01  0.33990016005E+02  0.41800000000E+01 0.  1.
         -5    1    3    3    0  502  0.80761214203E+02  0.98145471624E+01 -0.16451151156E+03  0.18357616646E+03  0.41800000000E+01 0.  1.
        -11    1    1    2    0    0  0.65782346091E+01  0.18905797923E+02 -0.14414289603E+02  0.24667267997E+02  0.00000000000E+00 0.  1.
         11    1    1    2    0    0 -0.57034502423E+02 -0.15247809936E+02 -0.16950136023E+03  0.17948855478E+03  0.00000000000E+00 0. -1.
</event>
<event>
 7    1  0.2719869E-009  0.1243520E+03  0.7561462E-02  0.1236086E+00
         -1   -1    0    0    0  501 -0.00000000000E+00  0.00000000000E+00  0.83139394650E+02  0.83139394650E+02  0.00000000000E+00 0.  1.
          1   -1    0    0  501    0  0.00000000000E+00 -0.00000000000E+00 -0.37432926748E+03  0.37432926748E+03  0.00000000000E+00 0. -1.
         25    2    1    2    0    0 -0.59709749937E+01 -0.10986268344E+03 -0.26490978713E+03  0.31293814031E+03  0.12509045763E+03 0.  0.
          5    1    3    3  502    0  0.34870578795E+01 -0.24279857008E+02  0.84732153366E+01  0.26285714887E+02  0.41800000000E+01 0.  1.
         -5    1    3    3    0  502 -0.94580328733E+01 -0.85582826435E+02 -0.27338300246E+03  0.28665242543E+03  0.41800000000E+01 0.  1.
        -11    1    1    2    0    0 -0.35099409075E+02  0.78337977113E+02  0.13345854440E+01  0.85852130398E+02  0.00000000000E+00 0.  1.
         11    1    1    2    0    0  0.41070384069E+02  0.31524706331E+02 -0.27614671146E+02  0.58678391417E+02  0.00000000000E+00 0. -1.
</event>
<event>
 7    1  0.2719869E-009  0.7230179E+02  0.7561462E-02  0.1352436E+00
          2   -1    0    0  501    0  0.00000000000E+00  0.00000000000E+00  0.59935739543E+03  0.59935739543E+03  0.00000000000E+00 0. -1.
         -2   -1    0    0    0  501 -0.00000000000E+00 -0.00000000000E+00 -0.35965064745E+02  0.35965064745E+02  0.00000000000E+00 0.  1.
         25    2    1    2    0    0  0.95453987594E+01 -0.13413589182E+02  0.51758247131E+03  0.53273872634E+03  0.12509155417E+03 0.  0.
          5    1    3    3  502    0  0.10240170835E+02  0.49790635254E+02  0.34787486272E+03  0.35159402864E+03  0.41800000000E+01 0. -1.
         -5    1    3    3    0  502 -0.69477207566E+00 -0.63204224435E+02  0.16970760858E+03  0.18114469770E+03  0.41800000000E+01 0. -1.
        -11    1    1    2    0    0 -0.16864763802E+02  0.24078843080E+01  0.71602763932E+02  0.73601453570E+02  0.00000000000E+00 0. -1.
         11    1    1    2    0    0  0.73193650426E+01  0.11005704874E+02 -0.25792904551E+02  0.28982280268E+02  0.00000000000E+00 0.  1.
</event>
<event>
 7    1  0.2719869E-009  0.1089264E+03  0.7561462E-02  0.1262571E+00
         -1   -1    0    0    0  501 -0.00000000000E+00  0.00000000000E+00  0.26918436185E+02  0.26918436185E+02  0.00000000000E+00 0.  1.
          1   -1    0    0  501    0  0.00000000000E+00 -0.00000000000E+00 -0.53733485261E+03  0.53733485261E+03  0.00000000000E+00 0. -1.
         25    2    1    2    0    0 -0.36842805177E+02  0.35540377077E+02 -0.25741147092E+03  0.29073886148E+03  0.12509160450E+03 0.  0.
          5    1    3    3  502    0 -0.10062366875E+02  0.79526686117E+02 -0.18614052198E+03  0.20271041254E+03  0.41800000000E+01 0. -1.
         -5    1    3    3    0  502 -0.26780438302E+02 -0.43986309040E+02 -0.71270948946E+02  0.88028448937E+02  0.41800000000E+01 0. -1.
        -11    1    1    2    0    0  0.53829860549E+02 -0.92551442844E+01 -0.22494323078E+03  0.23147952103E+03  0.00000000000E+00 0. -1.
         11    1    1    2    0    0 -0.16987055372E+02 -0.26285232792E+02 -0.28061714721E+02  0.42034906283E+02  0.00000000000E+00 0.  1.
</event>
<event>
 7    1  0.2719869E-009  0.1151265E+03  0.7561462E-02  0.1251361E+00
          1   -1    0    0  501    0  0.00000000000E+00  0.00000000000E+00  0.67447395080E+02  0.67447395080E+02  0.00000000000E+00 0. -1.
         -1   -1    0    0    0  501 -0.00000000000E+00 -0.00000000000E+00 -0.24019562717E+03  0.24019562717E+03  0.00000000000E+00 0.  1.
         25    2    1    2    0    0 -0.47055369213E+02  0.45814429106E+02 -0.78219641035E+02  0.16149148150E+03  0.12509203279E+03 0.  0.
          5    1    3    3  502    0 -0.81259740869E+02 -0.59954678986E+00 -0.59234988532E+02  0.10064671484E+03  0.41800000000E+01 0.  1.
         -5    1    3    3    0  502  0.34204371657E+02  0.46413975896E+02 -0.18984652502E+02  0.60844766657E+02  0.41800000000E+01 0.  1.
        -11    1    1    2    0    0  0.35800304146E+02 -0.61862629617E+02 -0.10252631356E+03  0.12498116535E+03  0.00000000000E+00 0.  1.
         11    1    1    2    0    0  0.11255065066E+02  0.16048200511E+02  0.79977225050E+01  0.21170375399E+02  0.00000000000E+00 0. -1.
</event>
<event>
 7    1  0.2719869E-009  0.1318257E+03  0.7561462E-02  0.1224772E+00
         -1   -1    0    0    0  501 -0.00000000000E+00  0.00000000000E+00  0.62169167004E+03  0.62169167004E+03  0.00000000000E+00 0.  1.
          1   -1    0    0  501    0  0.00000000000E+00 -0.00000000000E+00 -0.56911337069E+02  0.56911337069E+02  0.00000000000E+00 0. -1.
         25    2    1    2    0    0 -0.65351900691E+02 -0.88744472055E+02  0.10490146735E+03  0.19697347693E+03  0.12509108887E+03 0.  0.
          5    1    3    3  502    0  0.10820509194E+02 -0.58141232291E+02  0.97934820855E+02  0.11448225997E+03  0.41800000000E+01 0.  1.
         -5    1    3    3    0  502 -0.76172409885E+02 -0.30603239764E+02  0.69666464985E+01  0.82491216957E+02  0.41800000000E+01 0.  1.
        -11    1    1    2    0    0  0.12253646951E+02  0.61076273645E+02  0.35864499516E+03  0.36401469148E+03  0.00000000000E+00 0.  1.
         11    1    1    2    0    0  0.53098253740E+02  0.27668198410E+02  0.10123387046E+03  0.11761483870E+03  0.00000000000E+00 0. -1.
</event>
<event>
 7    1  0.2719869E-009  0.2315321E+03  0.7561462E-02  0.1125566E+00
          1   -1    0    0  501    0  0.00000000000E+00  0.00000000000E+00  0.85260080180E+03  0.85260080180E+03  0.00000000000E+00 0. -1.
         -1   -1    0    0    0  501 -0.00000000000E+00 -0.00000000000E+00 -0.69968922918E+02  0.69968922918E+02  0.00000000000E+00 0.  1.
         25    2    1    2    0    0 -0.33575164189E+02 -0.21229540733E+03  0.32831409119E+03  0.41187748773E+03  0.12512510061E+03 0.  0.
          5    1    3    3  502    0  0.22334039120E+02 -0.17658706141E+03  0.20292357006E+03  0.26995786198E+03  0.41800000000E+01 0.  1.
         -5    1    3    3    0  502 -0.55909203310E+02 -0.35708345917E+02  0.12539052113E+03  0.14191962575E+03  0.41800000000E+01 0.  1.
        -11    1    1    2    0    0  0.24784125351E+02  0.48008510207E+02  0.47776177854E+02  0.72122348077E+02  0.00000000000E+00 0. -1.
         11    1    1    2    0    0  0.87910388381E+01  0.16428689712E+03  0.40654160984E+03  0.43856988891E+03  0.00000000000E+00 0.  1.
</event>
<event>
 7    1  0.2719869E-009  0.1093008E+03  0.7561462E-02  0.1261870E+00
         -2   -1    0    0    0  501 -0.00000000000E+00  0.00000000000E+00  0.63496183828E+02  0.63496183828E+02  0.00000000000E+00 0.  1.
          2   -1    0    0  501    0  0.00000000000E+00 -0.00000000000E+00 -0.24832615098E+03  0.24832615098E+03  0.00000000000E+00 0. -1.
         25    2    1    2    0    0  0.19285149697E+01 -0.39019742602E+02 -0.16254672888E+03  0.20879985236E+03  0.12509868024E+03 0.  0.
          5    1    3    3  502    0 -0.61093213662E+02 -0.13985221350E+02 -0.71004310826E+02  0.94800061855E+02  0.41800000000E+01 0.  1.
         -5    1    3    3    0  502  0.63021728632E+02 -0.25034521252E+02 -0.91542418049E+02  0.11399979051E+03  0.41800000000E+01 0.  1.
        -11    1    1    2    0    0 -0.40225029214E+02  0.22997571175E+02 -0.36666993811E+02  0.59088151861E+02  0.00000000000E+00 0. -1.
         11    1    1    2    0    0  0.38296514244E+02  0.16022171427E+02  0.14383755535E+02  0.43934330583E+02  0.00000000000E+00 0.  1.
</event>
<event>
 7    1  0.2719869E-009  0.1743117E+03  0.7561462E-02  0.1173425E+00
          2   -1    0    0  501    0  0.00000000000E+00  0.00000000000E+00  0.46480985777E+03  0.46480985777E+03  0.00000000000E+00 0. -1.
         -2   -1    0    0    0  501 -0.00000000000E+00 -0.00000000000E+00 -0.83731275953E+02  0.83731275953E+02  0.00000000000E+00 0.  1.
         25    2    1    2    0    0  0.11936974413E+03  0.93201453467E+02  0.28726069970E+03  0.34799452822E+03  0.12508331359E+03 0.  0.
          5    1    3    3  502    0  0.10140656028E+03  0.29344907318E+01  0.12140442842E+03  0.15826689276E+03  0.41800000000E+01 0.  1.
         -5    1    3    3    0  502  0.17963183848E+02  0.90266962735E+02  0.16585627128E+03  0.18972763546E+03  0.41800000000E+01 0.  1.
        -11    1    1    2    0    0 -0.62614408430E+02 -0.28222131281E+02  0.91281377181E+02  0.11423371944E+03  0.00000000000E+00 0. -1.
         11    1    1    2    0    0 -0.56755335698E+02 -0.64979322186E+02  0.25365049290E+01  0.86312886055E+02  0.00000000000E+00 0.  1.
</event>
<event>
 7    1  0.2719869E-009  0.1204079E+03  0.7561462E-02  0.1242426E+00
         -1   -1    0    0    0  501 -0.00000000000E+00  0.00000000000E+00  0.30738967083E+02  0.30738967083E+02  0.00000000000E+00 0.  1.
          1   -1    0    0  501    0  0.00000000000E+00 -0.00000000000E+00 -0.59426672293E+03  0.59426672293E+03  0.00000000000E+00 0. -1.
         25    2    1    2    0    0 -0.59924679437E+02 -0.45882722090E+02 -0.23229286962E+03  0.27441433687E+03  0.12508820733E+03 0.  0.
          5    1    3    3  502    0  0.26298912610E+02 -0.51108810025E+02 -0.71447086977E+02  0.91792711607E+02  0.41800000000E+01 0. -1.
         -5    1    3    3    0  502 -0.86223592047E+02  0.52260879356E+01 -0.16084578264E+03  0.18262162526E+03  0.41800000000E+01 0. -1.
        -11    1    1    2    0    0  0.35050817291E+02 -0.92226065392E+01 -0.43725097664E+02  0.56793489327E+02  0.00000000000E+00 0.  1.
         11    1    1    2    0    0  0.24873862146E+02  0.55105328629E+02 -0.28750978857E+03  0.29379786382E+03  0.00000000000E+00 0. -1.
</event>
<event>
 7    1  0.2719869E-009  0.1462342E+03  0.7561462E-02  0.1205178E+00
          2   -1    0    0  501    0  0.00000000000E+00  0.00000000000E+00  0.11710167345E+04  0.11710167345E+04  0.00000000000E+00 0.  1.
         -2   -1    0    0    0  501 -0.00000000000E+00 -0.00000000000E+00 -0.21775034259E+02  0.21775034259E+02  0.00000000000E+00 0. -1.
         25    2    1    2    0    0  0.34472746284E+02  0.97284836212E+02  0.42709640977E+03  0.45684964186E+03  0.12509013725E+03 0.  0.
          5    1    3    3  502    0 -0.21215914432E+02  0.92144715182E+02  0.17887956856E+03  0.20237622392E+03  0.41800000000E+01 0. -1.
         -5    1    3    3    0  502  0.55688660716E+02  0.51401210296E+01  0.24821684121E+03  0.25447341793E+03  0.41800000000E+01 0. -1.
        -11    1    1    2    0    0 -0.26175817047E+02  0.14312792506E+02  0.16328424183E+03  0.16598726776E+03  0.00000000000E+00 0. -1.
         11    1    1    2    0    0 -0.82969292370E+01 -0.11159762872E+03  0.55886104863E+03  0.56995485913E+03  0.00000000000E+00 0.  1.
</event>
<event>
 7    1  0.2719869E-009  0.6667157E+02  0.7561462E-02  0.1371792E+00
          2   -1    0    0  501    0  0.00000000000E+00  0.00000000000E+00  0.24670031984E+03  0.24670031984E+03  0.00000000000E+00 0.  1.
         -2   -1    0    0    0  501 -0.00000000000E+00 -0.00000000000E+00 -0.77019608055E+02  0.77019608055E+02  0.00000000000E+00 0. -1.
         25    2    1    2    0    0  0.47926958592E+02 -0.38723883722E+02  0.23955758515E+02  0.14149030120E+03  0.12509634062E+03 0.  0.
          5    1    3    3  502    0  0.50685380456E+02 -0.33606337409E+02  0.71186595488E+02  0.93719781707E+02  0.41800000000E+01 0.  1.
         -5    1    3    3    0  502 -0.27584218638E+01 -0.51175463132E+01 -0.47230836974E+02  0.47770519493E+02  0.41800000000E+01 0.  1.
        -11    1    1    2    0    0 -0.13726674355E+02  0.24706160786E+02  0.14233383676E+03  0.14511284249E+03  0.00000000000E+00 0.  1.
         11    1    1    2    0    0 -0.34200284237E+02  0.14017722935E+02  0.33911165077E+01  0.37116784200E+02  0.00000000000E+00 0. -1.
</event>
<event>
 7    1  0.3108043E-009  0.1567993E+03  0.7561462E-02  0.1192358E+00
          2   -1    0    0  501    0  0.00000000000E+00  0.00000000000E+00  0.85969146408E+03  0.85969146408E+03  0.00000000000E+00 0.  1.
         -2   -1    0    0    0  501 -0.00000000000E+00 -0.00000000000E+00 -0.33955847683E+02  0.33955847683E+02  0.00000000000E+00 0. -1.
         25    2    1    2    0    0 -0.11571391303E+03  0.61360251866E+02  0.46952213091E+03  0.50324296861E+03  0.12509062262E+03 0.  0.
          5    1    3    3  502    0 -0.77776780339E+02 -0.64889642625E+01  0.36292764491E+03  0.37124827549E+03  0.41800000000E+01 0. -1.
         -5    1    3    3    0  502 -0.37937132690E+02  0.67849216129E+02  0.10659448600E+03  0.13199469312E+03  0.41800000000E+01 0. -1.
        -11    1    1    2    0    0 -0.46016487661E+01 -0.33863528192E+02  0.10664273949E+03  0.11198476503E+03  0.00000000000E+00 0.  1.
         11    1    1    2    0    0  0.12031556179E+03 -0.27496723674E+02  0.24957074600E+03  0.27841957812E+03  0.00000000000E+00 0. -1.
</event>
<event>
 7    1  0.2719869E-009  0.7363562E+02  0.7561462E-02  0.1348149E+00
         -4   -1    0    0    0  501 -0.00000000000E+00  0.00000000000E+00  0.33610397084E+03  0.33610397084E+03  0.00000000000E+00 0.  1.
          4   -1    0    0  501    0  0.00000000000E+00 -0.00000000000E+00 -0.37476667801E+02  0.37476667801E+02  0.00000000000E+00 0. -1.
         25    2    1    2    0    0  0.17187361475E+02 -0.13901595284E+02  0.17145749154E+03  0.21338582711E+03  0.12508868878E+03 0.  0.
          5    1    3    3  502    0 -0.68017443405E+01 -0.30519696855E+02  0.17995954272E+03  0.18270365360E+03  0.41800000000E+01 0. -1.
         -5    1    3    3    0  502  0.23989105815E+02  0.16618101571E+02 -0.85020511752E+01  0.30682173519E+02  0.41800000000E+01 0. -1.
        -11    1    1    2    0    0 -0.41079110705E+02  0.35306009767E+02  0.40072039937E+02  0.67377860211E+02  0.00000000000E+00 0. -1.
         11    1    1    2    0    0  0.23891749230E+02 -0.21404414482E+02  0.87097771560E+02  0.92816951314E+02  0.00000000000E+00 0.  1.
</event>
<event>
 7    1  0.2719869E-009  0.3052586E+03  0.7561462E-02  0.1082641E+00
          1   -1    0    0  501    0  0.00000000000E+00  0.00000000000E+00  0.14773514954E+04  0.14773514954E+04  0.00000000000E+00 0. -1.
         -1   -1    0    0    0  501 -0.00000000000E+00 -0.00000000000E+00 -0.70766632656E+02  0.70766632656E+02  0.00000000000E+00 0.  1.
         25    2    1    2    0    0 -0.17135046567E+03 -0.25025099096E+03  0.65854596189E+03  0.73574255124E+03  0.12509107569E+03 0.  0.
          5    1    3    3  502    0 -0.38552010295E+02 -0.83921951292E+02  0.34198122509E+03  0.35425666137E+03  0.41800000000E+01 0.  1.
         -5    1    3    3    0  502 -0.13279845537E+03 -0.16632903967E+03  0.31656473679E+03  0.38148588987E+03  0.41800000000E+01 0.  1.
        -11    1    1    2    0    0  0.14590625344E+03  0.18828066840E+03  0.47682340546E+03  0.53300919774E+03  0.00000000000E+00 0.  1.
         11    1    1    2    0    0  0.25444212229E+02  0.61970322564E+02  0.27121549540E+03  0.27936637908E+03  0.00000000000E+00 0. -1.
</event>
<event>
 7    1  0.2719869E-009  0.6423441E+02  0.7561462E-02  0.1380875E+00
         -3   -1    0    0    0  501 -0.00000000000E+00  0.00000000000E+00  0.10892560532E+03  0.10892560532E+03  0.00000000000E+00 0.  1.
          3   -1    0    0  501    0  0.00000000000E+00 -0.00000000000E+00 -0.10940334976E+03  0.10940334976E+03  0.00000000000E+00 0. -1.
         25    2    1    2    0    0 -0.66635427812E+01 -0.12829792980E+02  0.13849289012E+02  0.12668366299E+03  0.12509173143E+03 0.  0.
          5    1    3    3  502    0  0.29179776454E+02  0.20695315619E+02 -0.39918287739E+02  0.53765207509E+02  0.41800000000E+01 0.  1.
         -5    1    3    3    0  502 -0.35843319235E+02 -0.33525108599E+02  0.53767576751E+02  0.72918455483E+02  0.41800000000E+01 0.  1.
        -11    1    1    2    0    0  0.23094660718E+02  0.13158823406E+01  0.32966052034E+02  0.40272266968E+02  0.00000000000E+00 0.  1.
         11    1    1    2    0    0 -0.16431117937E+02  0.11513910640E+02 -0.47293085492E+02  0.51373025122E+02  0.00000000000E+00 0. -1.
</event>
<event>
 7    1  0.2719869E-009  0.7367817E+02  0.7561462E-02  0.1348014E+00
          1   -1    0    0  501    0  0.00000000000E+00  0.00000000000E+00  0.84584302879E+03  0.84584302879E+03  0.00000000000E+00 0. -1.
         -1   -1    0    0    0  501 -0.00000000000E+00 -0.00000000000E+00 -0.15783785728E+02  0.15783785728E+02  0.00000000000E+00 0.  1.
         25    2    1    2    0    0 -0.11522362553E+02 -0.24245368494E+02  0.36531231998E+03  0.38706697763E+03  0.12508857384E+03 0.  0.
          5    1    3    3  502    0 -0.40865591935E+01  0.12497319816E+02  0.34292773622E+03  0.34320516843E+03  0.41800000000E+01 0.  1.
         -5    1    3    3    0  502 -0.74358033593E+01 -0.36742688310E+02  0.22384583764E+02  0.43861809198E+02  0.41800000000E+01 0.  1.
        -11    1    1    2    0    0  0.33027169145E+02 -0.25447060667E+02  0.18839727314E+03  0.19295564082E+03  0.00000000000E+00 0.  1.
         11    1    1    2    0    0 -0.21504806592E+02  0.49692429160E+02  0.27634964994E+03  0.28160419607E+03  0.00000000000E+00 0. -1.
</event>
<event>
 7    1  0.2719869E-009  0.1242151E+03  0.7561462E-02  0.1236301E+00
         -2   -1    0    0    0  501 -0.00000000000E+00  0.00000000000E+00  0.91642673950E+02  0.91642673950E+02  0.00000000000E+00 0.  1.
          2   -1    0    0  501    0  0.00000000000E+00 -0.00000000000E+00 -0.17521732570E+03  0.17521732570E+03  0.00000000000E+00 0. -1.
         25    2    1    2    0    0 -0.24877783761E+02 -0.60722593826E+02 -0.43447144443E+02  0.14778712912E+03  0.12508894294E+03 0.  0.
          5    1    3    3  502    0 -0.48729235742E+02 -0.89467136933E+02 -0.21303872899E+02  0.10416445847E+03  0.41800000000E+01 0. -1.
         -5    1    3    3    0  502  0.23851451981E+02  0.28744543108E+02 -0.22143271544E+02  0.43622670651E+02  0.41800000000E+01 0. -1.
        -11    1    1    2    0    0  0.53889668027E+02  0.17182887237E+02 -0.66343787191E+01  0.56950530418E+02  0.00000000000E+00 0.  1.
         11    1    1    2    0    0 -0.29011884267E+02  0.43539706589E+02 -0.33493128587E+02  0.62122340113E+02  0.00000000000E+00 0. -1.
</event>
<event>
 7    1  0.2719869E-009  0.1976794E+03  0.7561462E-02  0.1151712E+00
         -1   -1    0    0    0  501 -0.00000000000E+00  0.00000000000E+00  0.75220693811E+03  0.75220693811E+03  0.00000000000E+00 0.  1.
          1   -1    0    0  501    0  0.00000000000E+00 -0.00000000000E+00 -0.59037028534E+02  0.59037028534E+02  0.00000000000E+00 0. -1.
         25    2    1    2    0    0  0.32144766531E+02 -0.17651232517E+03  0.32565261148E+03  0.39228338258E+03  0.12508693750E+03 0.  0.
          5    1    3    3  502    0  0.62299985047E+02 -0.14275492162E+03  0.30470391020E+03  0.34223120996E+03  0.41800000000E+01 0.  1.
         -5    1    3    3    0  502 -0.30155218516E+02 -0.33757403549E+02  0.20948701280E+02  0.50052172615E+02  0.41800000000E+01 0.  1.
        -11    1    1    2    0    0 -0.28454265174E+02  0.14320742710E+02  0.11070627796E+03  0.11519812871E+03  0.00000000000E+00 0.  1.
         11    1    1    2    0    0 -0.36905013572E+01  0.16219158246E+03  0.25681102014E+03  0.30376245536E+03  0.00000000000E+00 0. -1.
</event>
<event>
 7    1  0.2719869E-009  0.1121023E+03  0.7561462E-02  0.1256726E+00
          1   -1    0    0  501    0  0.00000000000E+00  0.00000000000E+00  0.22966377529E+03  0.22966377529E+03  0.00000000000E+00 0. -1.
         -1   -1    0    0    0  501 -0.00000000000E+00 -0.00000000000E+00 -0.74336568129E+02  0.74336568129E+02  0.00000000000E+00 0.  1.
         25    2    1    2    0    0 -0.62083551841E+02 -0.24651606556E+02  0.53151317685E+02  0.15143842698E+03  0.12508583245E+03 0.  0.
          5    1    3    3  502    0 -0.63123809201E+02  0.24280850037E+02  0.71956488532E+02  0.98840192272E+02  0.41800000000E+01 0. -1.
         -5    1    3    3    0  502  0.10402573592E+01 -0.48932456594E+02 -0.18805170847E+02  0.52598234706E+02  0.41800000000E+01 0. -1.
        -11    1    1    2    0    0  0.78033310926E+02  0.87808565366E-01  0.49849941521E+02  0.92597094954E+02  0.00000000000E+00 0.  1.
         11    1    1    2    0    0 -0.15949759084E+02  0.24563797991E+02  0.52325947955E+02  0.59964821487E+02  0.00000000000E+00 0. -1.
</event>
<event>
 7    1  0.2719869E-009  0.9708419E+02  0.7561462E-02  0.1286550E+00
          1   -1    0    0  501    0  0.00000000000E+00  0.00000000000E+00  0.31061842348E+03  0.31061842348E+03  0.00000000000E+00 0. -1.
         -1   -1    0    0    0  501 -0.00000000000E+00 -0.00000000000E+00 -0.55860638373E+02  0.55860638373E+02  0.00000000000E+00 0.  1.
         25    2    1    2    0    0 -0.71504684538E+02 -0.78242730589E+01  0.11825298962E+03  0.18656093764E+03  0.12508826779E+03 0.  0.
          5    1    3    3  502    0 -0.13172544754E+02  0.17607356621E+02  0.12068437759E+03  0.12274252049E+03  0.41800000000E+01 0. -1.
         -5    1    3    3    0  502 -0.58332139783E+02 -0.25431629680E+02 -0.24313879671E+01  0.63818417148E+02  0.41800000000E+01 0. -1.
        -11    1    1    2    0    0 -0.15027897060E+01  0.31290844135E+02  0.11708881682E+02  0.33443582551E+02  0.00000000000E+00 0. -1.
         11    1    1    2    0    0  0.73007474244E+02 -0.23466571076E+02  0.12479591380E+03  0.14647454166E+03  0.00000000000E+00 0.  1.
</event>
<event>
 7    1  0.2719869E-009  0.1560201E+03  0.7561462E-02  0.1193265E+00
          2   -1    0    0  501    0  0.00000000000E+00  0.00000000000E+00  0.15964455571E+04  0.15964455571E+04  0.00000000000E+00 0. -1.
         -2   -1    0    0    0  501 -0.00000000000E+00 -0.00000000000E+00 -0.19032549436E+02  0.19032549436E+02  0.00000000000E+00 0.  1.
         25    2    1    2    0    0 -0.86278166010E+02 -0.70680187695E+02  0.11636706509E+04  0.11756771905E+04  0.12509141275E+03 0.  0.
          5    1    3    3  502    0 -0.63688880391E+02  0.22247253137E+02  0.35658744680E+03  0.36293703776E+03  0.41800000000E+01 0. -1.
         -5    1    3    3    0  502 -0.22589285619E+02 -0.92927440832E+02  0.80708320413E+03  0.81274015274E+03  0.41800000000E+01 0. -1.
        -11    1    1    2    0    0  0.96580582946E+01 -0.24617186153E+02  0.61751689464E+02  0.67175554301E+02  0.00000000000E+00 0.  1.
         11    1    1    2    0    0  0.76620107715E+02  0.95297373847E+02  0.35199066727E+03  0.37262536174E+03  0.00000000000E+00 0. -1.
</event>
<event>
 7    1  0.2719869E-009  0.1178592E+03  0.7561462E-02  0.1246671E+00
         -2   -1    0    0    0  501 -0.00000000000E+00  0.00000000000E+00  0.48958790575E+03  0.48958790575E+03  0.00000000000E+00 0.  1.
          2   -1    0    0  501    0  0.00000000000E+00 -0.00000000000E+00 -0.33251618338E+02  0.33251618338E+02  0.00000000000E+00 0. -1.
         25    2    1    2    0    0  0.57280659179E+02  0.31623392292E+02  0.26423641834E+03  0.29957781763E+03  0.12507945947E+03 0.  0.
          5    1    3    3  502    0  0.65035506127E+02  0.72034294100E+02  0.20992822026E+03  0.23131339487E+03  0.41800000000E+01 0. -1.
         -5    1    3    3    0  502 -0.77548469478E+01 -0.40410901808E+02  0.54308198081E+02  0.68264422761E+02  0.41800000000E+01 0. -1.
        -11    1    1    2    0    0 -0.74372311932E+02 -0.29445753295E+02  0.92965817759E+02  0.12264149559E+03  0.00000000000E+00 0. -1.
         11    1    1    2    0    0  0.17091652753E+02 -0.21776389978E+01  0.99134051309E+02  0.10062021086E+03  0.00000000000E+00 0.  1.
</event>
<event>
 7    1  0.2719869E-009  0.1196932E+03  0.7561462E-02  0.1243604E+00
          1   -1    0    0  501    0  0.00000000000E+00  0.00000000000E+00  0.25291074842E+03  0.25291074842E+03  0.00000000000E+00 0. -1.
         -1   -1    0    0    0  501 -0.00000000000E+00 -0.00000000000E+00 -0.65438970484E+02  0.65438970484E+02  0.00000000000E+00 0.  1.
         25    2    1    2    0    0 -0.29440966052E+02  0.50438364644E+02  0.55840580876E+02  0.14891808433E+03  0.12509047229E+03 0.  0.
          5    1    3    3  502    0 -0.45687062241E+02 -0.30223172287E+02  0.14921708514E+02  0.56928706153E+02  0.41800000000E+01 0. -1.
         -5    1    3    3    0  502  0.16246096189E+02  0.80661536931E+02  0.40918872362E+02  0.91989378174E+02  0.41800000000E+01 0. -1.
        -11    1    1    2    0    0  0.16133147165E+02  0.22629046211E+02  0.60574307427E+02  0.66645321592E+02  0.00000000000E+00 0. -1.
         11    1    1    2    0    0  0.13307818887E+02 -0.73067410855E+02  0.71056889631E+02  0.10278631298E+03  0.00000000000E+00 0.  1.
</event>
<event>
 7    1  0.2719869E-009  0.1169983E+03  0.7561462E-02  0.1248133E+00
         -1   -1    0    0    0  501 -0.00000000000E+00  0.00000000000E+00  0.10490973861E+03  0.10490973861E+03  0.00000000000E+00 0.  1.
          1   -1    0    0  501    0  0.00000000000E+00 -0.00000000000E+00 -0.23889180109E+03  0.23889180109E+03  0.00000000000E+00 0. -1.
         25    2    1    2    0    0 -0.61726250862E+02  0.66875813150E+02  0.39915713502E+01  0.15474598378E+03  0.12509149621E+03 0.  0.
          5    1    3    3  502    0 -0.24189636533E+02  0.65391825527E+02  0.56645482063E+02  0.89930041696E+02  0.41800000000E+01 0.  1.
         -5    1    3    3    0  502 -0.37536614329E+02  0.14839876233E+01 -0.52653910713E+02  0.64815942082E+02  0.41800000000E+01 0.  1.
        -11    1    1    2    0    0  0.49793159461E+02  0.80859225369E+01 -0.36187514683E+02  0.62082824447E+02  0.00000000000E+00 0.  1.
         11    1    1    2    0    0  0.11933091401E+02 -0.74961735687E+02 -0.10178611915E+03  0.12697273148E+03  0.00000000000E+00 0. -1.
</event>
<event>
 7    1  0.2719869E-009  0.1374843E+03  0.7561462E-02  0.1216755E+00
          4   -1    0    0  501    0  0.00000000000E+00  0.00000000000E+00  0.25487816005E+03  0.25487816005E+03  0.00000000000E+00 0. -1.
         -4   -1    0    0    0  501 -0.00000000000E+00 -0.00000000000E+00 -0.12888654218E+03  0.12888654218E+03  0.00000000000E+00 0.  1.
         25    2    1    2    0    0 -0.80330296741E+02  0.95044797232E+02 -0.11388741561E+02  0.17681565683E+03  0.12509037937E+03 0.  0.
          5    1    3    3  502    0 -0.35656848389E+02  0.39004640382E+01  0.47286423201E+02  0.59498761969E+02  0.41800000000E+01 0.  1.
         -5    1    3    3    0  502 -0.44673448352E+02  0.91144333194E+02 -0.58675164762E+02  0.11731689487E+03  0.41800000000E+01 0.  1.
        -11    1    1    2    0    0  0.71692097860E+02 -0.41106232558E+02  0.12673042729E+03  0.15129468085E+03  0.00000000000E+00 0. -1.
         11    1    1    2    0    0  0.86381988808E+01 -0.53938564674E+02  0.10649932133E+02  0.55654364550E+02  0.00000000000E+00 0.  1.
</event>
<event>
 7    1  0.2719869E-009  0.1043509E+03  0.7561462E-02  0.1271404E+00
          3   -1    0    0  501    0  0.00000000000E+00  0.00000000000E+00  0.48108708398E+02  0.48108708398E+02  0.00000000000E+00 0. -1.
         -3   -1    0    0    0  501 -0.00000000000E+00 -0.00000000000E+00 -0.31636722867E+03  0.31636722867E+03  0.00000000000E+00 0.  1.
         25    2    1    2    0    0 -0.15261221107E+02  0.53104427533E+02 -0.12973910060E+03  0.18849465327E+03  0.12508003434E+03 0.  0.
          5    1    3    3  502    0 -0.46490481877E+02  0.81631355189E+02 -0.84527565096E+02  0.12644138846E+03  0.41800000000E+01 0.  1.
         -5    1    3    3    0  502  0.31229260770E+02 -0.28526927656E+02 -0.45211535509E+02  0.62053264803E+02  0.41800000000E+01 0.  1.
        -11    1    1    2    0    0  0.28609651993E+02 -0.16106837258E+02 -0.89225905181E+00  0.32844155033E+02  0.00000000000E+00 0. -1.
         11    1    1    2    0    0 -0.13348430886E+02 -0.36997590275E+02 -0.13762716061E+03  0.14313712876E+03  0.00000000000E+00 0.  1.
</event>
<event>
 7    1  0.2719869E-009  0.1215250E+03  0.7561462E-02  0.1240602E+00
          1   -1    0    0  501    0  0.00000000000E+00  0.00000000000E+00  0.78326329194E+03  0.78326329194E+03  0.00000000000E+00 0. -1.
         -1   -1    0    0    0  501 -0.00000000000E+00 -0.00000000000E+00 -0.23850552795E+02  0.23850552795E+02  0.00000000000E+00 0.  1.
         25    2    1    2    0    0  0.29371365425E+02 -0.69070222831E+02  0.31216005632E+03  0.34456737531E+03  0.12509757223E+03 0.  0.
          5    1    3    3  502    0  0.56760699861E+02  0.67639893251E+01  0.18734221550E+03  0.19591351844E+03  0.41800000000E+01 0.  1.
         -5    1    3    3    0  502 -0.27389334436E+02 -0.75834212156E+02  0.12481784082E+03  0.14865385687E+03  0.41800000000E+01 0.  1.
        -11    1    1    2    0    0 -0.46307164650E+01 -0.15867973957E+02  0.18703762596E+02  0.24961307412E+02  0.00000000000E+00 0.  1.
         11    1    1    2    0    0 -0.24740648960E+02  0.84938196787E+02  0.42854892023E+03  0.43758516202E+03  0.00000000000E+00 0. -1.
</event>
<event>
 7    1  0.2719869E-009  0.1331648E+03  0.7561462E-02  0.1222834E+00
          3   -1    0    0  501    0  0.00000000000E+00  0.00000000000E+00  0.53954260484E+02  0.53954260484E+02  0.00000000000E+00 0. -1.
         -3   -1    0    0    0  501 -0.00000000000E+00 -0.00000000000E+00 -0.36434760184E+03  0.36434760184E+03  0.00000000000E+00 0.  1.
         25    2    1    2    0    0 -0.77951083501E+02 -0.63436045421E+01 -0.13740647213E+03  0.20160411347E+03  0.12508823785E+03 0.  0.
          5    1    3    3  502    0 -0.90571740430E+02  0.34660696368E+02 -0.12182841101E+03  0.15576982431E+03  0.41800000000E+01 0. -1.
         -5    1    3    3    0  502  0.12620656928E+02 -0.41004300910E+02 -0.15578061116E+02  0.45834289157E+02  0.41800000000E+01 0. -1.
        -11    1    1    2    0    0  0.61387058102E+02 -0.42445447191E+02 -0.73976906691E+02  0.10508363152E+03  0.00000000000E+00 0. -1.
         11    1    1    2    0    0  0.16564025399E+02  0.48789051733E+02 -0.99009962536E+02  0.11161411733E+03  0.00000000000E+00 0.  1.
</event>
<event>
 7    1  0.2719869E-009  0.1038609E+03  0.7561462E-02  0.1272380E+00
          2   -1    0    0  501    0  0.00000000000E+00  0.00000000000E+00  0.32186741151E+03  0.32186741151E+03  0.00000000000E+00 0.  1.
         -2   -1    0    0    0  501 -0.00000000000E+00 -0.00000000000E+00 -0.40956702023E+02  0.40956702023E+02  0.00000000000E+00 0. -1.
         25    2    1    2    0    0 -0.11668628792E+02 -0.31708751048E+02  0.13708747957E+03  0.18863335418E+03  0.12509182013E+03 0.  0.
          5    1    3    3  502    0  0.23945748164E+02  0.33739888996E+02  0.12531357742E+02  0.43431397531E+02  0.41800000000E+01 0.  1.
         -5    1    3    3    0  502 -0.35614376957E+02 -0.65448640044E+02  0.12455612183E+03  0.14520195665E+03  0.41800000000E+01 0.  1.
        -11    1    1    2    0    0  0.48064226045E+02  0.98791807754E+01  0.44750970138E+02  0.66410973238E+02  0.00000000000E+00 0. -1.
         11    1    1    2    0    0 -0.36395597253E+02  0.21829570272E+02  0.99072259781E+02  0.10777978612E+03  0.00000000000E+00 0.  1.
</event>
<event>
 7    1  0.2719869E-009  0.7147478E+02  0.7561462E-02  0.1355149E+00
         -2   -1    0    0    0  501 -0.00000000000E+00  0.00000000000E+00  0.31391075833E+03  0.31391075833E+03  0.00000000000E+00 0.  1.
          2   -1    0    0  501    0  0.00000000000E+00 -0.00000000000E+00 -0.43114205645E+02  0.43114205645E+02  0.00000000000E+00 0. -1.
         25    2    1    2    0    0 -0.14263270940E+02  0.11070272234E+02  0.21502670889E+03  0.24941976110E+03  0.12509092639E+03 0.  0.
          5    1    3    3  502    0  0.12839314688E+02 -0.11690024068E+02  0.21297541542E+03  0.21372296236E+03  0.41800000000E+01 0. -1.
         -5    1    3    3    0  502 -0.27102585628E+02  0.22760296302E+02  0.20512934684E+01  0.35696798741E+02  0.41800000000E+01 0. -1.
        -11    1    1    2    0    0  0.11464608905E+01 -0.49156652945E+02  0.17927822583E+02  0.52336390054E+02  0.00000000000E+00 0. -1.
         11    1    1    2    0    0  0.13116810050E+02  0.38086380710E+02  0.37842021210E+02  0.55268812822E+02  0.00000000000E+00 0.  1.
</event>
<event>
 7    1  0.2719869E-009  0.1176790E+03  0.7561462E-02  0.1246976E+00
         -2   -1    0    0    0  501 -0.00000000000E+00  0.00000000000E+00  0.20373739577E+02  0.20373739577E+02  0.00000000000E+00 0.  1.
          2   -1    0    0  501    0  0.00000000000E+00 -0.00000000000E+00 -0.10834107219E+04  0.10834107219E+04  0.00000000000E+00 0. -1.
         25    2    1    2    0    0  0.58003852787E+02  0.64013148715E+02 -0.54910581791E+03  0.56976572413E+03  0.12511455142E+03 0.  0.
          5    1    3    3  502    0  0.22604307971E+02  0.43380604348E+02 -0.51194277046E+03  0.51429145841E+03  0.41800000000E+01 0. -1.
         -5    1    3    3    0  502  0.35399544815E+02  0.20632544366E+02 -0.37163047454E+02  0.55474265712E+02  0.41800000000E+01 0. -1.
        -11    1    1    2    0    0 -0.90152712789E+02 -0.67665140843E+02 -0.39643540487E+03  0.41214938207E+03  0.00000000000E+00 0.  1.
         11    1    1    2    0    0  0.32148860002E+02  0.36519921285E+01 -0.11749575950E+03  0.12186935524E+03  0.00000000000E+00 0. -1.
</event>
<event>
 7    1  0.2719869E-009  0.8967556E+02  0.7561462E-02  0.1303639E+00
          1   -1    0    0  501    0  0.00000000000E+00  0.00000000000E+00  0.10586275904E+03  0.10586275904E+03  0.00000000000E+00 0. -1.
         -1   -1    0    0    0  501 -0.00000000000E+00 -0.00000000000E+00 -0.11358202000E+03  0.11358202000E+03  0.00000000000E+00 0.  1.
         25    2    1    2    0    0  0.80411056027E+00  0.16536781299E+02 -0.15839514971E+02  0.12717163935E+03  0.12509046283E+03 0.  0.
          5    1    3    3  502    0 -0.57687102735E+02 -0.11506318720E+02 -0.19379616064E+02  0.62074464245E+02  0.41800000000E+01 0. -1.
         -5    1    3    3    0  502  0.58491213296E+02  0.28043100019E+02  0.35401010923E+01  0.65097175109E+02  0.41800000000E+01 0. -1.
        -11    1    1    2    0    0 -0.17221483319E+02 -0.29702636434E+02 -0.32021874247E+02  0.46949190931E+02  0.00000000000E+00 0.  1.
         11    1    1    2    0    0  0.16417372759E+02  0.13165855134E+02  0.40142128259E+02  0.45323948757E+02  0.00000000000E+00 0. -1.
</event>
<event>
 7    1  0.2719869E-009  0.9560495E+02  0.7561462E-02  0.1289819E+00
          1   -1    0    0  501    0  0.00000000000E+00  0.00000000000E+00  0.18147909643E+03  0.18147909643E+03  0.00000000000E+00 0. -1.
         -1   -1    0    0    0  501 -0.00000000000E+00 -0.00000000000E+00 -0.80862724972E+02  0.80862724972E+02  0.00000000000E+00 0.  1.
         25    2    1    2    0    0  0.15920837339E+02 -0.26923859849E+02  0.12789936636E+02  0.12957952511E+03  0.12509557769E+03 0.  0.
          5    1    3    3  502    0 -0.50442013162E+02 -0.13040788755E+02  0.28958085126E+02  0.59753677354E+02  0.41800000000E+01 0. -1.
         -5    1    3    3    0  502  0.66362850501E+02 -0.13883071093E+02 -0.16168148490E+02  0.69825847759E+02  0.41800000000E+01 0. -1.
        -11    1    1    2    0    0 -0.24453955505E+02  0.44893170012E+02  0.95601382188E+01  0.52007584988E+02  0.00000000000E+00 0.  1.
         11    1    1    2    0    0  0.85331181659E+01 -0.17969310163E+02  0.78266296599E+02  0.80754711297E+02  0.00000000000E+00 0. -1.
</event>
<event>
 7    1  0.2719869E-009  0.9336092E+02  0.7561462E-02  0.1294911E+00
         -1   -1    0    0    0  501 -0.00000000000E+00  0.00000000000E+00  0.10013826733E+02  0.10013826733E+02  0.00000000000E+00 0. -1.
          1   -1    0    0  501    0  0.00000000000E+00 -0.00000000000E+00 -0.13238490071E+04  0.13238490071E+04  0.00000000000E+00 0.  1.
         25    2    1    2    0    0 -0.33283094495E+02  0.22068803932E+02 -0.80206379516E+03  0.81274135886E+03  0.12508952155E+03 0.  0.
          5    1    3    3  502    0 -0.55201345539E+02 -0.31955055296E+01 -0.15190890565E+03  0.16171328894E+03  0.41800000000E+01 0.  1.
         -5    1    3    3    0  502  0.21918251044E+02  0.25264309462E+02 -0.65015488951E+03  0.65102806992E+03  0.41800000000E+01 0.  1.
        -11    1    1    2    0    0 -0.96371121026E+01 -0.46965996624E+02 -0.28281935341E+03  0.28685443247E+03  0.00000000000E+00 0.  1.
         11    1    1    2    0    0  0.42920206598E+02  0.24897192691E+02 -0.22895203184E+03  0.23426704254E+03  0.00000000000E+00 0. -1.
</event>
<event>
 7    1  0.2719869E-009  0.8701033E+02  0.7561462E-02  0.1310257E+00
          3   -1    0    0  501    0  0.00000000000E+00  0.00000000000E+00  0.47462996067E+02  0.47462996067E+02  0.00000000000E+00 0. -1.
         -3   -1    0    0    0  501 -0.00000000000E+00 -0.00000000000E+00 -0.31532569387E+03  0.31532569387E+03  0.00000000000E+00 0.  1.
         25    2    1    2    0    0  0.43415935577E+02  0.33282711994E+02 -0.13602430949E+03  0.19272577256E+03  0.12509167940E+03 0.  0.
          5    1    3    3  502    0  0.13443431177E+02  0.46189017206E+02  0.44112592355E+01  0.48487965108E+02  0.41800000000E+01 0. -1.
         -5    1    3    3    0  502  0.29972504399E+02 -0.12906305212E+02 -0.14043556872E+03  0.14423780745E+03  0.41800000000E+01 0. -1.
        -11    1    1    2    0    0  0.16767118709E+01 -0.45962046936E+02 -0.10825439662E+03  0.11761945208E+03  0.00000000000E+00 0.  1.
         11    1    1    2    0    0 -0.45092647447E+02  0.12679334941E+02 -0.23583991698E+02  0.52443465301E+02  0.00000000000E+00 0. -1.
</event>
<event>
 7    1  0.2719869E-009  0.1232510E+03  0.7561462E-02  0.1237828E+00
          1   -1    0    0  501    0  0.00000000000E+00  0.00000000000E+00  0.55814929528E+02  0.55814929528E+02  0.00000000000E+00 0. -1.
         -1   -1    0    0    0  501 -0.00000000000E+00 -0.00000000000E+00 -0.38839671161E+03  0.38839671161E+03  0.00000000000E+00 0.  1.
         25    2    1    2    0    0 -0.64955099467E+02  0.48572106014E+02 -0.26754577349E+03  0.30628023509E+03  0.12509367316E+03 0.  0.
          5    1    3    3  502    0  0.13575166666E+02 -0.32577115724E+02 -0.53345696424E+02  0.64099838891E+02  0.41800000000E+01 0. -1.
         -5    1    3    3    0  502 -0.78530266132E+02  0.81149221738E+02 -0.21420007706E+03  0.24218039619E+03  0.41800000000E+01 0. -1.
        -11    1    1    2    0    0  0.56021444090E+02 -0.82085971213E+01 -0.76366536331E+02  0.95066456417E+02  0.00000000000E+00 0.  1.
         11    1    1    2    0    0  0.89336553772E+01 -0.40363508893E+02  0.11330527734E+02  0.42864949636E+02  0.00000000000E+00 0. -1.
</event>
<event>
 7    1  0.2930066E-009  0.1625831E+03  0.7561462E-02  0.1185811E+00
          1   -1    0    0  501    0  0.00000000000E+00  0.00000000000E+00  0.13317659711E+04  0.13317659711E+04  0.00000000000E+00 0. -1.
         -1   -1    0    0    0  501 -0.00000000000E+00 -0.00000000000E+00 -0.20132971678E+02  0.20132971678E+02  0.00000000000E+00 0.  1.
         25    2    1    2    0    0 -0.30126947856E+02  0.11750304583E+03  0.73779104197E+03  0.75808855064E+03  0.12509208702E+03 0.  0.
          5    1    3    3  502    0  0.45121210883E+02  0.17933931533E+02  0.17910789192E+03  0.18561966200E+03  0.41800000000E+01 0.  1.
         -5    1    3    3    0  502 -0.75248158739E+02  0.99569114297E+02  0.55868315005E+03  0.57246888864E+03  0.41800000000E+01 0.  1.
        -11    1    1    2    0    0 -0.26335685913E+02 -0.78848746541E+02  0.35037796374E+03  0.36010472179E+03  0.00000000000E+00 0.  1.
         11    1    1    2    0    0  0.56462633769E+02 -0.38654299289E+02  0.22346399374E+03  0.23370567038E+03  0.00000000000E+00 0. -1.
</event>
<event>
 7    1  0.2719869E-009  0.1418398E+03  0.7561462E-02  0.1210875E+00
         -1   -1    0    0    0  501 -0.00000000000E+00  0.00000000000E+00  0.70236763088E+03  0.70236763088E+03  0.00000000000E+00 0.  1.
          1   -1    0    0  501    0  0.00000000000E+00 -0.00000000000E+00 -0.42039307518E+02  0.42039307518E+02  0.00000000000E+00 0. -1.
         25    2    1    2    0    0 -0.89308731154E+02 -0.49402995545E+02  0.16555150270E+03  0.23124046559E+03  0.12509255553E+03 0.  0.
          5    1    3    3  502    0  0.24842720868E+02 -0.23788560546E+02  0.77065057062E+02  0.84495868615E+02  0.41800000000E+01 0. -1.
         -5    1    3    3    0  502 -0.11415145202E+03 -0.25614434998E+02  0.88486445634E+02  0.14674459697E+03  0.41800000000E+01 0. -1.
        -11    1    1    2    0    0 -0.10435014563E+02  0.28097288803E+02  0.17407580025E+03  0.17663728768E+03  0.00000000000E+00 0.  1.
         11    1    1    2    0    0  0.99743745717E+02  0.21305706742E+02  0.32070102041E+03  0.33652918513E+03  0.00000000000E+00 0. -1.
</event>
<event>
 7    1  0.2719869E-009  0.1054797E+03  0.7561462E-02  0.1269177E+00
         -1   -1    0    0    0  501 -0.00000000000E+00  0.00000000000E+00  0.22723062463E+03  0.22723062463E+03  0.00000000000E+00 0.  1.
          1   -1    0    0  501    0  0.00000000000E+00 -0.00000000000E+00 -0.75342732520E+02  0.75342732520E+02  0.00000000000E+00 0. -1.
         25    2    1    2    0    0 -0.36712986494E+02 -0.27082779523E+02  0.17840022568E+02  0.13434029955E+03  0.12509088437E+03 0.  0.
          5    1    3    3  502    0  0.18222371383E+02 -0.56382824739E+02 -0.18391591985E+02  0.62183605557E+02  0.41800000000E+01 0. -1.
         -5    1    3    3    0  502 -0.54935357877E+02  0.29300045216E+02  0.36231614553E+02  0.72156693992E+02  0.41800000000E+01 0. -1.
        -11    1    1    2    0    0  0.60585205388E+02  0.15063180836E+02  0.12550295560E+03  0.14017295885E+03  0.00000000000E+00 0.  1.
         11    1    1    2    0    0 -0.23872218894E+02  0.12019598686E+02  0.85449139424E+01  0.28060098748E+02  0.00000000000E+00 0. -1.
</event>
<event>
 7    1  0.2719869E-009  0.1113863E+03  0.7561462E-02  0.1258024E+00
          3   -1    0    0  501    0  0.00000000000E+00  0.00000000000E+00  0.25991338372E+02  0.25991338372E+02  0.00000000000E+00 0. -1.
         -3   -1    0    0    0  501 -0.00000000000E+00 -0.00000000000E+00 -0.54966406352E+03  0.54966406352E+03  0.00000000000E+00 0.  1.
         25    2    1    2    0    0 -0.12119567357E+01 -0.43443447924E+02 -0.23481611242E+03  0.26958174626E+03  0.12508760632E+03 0.  0.
          5    1    3    3  502    0 -0.56136298595E+02 -0.77509828632E+01 -0.59000880331E+02  0.81914211436E+02  0.41800000000E+01 0.  1.
         -5    1    3    3    0  502  0.54924341859E+02 -0.35692465061E+02 -0.17581523209E+03  0.18766753482E+03  0.41800000000E+01 0.  1.
        -11    1    1    2    0    0  0.13465730607E+02  0.69885109915E+02 -0.18541313037E+03  0.19860333180E+03  0.00000000000E+00 0.  1.
         11    1    1    2    0    0 -0.12253773871E+02 -0.26441661991E+02 -0.10344348236E+03  0.10747032384E+03  0.00000000000E+00 0. -1.
</event>
<event>
 7    1  0.2719869E-009  0.1104276E+03  0.7561462E-02  0.1259780E+00
          2   -1    0    0  501    0  0.00000000000E+00  0.00000000000E+00  0.21266748518E+03  0.21266748518E+03  0.00000000000E+00 0. -1.
         -2   -1    0    0    0  501 -0.00000000000E+00 -0.00000000000E+00 -0.78566117220E+02  0.78566117220E+02  0.00000000000E+00 0.  1.
         25    2    1    2    0    0  0.16941838604E+02  0.66403388370E+02  0.55835020376E+02  0.15315978667E+03  0.12507571654E+03 0.  0.
          5    1    3    3  502    0  0.29520279784E+02 -0.88449410300E+01  0.68946852604E+02  0.75636107675E+02  0.41800000000E+01 0. -1.
         -5    1    3    3    0  502 -0.12578441180E+02  0.75248329400E+02 -0.13111832228E+02  0.77523678991E+02  0.41800000000E+01 0. -1.
        -11    1    1    2    0    0  0.37448609116E+02 -0.25827505930E+02  0.37131607254E+02  0.58721500701E+02  0.00000000000E+00 0. -1.
         11    1    1    2    0    0 -0.54390447720E+02 -0.40575882440E+02  0.41134740329E+02  0.79352315032E+02  0.00000000000E+00 0.  1.
</event>
<event>
 7    1  0.2719869E-009  0.1166079E+03  0.7561462E-02  0.1248800E+00
          3   -1    0    0  501    0  0.00000000000E+00  0.00000000000E+00  0.21948736395E+02  0.21948736395E+02  0.00000000000E+00 0. -1.
         -3   -1    0    0    0  501 -0.00000000000E+00 -0.00000000000E+00 -0.70685533998E+03  0.70685533998E+03  0.00000000000E+00 0.  1.
         25    2    1    2    0    0  0.51372776012E+02 -0.12271309237E+02 -0.46677615317E+03  0.48612511102E+03  0.12509156349E+03 0.  0.
          5    1    3    3  502    0 -0.41699531546E+02 -0.34160065389E+01 -0.15553181589E+03  0.16111529469E+03  0.41800000000E+01 0.  1.
         -5    1    3    3    0  502  0.93072307558E+02 -0.88553026981E+01 -0.31124433728E+03  0.32500981633E+03  0.41800000000E+01 0.  1.
        -11    1    1    2    0    0 -0.74026769028E+02  0.72717002966E+01 -0.19953021268E+03  0.21294399717E+03  0.00000000000E+00 0.  1.
         11    1    1    2    0    0  0.22653993016E+02  0.49996089404E+01 -0.18600237743E+02  0.29734968189E+02  0.00000000000E+00 0. -1.
</event>
<event>
 7    1  0.2719869E-009  0.1064335E+03  0.7561462E-02  0.1267321E+00
         -1   -1    0    0    0  501 -0.00000000000E+00  0.00000000000E+00  0.59139162213E+02  0.59139162213E+02  0.00000000000E+00 0.  1.
          1   -1    0    0  501    0  0.00000000000E+00 -0.00000000000E+00 -0.21221685905E+03  0.21221685905E+03  0.00000000000E+00 0. -1.
         25    2    1    2    0    0  0.29900631074E+01 -0.25759453302E+02 -0.98404408659E+02  0.16125600335E+03  0.12509029163E+03 0.  0.
          5    1    3    3  502    0 -0.60470580135E+02 -0.97586427066E+01 -0.56460482338E+02  0.83409715472E+02  0.41800000000E+01 0.  1.
         -5    1    3    3    0  502  0.63460643243E+02 -0.16000810595E+02 -0.41943926321E+02  0.77846287874E+02  0.41800000000E+01 0.  1.
        -11    1    1    2    0    0 -0.41677448723E+02  0.21709304023E+02 -0.53687078825E+01  0.47298273092E+02  0.00000000000E+00 0.  1.
         11    1    1    2    0    0  0.38687385615E+02  0.40501492793E+01 -0.49304580301E+02  0.62801744829E+02  0.00000000000E+00 0. -1.
</event>
<event>
 7    1  0.2778598E-009  0.1673055E+03  0.7561462E-02  0.1180687E+00
          3   -1    0    0  501    0  0.00000000000E+00  0.00000000000E+00  0.25394867872E+03  0.25394867872E+03  0.00000000000E+00 0. -1.
         -3   -1    0    0    0  501 -0.00000000000E+00 -0.00000000000E+00 -0.15373572588E+03  0.15373572588E+03  0.00000000000E+00 0.  1.
         25    2    1    2    0    0 -0.15659526539E+03 -0.46837912957E+02  0.31071573609E+02  0.20815536335E+03  0.12508934955E+03 0.  0.
          5    1    3    3  502    0 -0.61376918491E+02 -0.22030585560E+02  0.75723737383E+02  0.10002014610E+03  0.41800000000E+01 0. -1.
         -5    1    3    3    0  502 -0.95218346898E+02 -0.24807327397E+02 -0.44652163773E+02  0.10813521724E+03  0.41800000000E+01 0. -1.
        -11    1    1    2    0    0  0.14475625927E+02  0.22257869757E+02  0.46481548276E+02  0.53530279676E+02  0.00000000000E+00 0. -1.
         11    1    1    2    0    0  0.14211963946E+03  0.24580043200E+02  0.22659830952E+02  0.14599876158E+03  0.00000000000E+00 0.  1.
</event>
<event>
 7    1  0.2719869E-009  0.1310311E+03  0.7561462E-02  0.1225934E+00
          2   -1    0    0  501    0  0.00000000000E+00  0.00000000000E+00  0.59074105307E+03  0.59074105307E+03  0.00000000000E+00 0. -1.
         -2   -1    0    0    0  501 -0.00000000000E+00 -0.00000000000E+00 -0.34297683619E+02  0.34297683619E+02  0.00000000000E+00 0.  1.
         25    2    1    2    0    0  0.89877612929E+02  0.49232845642E+00  0.25760132738E+03  0.30013534021E+03  0.12507817908E+03 0.  0.
          5    1    3    3  502    0 -0.23779701094E+02  0.74852832875E+01  0.11424767592E+03  0.11701071534E+03  0.41800000000E+01 0. -1.
         -5    1    3    3    0  502  0.11365731402E+03 -0.69929548311E+01  0.14335365146E+03  0.18312462487E+03  0.41800000000E+01 0. -1.
        -11    1    1    2    0    0 -0.97509899262E+02  0.21244539197E+02  0.27084664054E+03  0.28864755947E+03  0.00000000000E+00 0.  1.
         11    1    1    2    0    0  0.76322863330E+01 -0.21736867654E+02  0.27995401539E+02  0.36255837012E+02  0.00000000000E+00 0. -1.
</event>
<event>
 7    1  0.2719869E-009  0.1308938E+03  0.7561462E-02  0.1226135E+00
         -1   -1    0    0    0  501 -0.00000000000E+00  0.00000000000E+00  0.46341017670E+02  0.46341017670E+02  0.00000000000E+00 0.  1.
          1   -1    0    0  501    0  0.00000000000E+00 -0.00000000000E+00 -0.61133015724E+03  0.61133015724E+03  0.00000000000E+00 0. -1.
         25    2    1    2    0    0 -0.34158208066E+02  0.12321424082E+03 -0.31456154544E+03  0.36186145712E+03  0.12508483505E+03 0.  0.
          5    1    3    3  502    0 -0.30604724266E+02  0.12065547383E+03 -0.32596625931E+03  0.34894966273E+03  0.41800000000E+01 0.  1.
         -5    1    3    3    0  502 -0.35534838000E+01  0.25587669916E+01  0.11404713875E+02  0.12911794384E+02  0.41800000000E+01 0.  1.
        -11    1    1    2    0    0  0.39096840933E+02 -0.98326372581E+02 -0.24882085966E+03  0.27038575909E+03  0.00000000000E+00 0. -1.
         11    1    1    2    0    0 -0.49386328662E+01 -0.24887868240E+02 -0.16067344661E+01  0.25423958696E+02  0.00000000000E+00 0.  1.
</event>
<event>
 7    1  0.2719869E-009  0.9844755E+02  0.7561462E-02  0.1283595E+00
          2   -1    0    0  501    0  0.00000000000E+00  0.00000000000E+00  0.31368598042E+03  0.31368598042E+03  0.00000000000E+00 0.  1.
         -2   -1    0    0    0  501 -0.00000000000E+00 -0.00000000000E+00 -0.66368618764E+02  0.66368618764E+02  0.00000000000E+00 0. -1.
         25    2    1    2    0    0  0.72372925497E+02  0.51248300510E+02  0.18030854144E+03  0.23669179970E+03  0.12509040442E+03 0.  0.
          5    1    3    3  502    0  0.45616750437E+02  0.20355760548E+01  0.17426430114E+03  0.18019586717E+03  0.41800000000E+01 0.  1.
         -5    1    3    3    0  502  0.26756175059E+02  0.49212724455E+02  0.60442402947E+01  0.56495932534E+02  0.41800000000E+01 0.  1.
        -11    1    1    2    0    0 -0.56475808316E+02 -0.20183256193E+02 -0.81236890270E+01  0.60521690979E+02  0.00000000000E+00 0. -1.
         11    1    1    2    0    0 -0.15897117180E+02 -0.31065044317E+02  0.75132509244E+02  0.82841108506E+02  0.00000000000E+00 0.  1.
</event>
<event>
 7    1  0.2719869E-009  0.9331308E+02  0.7561462E-02  0.1295021E+00
         -2   -1    0    0    0  501 -0.00000000000E+00  0.00000000000E+00  0.73125457209E+02  0.73125457209E+02  0.00000000000E+00 0. -1.
          2   -1    0    0  501    0  0.00000000000E+00 -0.00000000000E+00 -0.18784460284E+03  0.18784460284E+03  0.00000000000E+00 0.  1.
         25    2    1    2    0    0  0.27829071627E+01 -0.96419327892E+01 -0.11411870286E+03  0.16962096779E+03  0.12508989940E+03 0.  0.
          5    1    3    3  502    0  0.43994617085E+02  0.15794565501E+02 -0.11146178594E+03  0.12093881411E+03  0.41800000000E+01 0.  1.
         -5    1    3    3    0  502 -0.41211709923E+02 -0.25436498291E+02 -0.26569169191E+01  0.48682153687E+02  0.41800000000E+01 0.  1.
        -11    1    1    2    0    0  0.41707296214E+02 -0.92997486245E+01 -0.37255439598E+01  0.42893630760E+02  0.00000000000E+00 0.  1.
         11    1    1    2    0    0 -0.44490203377E+02  0.18941681414E+02  0.31251011910E+01  0.48455461496E+02  0.00000000000E+00 0. -1.
</event>
<event>
 7    1  0.2719869E-009  0.1138877E+03  0.7561462E-02  0.1253535E+00
         -1   -1    0    0    0  501 -0.00000000000E+00  0.00000000000E+00  0.27852928774E+03  0.27852928774E+03  0.00000000000E+00 0.  1.
          1   -1    0    0  501    0  0.00000000000E+00 -0.00000000000E+00 -0.64912883854E+02  0.64912883854E+02  0.00000000000E+00 0. -1.
         25    2    1    2    0    0 -0.73397745756E+02 -0.14953182649E+02  0.84196200503E+02  0.16836843529E+03  0.12509237814E+03 0.  0.
          5    1    3    3  502    0 -0.75786324667E+02 -0.62051382862E+02  0.62700598027E+02  0.11637344420E+03  0.41800000000E+01 0.  1.
         -5    1    3    3    0  502  0.23885789110E+01  0.47098200213E+02  0.21495602476E+02  0.51994991089E+02  0.41800000000E+01 0.  1.
        -11    1    1    2    0    0  0.13984374701E+02  0.18128749193E+02  0.11019227113E+03  0.11254577247E+03  0.00000000000E+00 0.  1.
         11    1    1    2    0    0  0.59413371055E+02 -0.31755665438E+01  0.19227932247E+02  0.62527963836E+02  0.00000000000E+00 0. -1.
</event>
<event>
 7    1  0.2719869E-009  0.1078103E+03  0.7561462E-02  0.1264679E+00
          1   -1    0    0  501    0  0.00000000000E+00  0.00000000000E+00  0.38103633416E+03  0.38103633416E+03  0.00000000000E+00 0. -1.
         -1   -1    0    0    0  501 -0.00000000000E+00 -0.00000000000E+00 -0.44944436141E+02  0.44944436141E+02  0.00000000000E+00 0.  1.
         25    2    1    2    0    0  0.14384159418E+02 -0.42645544001E+02  0.26433216885E+03  0.29587203824E+03  0.12507286299E+03 0.  0.
          5    1    3    3  502    0  0.50848851651E+02  0.21878361272E+02  0.14583286098E+03  0.15604154623E+03  0.41800000000E+01 0. -1.
         -5    1    3    3    0  502 -0.36464692233E+02 -0.64523905273E+02  0.11849930787E+03  0.13983049201E+03  0.41800000000E+01 0. -1.
        -11    1    1    2    0    0  0.31324635183E+01  0.60664118363E+02  0.82773610886E+02  0.10267140909E+03  0.00000000000E+00 0. -1.
         11    1    1    2    0    0 -0.17516622937E+02 -0.18018574362E+02 -0.11013881724E+02  0.27437322971E+02  0.00000000000E+00 0.  1.
</event>
<event>
 7    1  0.2719869E-009  0.7149427E+02  0.7561462E-02  0.1355084E+00
         -1   -1    0    0    0  501 -0.00000000000E+00  0.00000000000E+00  0.21433197451E+03  0.21433197451E+03  0.00000000000E+00 0.  1.
          1   -1    0    0  501    0  0.00000000000E+00 -0.00000000000E+00 -0.66096278836E+02  0.66096278836E+02  0.00000000000E+00 0. -1.
         25    2    1    2    0    0  0.39250261283E+02  0.11365128955E+02  0.50837162345E+02  0.14107229033E+03  0.12508886783E+03 0.  0.
          5    1    3    3  502    0  0.41508331324E+02  0.27341743422E+02 -0.30219350582E+02  0.58319756963E+02  0.41800000000E+01 0.  1.
         -5    1    3    3    0  502 -0.22580700411E+01 -0.15976614467E+02  0.81056512928E+02  0.82752533364E+02  0.41800000000E+01 0.  1.
        -11    1    1    2    0    0 -0.41833252382E+02  0.19014297673E+02  0.98664693392E+02  0.10884064610E+03  0.00000000000E+00 0.  1.
         11    1    1    2    0    0  0.25829910988E+01 -0.30379426628E+02 -0.12661600668E+01  0.30515316918E+02  0.00000000000E+00 0. -1.
</event>
<event>
 7    1  0.2719869E-009  0.8182074E+02  0.7561462E-02  0.1323962E+00
          1   -1    0    0  501    0  0.00000000000E+00  0.00000000000E+00  0.99441318844E+02  0.99441318844E+02  0.00000000000E+00 0. -1.
         -1   -1    0    0    0  501 -0.00000000000E+00 -0.00000000000E+00 -0.21346338708E+03  0.21346338708E+03  0.00000000000E+00 0.  1.
         25    2    1    2    0    0  0.19231798598E+02 -0.51843014375E+02  0.22666800043E+02  0.13864044240E+03  0.12509927349E+03 0.  0.
          5    1    3    3  502    0 -0.10143335029E+01 -0.16703649755E+02  0.72346132444E+02  0.74373893720E+02  0.41800000000E+01 0.  1.
         -5    1    3    3    0  502  0.20246132101E+02 -0.35139364620E+02 -0.49679332401E+02  0.64266548677E+02  0.41800000000E+01 0.  1.
        -11    1    1    2    0    0  0.27197435994E+02  0.52569709976E+02 -0.57832891424E+02  0.82752149592E+02  0.00000000000E+00 0.  1.
         11    1    1    2    0    0 -0.46429234592E+02 -0.72669560086E+00 -0.78855976858E+02  0.91512113938E+02  0.00000000000E+00 0. -1.
</event>
<event>
 7    1  0.2719869E-009  0.1299823E+03  0.7561462E-02  0.1227482E+00
         -3   -1    0    0    0  501 -0.00000000000E+00  0.00000000000E+00  0.65059337488E+02  0.65059337488E+02  0.00000000000E+00 0.  1.
          3   -1    0    0  501    0  0.00000000000E+00 -0.00000000000E+00 -0.37278761261E+03  0.37278761261E+03  0.00000000000E+00 0. -1.
         25    2    1    2    0    0 -0.87429022393E+02 -0.56475668239E+02 -0.21931520006E+03  0.27309408256E+03  0.12509151006E+03 0.  0.
          5    1    3    3  502    0  0.20191428264E+01 -0.29298197263E+02  0.49630407430E+01  0.30075994980E+02  0.41800000000E+01 0.  1.
         -5    1    3    3    0  502 -0.89448165219E+02 -0.27177470976E+02 -0.22427824081E+03  0.24301808758E+03  0.41800000000E+01 0.  1.
        -11    1    1    2    0    0  0.31973983297E+02 -0.23301576400E+02 -0.39772228169E+02  0.56099279890E+02  0.00000000000E+00 0.  1.
         11    1    1    2    0    0  0.55455039096E+02  0.79777244639E+02 -0.48640846886E+02  0.10865358765E+03  0.00000000000E+00 0. -1.
</event>
<event>
 7    1  0.2719869E-009  0.8190394E+02  0.7561462E-02  0.1323734E+00
          2   -1    0    0  501    0  0.00000000000E+00  0.00000000000E+00  0.25313088052E+03  0.25313088052E+03  0.00000000000E+00 0.  1.
         -2   -1    0    0    0  501 -0.00000000000E+00 -0.00000000000E+00 -0.70225299012E+02  0.70225299012E+02  0.00000000000E+00 0. -1.
         25    2    1    2    0    0 -0.70527630835E+02 -0.79780103862E+01  0.13859863964E+03  0.19973698267E+03  0.12508990356E+03 0.  0.
          5    1    3    3  502    0 -0.35434630462E+02  0.19689144256E+02  0.14831728772E+03  0.15381406201E+03  0.41800000000E+01 0.  1.
         -5    1    3    3    0  502 -0.35093000373E+02 -0.27667154642E+02 -0.97186480718E+01  0.45922920656E+02  0.41800000000E+01 0.  1.
        -11    1    1    2    0    0  0.32738161500E+02  0.20185056188E+02  0.67457778782E+02  0.77651629924E+02  0.00000000000E+00 0.  1.
         11    1    1    2    0    0  0.37789469335E+02 -0.12207045802E+02 -0.23150836921E+02  0.45967566936E+02  0.00000000000E+00 0. -1.
</event>
<event>
 7    1  0.2719869E-009  0.1090854E+03  0.7561462E-02  0.1262273E+00
          1   -1    0    0  501    0  0.00000000000E+00  0.00000000000E+00  0.33249984182E+02  0.33249984182E+02  0.00000000000E+00 0. -1.
         -1   -1    0    0    0  501 -0.00000000000E+00 -0.00000000000E+00 -0.49287732160E+03  0.49287732160E+03  0.00000000000E+00 0.  1.
         25    2    1    2    0    0 -0.42896911131E+02  0.43832372523E+02 -0.31079019798E+03  0.34058576731E+03  0.12508675336E+03 0.  0.
          5    1    3    3  502    0 -0.90333644178E+01  0.78998667758E+02 -0.25075577489E+03  0.26309375177E+03  0.41800000000E+01 0. -1.
         -5    1    3    3    0  502 -0.33863546713E+02 -0.35166295235E+02 -0.60034423098E+02  0.77492015545E+02  0.41800000000E+01 0. -1.
        -11    1    1    2    0    0  0.35513110635E+02 -0.61154771595E+02 -0.15085005725E+03  0.16660380214E+03  0.00000000000E+00 0.  1.
         11    1    1    2    0    0  0.73838004960E+01  0.17322399071E+02  0.20129178096E+01  0.18937736334E+02  0.00000000000E+00 0. -1.
</event>
<event>
 7    1  0.2988499E-009  0.2911601E+03  0.7561462E-02  0.1089745E+00
          2   -1    0    0  501    0  0.00000000000E+00  0.00000000000E+00  0.47399562426E+03  0.47399562426E+03  0.00000000000E+00 0. -1.
         -2   -1    0    0    0  501 -0.00000000000E+00 -0.00000000000E+00 -0.19477340091E+03  0.19477340091E+03  0.00000000000E+00 0.  1.
         25    2    1    2    0    0 -0.24680474424E+03  0.11007438495E+03  0.48649991591E+02  0.30173443947E+03  0.12509155959E+03 0.  0.
          5    1    3    3  502    0 -0.24444454821E+03  0.65829894153E+02  0.38656272422E+02  0.25612202544E+03  0.41800000000E+01 0. -1.
         -5    1    3    3    0  502 -0.23601960251E+01  0.44244490799E+02  0.99937191689E+01  0.45612414036E+02  0.41800000000E+01 0. -1.
        -11    1    1    2    0    0  0.18858065944E+03 -0.12278761248E+03  0.19399933531E+03  0.29711143532E+03  0.00000000000E+00 0.  1.
         11    1    1    2    0    0  0.58224084799E+02  0.12713227528E+02  0.36572896447E+02  0.69923150382E+02  0.00000000000E+00 0. -1.
</event>
<event>
 7    1  0.2719869E-009  0.1301918E+03  0.7561462E-02  0.1227171E+00
          3   -1    0    0  501    0  0.00000000000E+00  0.00000000000E+00  0.11062590877E+03  0.11062590877E+03  0.00000000000E+00 0. -1.
         -3   -1    0    0    0  501 -0.00000000000E+00 -0.00000000000E+00 -0.23143787764E+03  0.23143787764E+03  0.00000000000E+00 0.  1.
         25    2    1    2    0    0 -0.52949086608E+02 -0.10227893378E+03 -0.82225878427E+02  0.18887244371E+03  0.12508844408E+03 0.  0.
          5    1    3    3  502    0 -0.43654024545E+02 -0.11685699164E+03 -0.10278302523E+03  0.16168813509E+03  0.41800000000E+01 0. -1.
         -5    1    3    3    0  502 -0.92950620630E+01  0.14578057865E+02  0.20557146806E+02  0.27184308611E+02  0.41800000000E+01 0. -1.
        -11    1    1    2    0    0  0.52064366820E+02  0.79783138814E+02  0.13715148126E+02  0.96250469191E+02  0.00000000000E+00 0. -1.
         11    1    1    2    0    0  0.88471978787E+00  0.22495794962E+02 -0.52301238573E+02  0.56940873512E+02  0.00000000000E+00 0.  1.
</event>
<event>
 7    1  0.2719869E-009  0.9861954E+02  0.7561462E-02  0.1283226E+00
         -1   -1    0    0    0  501 -0.00000000000E+00  0.00000000000E+00  0.21515521652E+03  0.21515521652E+03  0.00000000000E+00 0.  1.
          1   -1    0    0  501    0  0.00000000000E+00 -0.00000000000E+00 -0.87132590871E+02  0.87132590871E+02  0.00000000000E+00 0. -1.
         25    2    1    2    0    0  0.64840189356E+02 -0.29130316340E+02  0.20826059170E+02  0.14537512525E+03  0.12508947524E+03 0.  0.
          5    1    3    3  502    0  0.41453634547E+02  0.12690941070E+02 -0.45799450773E+02  0.63202261775E+02  0.41800000000E+01 0.  1.
         -5    1    3    3    0  502  0.23386554809E+02 -0.41821257410E+02  0.66625509943E+02  0.82172863479E+02  0.41800000000E+01 0.  1.
        -11    1    1    2    0    0 -0.38422056194E+02 -0.24663286392E+02  0.17203211150E+02  0.48790189297E+02  0.00000000000E+00 0. -1.
         11    1    1    2    0    0 -0.26418133162E+02  0.53793602732E+02  0.89993355331E+02  0.10812249284E+03  0.00000000000E+00 0.  1.
</event>
<event>
 7    1  0.2719869E-009  0.1098385E+03  0.7561462E-02  0.1260869E+00
          3   -1    0    0  501    0  0.00000000000E+00  0.00000000000E+00  0.28575612265E+03  0.28575612265E+03  0.00000000000E+00 0. -1.
         -3   -1    0    0    0  501 -0.00000000000E+00 -0.00000000000E+00 -0.44785059313E+02  0.44785059313E+02  0.00000000000E+00 0.  1.
         25    2    1    2    0    0 -0.14655308233E+02  0.27342034998E+02  0.13580337094E+03  0.18722414915E+03  0.12509181240E+03 0.  0.
          5    1    3    3  502    0 -0.49652498588E+02 -0.32256976293E+02  0.56533056124E+02  0.81971592459E+02  0.41800000000E+01 0. -1.
         -5    1    3    3    0  502  0.34997190355E+02  0.59599011291E+02  0.79270314817E+02  0.10525255669E+03  0.41800000000E+01 0. -1.
        -11    1    1    2    0    0  0.36898118258E+01 -0.58206656391E+02  0.41062442367E+02  0.71328491732E+02  0.00000000000E+00 0.  1.
         11    1    1    2    0    0  0.10965496407E+02  0.30864621394E+02  0.64105250024E+02  0.71988541073E+02  0.00000000000E+00 0. -1.
</event>
<event>
 7    1  0.2719869E-009  0.2913486E+03  0.7561462E-02  0.1089647E+00
         -2   -1    0    0    0  501 -0.00000000000E+00  0.00000000000E+00  0.13174781664E+04  0.13174781664E+04  0.00000000000E+00 0. -1.
          2   -1    0    0  501    0  0.00000000000E+00 -0.00000000000E+00 -0.74781975163E+02  0.74781975163E+02  0.00000000000E+00 0.  1.
         25    2    1    2    0    0  0.23266284247E+01  0.27760953267E+03  0.85163471530E+03  0.90443356268E+03  0.12508363268E+03 0.  0.
          5    1    3    3  502    0  0.62722510278E+02  0.11869440877E+03  0.36284685038E+03  0.38690798028E+03  0.41800000000E+01 0. -1.
         -5    1    3    3    0  502 -0.60395881853E+02  0.15891512391E+03  0.48878786492E+03  0.51752558240E+03  0.41800000000E+01 0. -1.
        -11    1    1    2    0    0 -0.91532118106E+01 -0.23473439190E+03  0.37298869255E+03  0.44079993285E+03  0.00000000000E+00 0.  1.
         11    1    1    2    0    0  0.68265833859E+01 -0.42875140775E+02  0.18072783362E+02  0.47026646017E+02  0.00000000000E+00 0. -1.
</event>
<event>
 7    1  0.2719869E-009  0.8139142E+02  0.7561462E-02  0.1325149E+00
          2   -1    0    0  501    0  0.00000000000E+00  0.00000000000E+00  0.41046603931E+03  0.41046603931E+03  0.00000000000E+00 0.  1.
         -2   -1    0    0    0  501 -0.00000000000E+00 -0.00000000000E+00 -0.46864797161E+02  0.46864797161E+02  0.00000000000E+00 0. -1.
         25    2    1    2    0    0 -0.76779969152E+02  0.75803591773E+01  0.13296107244E+03  0.19818473979E+03  0.12508364718E+03 0.  0.
          5    1    3    3  502    0 -0.86897363307E+01  0.44258905107E+00  0.12912651746E+03  0.12948682294E+03  0.41800000000E+01 0. -1.
         -5    1    3    3    0  502 -0.68090232822E+02  0.71377701262E+01  0.38345549796E+01  0.68697916853E+02  0.41800000000E+01 0. -1.
        -11    1    1    2    0    0  0.53151062320E+02 -0.21249330640E+02  0.22380009780E+03  0.23100444423E+03  0.00000000000E+00 0.  1.
         11    1    1    2    0    0  0.23628906833E+02  0.13668971463E+02  0.68400719078E+01  0.28141652451E+02  0.00000000000E+00 0. -1.
</event>
<event>
 7    1  0.2719869E-009  0.5837842E+02  0.7561462E-02  0.1404766E+00
          1   -1    0    0  501    0  0.00000000000E+00  0.00000000000E+00  0.34250578964E+03  0.34250578964E+03  0.00000000000E+00 0. -1.
         -1   -1    0    0    0  501 -0.00000000000E+00 -0.00000000000E+00 -0.42594574669E+02  0.42594574669E+02  0.00000000000E+00 0.  1.
         25    2    1    2    0    0  0.21130642300E+02 -0.43117766857E+02  0.15071180166E+03  0.20166186844E+03  0.12509123135E+03 0.  0.
          5    1    3    3  502    0  0.29246705213E+02 -0.43807418745E+02  0.22171246290E+01  0.52885231818E+02  0.41800000000E+01 0. -1.
         -5    1    3    3    0  502 -0.81160629128E+01  0.68965188739E+00  0.14849467704E+03  0.14877663662E+03  0.41800000000E+01 0. -1.
        -11    1    1    2    0    0 -0.21800787565E+02  0.14601850655E+02  0.15248500749E+03  0.15472609958E+03  0.00000000000E+00 0. -1.
         11    1    1    2    0    0  0.67014526511E+00  0.28515916202E+02 -0.32855941847E+01  0.28712396289E+02  0.00000000000E+00 0.  1.
</event>
<event>
 7    1  0.2719869E-009  0.1351356E+03  0.7561462E-02  0.1220028E+00
         -3   -1    0    0    0  501 -0.00000000000E+00  0.00000000000E+00  0.10154438237E+03  0.10154438237E+03  0.00000000000E+00 0.  1.
          3   -1    0    0  501    0  0.00000000000E+00 -0.00000000000E+00 -0.22399220563E+03  0.22399220563E+03  0.00000000000E+00 0. -1.
         25    2    1    2    0    0  0.60385893037E+02  0.55563123018E+02 -0.13576542764E+03  0.20202347664E+03  0.12509003580E+03 0.  0.
          5    1    3    3  502    0 -0.84730485414E+01  0.76487761939E+02 -0.77918376309E+02  0.10959432487E+03  0.41800000000E+01 0. -1.
         -5    1    3    3    0  502  0.68858941578E+02 -0.20924638920E+02 -0.57847051330E+02  0.92429151769E+02  0.41800000000E+01 0. -1.
        -11    1    1    2    0    0  0.16165587534E+01 -0.58993443776E+02 -0.36839968658E+01  0.59130461723E+02  0.00000000000E+00 0.  1.
         11    1    1    2    0    0 -0.62002451790E+02  0.34303207574E+01  0.17001601247E+02  0.64382649630E+02  0.00000000000E+00 0. -1.
</event>
<event>
 7    1  0.2719869E-009  0.9684945E+02  0.7561462E-02  0.1287064E+00
          2   -1    0    0  501    0  0.00000000000E+00  0.00000000000E+00  0.45018228138E+02  0.45018228138E+02  0.00000000000E+00 0. -1.
         -2   -1    0    0    0  501 -0.00000000000E+00 -0.00000000000E+00 -0.32141772133E+03  0.32141772133E+03  0.00000000000E+00 0.  1.
         25    2    1    2    0    0  0.51875679020E+02 -0.78099464258E+01 -0.13636370411E+03  0.19233914256E+03  0.12508878697E+03 0.  0.
          5    1    3    3  502    0  0.49910048486E+02 -0.36704301202E+02 -0.14827081439E+03  0.16074801854E+03  0.41800000000E+01 0. -1.
         -5    1    3    3    0  502  0.19656305338E+01  0.28894354776E+02  0.11907110279E+02  0.31591124015E+02  0.41800000000E+01 0. -1.
        -11    1    1    2    0    0  0.24512968601E+02  0.85202612172E+01 -0.25203832891E+02  0.36176147850E+02  0.00000000000E+00 0.  1.
         11    1    1    2    0    0 -0.76388647621E+02 -0.71031479141E+00 -0.11483195620E+03  0.13792065906E+03  0.00000000000E+00 0. -1.
</event>
<event>
 7    1  0.2719869E-009  0.6229918E+02  0.7561462E-02  0.1388429E+00
          2   -1    0    0  501    0  0.00000000000E+00  0.00000000000E+00  0.55106681047E+03  0.55106681047E+03  0.00000000000E+00 0.  1.
         -2   -1    0    0    0  501 -0.00000000000E+00 -0.00000000000E+00 -0.21971864163E+02  0.21971864163E+02  0.00000000000E+00 0. -1.
         25    2    1    2    0    0  0.15227908675E+02  0.39562255451E+01  0.34227221336E+03  0.36475441834E+03  0.12509187317E+03 0.  0.
          5    1    3    3  502    0 -0.91809918849E+00  0.13206132584E+02  0.34518292005E+03  0.34546195962E+03  0.41800000000E+01 0.  1.
         -5    1    3    3    0  502  0.16146007864E+02 -0.92499070390E+01 -0.29107066896E+01  0.19292458723E+02  0.41800000000E+01 0.  1.
        -11    1    1    2    0    0 -0.28838851891E+02  0.37903647574E+02  0.10721960328E+03  0.11732181896E+03  0.00000000000E+00 0. -1.
         11    1    1    2    0    0  0.13610943216E+02 -0.41859873119E+02  0.79603129659E+02  0.90962437326E+02  0.00000000000E+00 0.  1.
</event>
<event>
 7    1  0.2719869E-009  0.8259688E+02  0.7561462E-02  0.1321839E+00
         -1   -1    0    0    0  501 -0.00000000000E+00  0.00000000000E+00  0.32493231432E+02  0.32493231432E+02  0.00000000000E+00 0.  1.
          1   -1    0    0  501    0  0.00000000000E+00 -0.00000000000E+00 -0.41220785751E+03  0.41220785751E+03  0.00000000000E+00 0. -1.
         25    2    1    2    0    0 -0.21347893656E+02  0.12585497882E+01 -0.28092388913E+03  0.30825367900E+03  0.12507910547E+03 0.  0.
          5    1    3    3  502    0 -0.13389430886E+02  0.46627749685E+02 -0.40244459233E+02  0.63170505768E+02  0.41800000000E+01 0.  1.
         -5    1    3    3    0  502 -0.79584627705E+01 -0.45369199897E+02 -0.24067942989E+03  0.24508317323E+03  0.41800000000E+01 0.  1.
        -11    1    1    2    0    0 -0.20794628349E+02  0.14399272596E+02  0.27077742982E+01  0.25437917782E+02  0.00000000000E+00 0.  1.
         11    1    1    2    0    0  0.42142522005E+02 -0.15657822384E+02 -0.10149851125E+03  0.11100949215E+03  0.00000000000E+00 0. -1.
</event>
<event>
 7    1  0.2719869E-009  0.1393390E+03  0.7561462E-02  0.1214221E+00
         -1   -1    0    0    0  501 -0.00000000000E+00  0.00000000000E+00  0.14130889609E+03  0.14130889609E+03  0.00000000000E+00 0.  1.
          1   -1    0    0  501    0  0.00000000000E+00 -0.00000000000E+00 -0.16524713009E+03  0.16524713009E+03  0.00000000000E+00 0. -1.
         25    2    1    2    0    0 -0.86300756011E+02 -0.62615264148E+02  0.59956117655E+01  0.16447359209E+03  0.12508846206E+03 0.  0.
          5    1    3    3  502    0  0.25833862355E+01 -0.52424035878E+02  0.42589510976E+02  0.67722169689E+02  0.41800000000E+01 0.  1.
         -5    1    3    3    0  502 -0.88884142246E+02 -0.10191228270E+02 -0.36593899210E+02  0.96751422397E+02  0.41800000000E+01 0.  1.
        -11    1    1    2    0    0  0.19937506121E+02  0.67047415332E+02 -0.20952995451E+01  0.69980356767E+02  0.00000000000E+00 0.  1.
         11    1    1    2    0    0  0.66363249890E+02 -0.44321511843E+01 -0.27838546218E+02  0.72102077332E+02  0.00000000000E+00 0. -1.
</event>
<event>
 7    1  0.2719869E-009  0.1110798E+03  0.7561462E-02  0.1258583E+00
         -1   -1    0    0    0  501 -0.00000000000E+00  0.00000000000E+00  0.29345018282E+03  0.29345018282E+03  0.00000000000E+00 0.  1.
          1   -1    0    0  501    0  0.00000000000E+00 -0.00000000000E+00 -0.47460379947E+02  0.47460379947E+02  0.00000000000E+00 0. -1.
         25    2    1    2    0    0  0.15674813592E+02 -0.36095537215E+02  0.16200073040E+03  0.20842254313E+03  0.12508849766E+03 0.  0.
          5    1    3    3  502    0  0.58491864719E+02 -0.56688118161E+02  0.11858715192E+03  0.14392784991E+03  0.41800000000E+01 0.  1.
         -5    1    3    3    0  502 -0.42817051127E+02  0.20592580946E+02  0.43413578479E+02  0.64494693220E+02  0.41800000000E+01 0.  1.
        -11    1    1    2    0    0 -0.96878611509E+01 -0.27432701586E+02  0.28043127037E+01  0.29227930815E+02  0.00000000000E+00 0. -1.
         11    1    1    2    0    0 -0.59869524409E+01  0.63528238801E+02  0.81184759774E+02  0.10326008883E+03  0.00000000000E+00 0.  1.
</event>
<event>
 7    1  0.2719869E-009  0.1212281E+03  0.7561462E-02  0.1241085E+00
         -2   -1    0    0    0  501 -0.00000000000E+00  0.00000000000E+00  0.63031218080E+02  0.63031218080E+02  0.00000000000E+00 0. -1.
          2   -1    0    0  501    0  0.00000000000E+00 -0.00000000000E+00 -0.32625948948E+03  0.32625948948E+03  0.00000000000E+00 0.  1.
         25    2    1    2    0    0 -0.90431333446E+02  0.25053199151E+02 -0.15064916374E+03  0.21713553611E+03  0.12508869513E+03 0.  0.
          5    1    3    3  502    0  0.21292302374E+02  0.38106727021E+00 -0.79335910535E+02  0.82250631931E+02  0.41800000000E+01 0. -1.
         -5    1    3    3    0  502 -0.11172363582E+03  0.24672131880E+02 -0.71313253201E+02  0.13488490418E+03  0.41800000000E+01 0. -1.
        -11    1    1    2    0    0  0.86699556003E+02 -0.60655051907E+01 -0.12266465008E+03  0.15033369464E+03  0.00000000000E+00 0.  1.
         11    1    1    2    0    0  0.37317774436E+01 -0.18987693960E+02  0.10085542412E+02  0.21821476819E+02  0.00000000000E+00 0. -1.
</event>
<event>
 7    1  0.2719869E-009  0.1419490E+03  0.7561462E-02  0.1210730E+00
         -4   -1    0    0    0  501 -0.00000000000E+00  0.00000000000E+00  0.36476854314E+03  0.36476854314E+03  0.00000000000E+00 0.  1.
          4   -1    0    0  501    0  0.00000000000E+00 -0.00000000000E+00 -0.65302702344E+02  0.65302702344E+02  0.00000000000E+00 0. -1.
         25    2    1    2    0    0  0.93677350184E+02 -0.55011538436E+02  0.14811550140E+03  0.22223251107E+03  0.12508945567E+03 0.  0.
          5    1    3    3  502    0 -0.21177597247E+02  0.43019823526E+01 -0.42070413615E+01  0.22409133726E+02  0.41800000000E+01 0.  1.
         -5    1    3    3    0  502  0.11485494743E+03 -0.59313520788E+02  0.15232254276E+03  0.19982337734E+03  0.41800000000E+01 0.  1.
        -11    1    1    2    0    0 -0.12951777927E+02  0.50024603739E+02  0.23999107334E+02  0.56975140926E+02  0.00000000000E+00 0. -1.
         11    1    1    2    0    0 -0.80725572257E+02  0.49869346971E+01  0.12735123206E+03  0.15086359349E+03  0.00000000000E+00 0.  1.
</event>
<event>
 7    1  0.2719869E-009  0.1170585E+03  0.7561462E-02  0.1248030E+00
          2   -1    0    0  501    0  0.00000000000E+00  0.00000000000E+00  0.23490544381E+03  0.23490544381E+03  0.00000000000E+00 0. -1.
         -2   -1    0    0    0  501 -0.00000000000E+00 -0.00000000000E+00 -0.10502825875E+03  0.10502825875E+03  0.00000000000E+00 0.  1.
         25    2    1    2    0    0 -0.41481294493E+02 -0.30890082953E+02 -0.40660151020E+02  0.14133585217E+03  0.12509068794E+03 0.  0.
          5    1    3    3  502    0 -0.48436872543E+02  0.39117667795E+02 -0.32591797703E+02  0.70399007330E+02  0.41800000000E+01 0.  1.
         -5    1    3    3    0  502  0.69555780504E+01 -0.70007750749E+02 -0.80683533172E+01  0.70936844842E+02  0.41800000000E+01 0.  1.
        -11    1    1    2    0    0  0.16716260499E+02  0.60426056145E+02  0.95521441513E+02  0.11425886143E+03  0.00000000000E+00 0.  1.
         11    1    1    2    0    0  0.24765033994E+02 -0.29535973192E+02  0.75015894564E+02  0.84338988958E+02  0.00000000000E+00 0. -1.
</event>
<event>
 7    1  0.2719869E-009  0.9258038E+02  0.7561462E-02  0.1296721E+00
          1   -1    0    0  501    0  0.00000000000E+00  0.00000000000E+00  0.17347504400E+03  0.17347504400E+03  0.00000000000E+00 0. -1.
         -1   -1    0    0    0  501 -0.00000000000E+00 -0.00000000000E+00 -0.96805305106E+02  0.96805305106E+02  0.00000000000E+00 0.  1.
         25    2    1    2    0    0  0.61033510493E+02  0.43395087099E+02  0.17328918960E+02  0.14682372816E+03  0.12509473502E+03 0.  0.
          5    1    3    3  502    0  0.62269620178E+02  0.23309409869E+02 -0.45528274711E+02  0.80691575668E+02  0.41800000000E+01 0.  1.
         -5    1    3    3    0  502 -0.12361096848E+01  0.20085677230E+02  0.62857193670E+02  0.66132152491E+02  0.41800000000E+01 0.  1.
        -11    1    1    2    0    0 -0.54400565713E+02 -0.31732525999E+00  0.58467845188E+02  0.79862451541E+02  0.00000000000E+00 0. -1.
         11    1    1    2    0    0 -0.66329447802E+01 -0.43077761839E+02  0.87297474895E+00  0.43594169409E+02  0.00000000000E+00 0.  1.
</event>
<event>
 7    1  0.2719869E-009  0.1469650E+03  0.7561462E-02  0.1204253E+00
         -2   -1    0    0    0  501 -0.00000000000E+00  0.00000000000E+00  0.25101596061E+02  0.25101596061E+02  0.00000000000E+00 0.  1.
          2   -1    0    0  501    0  0.00000000000E+00 -0.00000000000E+00 -0.96737986238E+03  0.96737986238E+03  0.00000000000E+00 0. -1.
         25    2    1    2    0    0  0.35556988601E+02  0.10144308387E+03 -0.49241727935E+03  0.51930619043E+03  0.12509653760E+03 0.  0.
          5    1    3    3  502    0  0.11993059025E+02 -0.20698370448E+02 -0.22224363434E+02  0.32918850739E+02  0.41800000000E+01 0.  1.
         -5    1    3    3    0  502  0.23563929576E+02  0.12214145432E+03 -0.47019291591E+03  0.48638733969E+03  0.41800000000E+01 0.  1.
        -11    1    1    2    0    0  0.21682980996E+02  0.68099183448E+01 -0.98468354118E+02  0.10105712946E+03  0.00000000000E+00 0.  1.
         11    1    1    2    0    0 -0.57239969597E+02 -0.10825300222E+03 -0.35139263286E+03  0.37211813855E+03  0.00000000000E+00 0. -1.
</event>
<event>
 7    1  0.2719869E-009  0.1139151E+03  0.7561462E-02  0.1253487E+00
         -2   -1    0    0    0  501 -0.00000000000E+00  0.00000000000E+00  0.12296342725E+03  0.12296342725E+03  0.00000000000E+00 0.  1.
          2   -1    0    0  501    0  0.00000000000E+00 -0.00000000000E+00 -0.16156070983E+03  0.16156070983E+03  0.00000000000E+00 0. -1.
         25    2    1    2    0    0 -0.65965525211E+02 -0.60138102445E+02 -0.15737084298E+02  0.15452144788E+03  0.12514463693E+03 0.  0.
          5    1    3    3  502    0  0.11147163788E+01  0.14342603495E+02  0.37905134391E+02  0.40758121654E+02  0.41800000000E+01 0. -1.
         -5    1    3    3    0  502 -0.67080241590E+02 -0.74480705940E+02 -0.53642218689E+02  0.11376332623E+03  0.41800000000E+01 0. -1.
        -11    1    1    2    0    0  0.60516355927E+02  0.90977640265E+01  0.18664220505E+02  0.63979307374E+02  0.00000000000E+00 0.  1.
         11    1    1    2    0    0  0.54491692842E+01  0.51040338419E+02 -0.41524418786E+02  0.66023381822E+02  0.00000000000E+00 0. -1.
</event>
<event>
 7    1  0.2719869E-009  0.1583998E+03  0.7561462E-02  0.1190515E+00
          2   -1    0    0  501    0  0.00000000000E+00  0.00000000000E+00  0.36950223965E+03  0.36950223965E+03  0.00000000000E+00 0. -1.
         -2   -1    0    0    0  501 -0.00000000000E+00 -0.00000000000E+00 -0.79140682533E+02  0.79140682533E+02  0.00000000000E+00 0.  1.
         25    2    1    2    0    0  0.16513671591E+01 -0.12669443238E+03  0.11015679754E+03  0.20937228922E+03  0.12509208304E+03 0.  0.
          5    1    3    3  502    0  0.19904326354E+02 -0.14779072694E+03  0.98967362979E+02  0.17902595485E+03  0.41800000000E+01 0.  1.
         -5    1    3    3    0  502 -0.18252959195E+02  0.21096294558E+02  0.11189434562E+02  0.30346334363E+02  0.41800000000E+01 0.  1.
        -11    1    1    2    0    0  0.17604065006E+02  0.83085468206E+01  0.81926499036E+02  0.84207400502E+02  0.00000000000E+00 0. -1.
         11    1    1    2    0    0 -0.19255432166E+02  0.11838588556E+03  0.98278260543E+02  0.15506323247E+03  0.00000000000E+00 0.  1.
</event>
<event>
 7    1  0.2719869E-009  0.1165042E+03  0.7561462E-02  0.1248978E+00
          3   -1    0    0  501    0  0.00000000000E+00  0.00000000000E+00  0.28048315040E+03  0.28048315040E+03  0.00000000000E+00 0. -1.
         -3   -1    0    0    0  501 -0.00000000000E+00 -0.00000000000E+00 -0.84175792944E+02  0.84175792944E+02  0.00000000000E+00 0.  1.
         25    2    1    2    0    0  0.88442828592E+02  0.42307518574E+02  0.50790470586E+02  0.16685124134E+03  0.12509038642E+03 0.  0.
          5    1    3    3  502    0  0.78507598406E+02  0.39202998208E+02  0.90178842281E+02  0.12589683900E+03  0.41800000000E+01 0. -1.
         -5    1    3    3    0  502  0.99352301858E+01  0.31045203660E+01 -0.39388371696E+02  0.40954402332E+02  0.41800000000E+01 0. -1.
        -11    1    1    2    0    0 -0.88755375740E+02  0.28314686094E+01  0.98939723187E+02  0.13294586403E+03  0.00000000000E+00 0. -1.
         11    1    1    2    0    0  0.31254714828E+00 -0.45138987184E+02  0.46577163687E+02  0.64861837985E+02  0.00000000000E+00 0.  1.
</event>
<event>
 7    1  0.2719869E-009  0.8156251E+02  0.7561462E-02  0.1324675E+00
         -2   -1    0    0    0  501 -0.00000000000E+00  0.00000000000E+00  0.10401676493E+02  0.10401676493E+02  0.00000000000E+00 0.  1.
          2   -1    0    0  501    0  0.00000000000E+00 -0.00000000000E+00 -0.14219852242E+04  0.14219852242E+04  0.00000000000E+00 0. -1.
         25    2    1    2    0    0  0.39903906641E+02  0.29841051265E+02 -0.91440634251E+03  0.92426649925E+03  0.12508713886E+03 0.  0.
          5    1    3    3  502    0  0.81060519051E+01  0.24268826859E+02 -0.86320069632E+03  0.86358994816E+03  0.41800000000E+01 0. -1.
         -5    1    3    3    0  502  0.31797854736E+02  0.55722244067E+01 -0.51205646194E+02  0.60676551095E+02  0.41800000000E+01 0. -1.
        -11    1    1    2    0    0  0.46060859277E+01 -0.53869094107E+02 -0.23968429330E+03  0.24570644229E+03  0.00000000000E+00 0. -1.
         11    1    1    2    0    0 -0.44509992569E+02  0.24028042842E+02 -0.25749291185E+03  0.26241395910E+03  0.00000000000E+00 0.  1.
</event>
<event>
 7    1  0.2719869E-009  0.1008809E+03  0.7561462E-02  0.1278454E+00
         -2   -1    0    0    0  501 -0.00000000000E+00  0.00000000000E+00  0.19077447551E+02  0.19077447551E+02  0.00000000000E+00 0.  1.
          2   -1    0    0  501    0  0.00000000000E+00 -0.00000000000E+00 -0.86691537055E+03  0.86691537055E+03  0.00000000000E+00 0. -1.
         25    2    1    2    0    0 -0.67582984864E+02  0.62182025681E+01 -0.50454788031E+03  0.52423505629E+03  0.12509078635E+03 0.  0.
          5    1    3    3  502    0 -0.23245015851E+02  0.43345691136E+02 -0.41253495687E+03  0.41547772834E+03  0.41800000000E+01 0.  1.
         -5    1    3    3    0  502 -0.44337969013E+02 -0.37127488568E+02 -0.92012923434E+02  0.10875732795E+03  0.41800000000E+01 0.  1.
        -11    1    1    2    0    0  0.15180763212E+02 -0.32444104185E+02 -0.43766757115E+02  0.56556206524E+02  0.00000000000E+00 0.  1.
         11    1    1    2    0    0  0.52402221652E+02  0.26225901616E+02 -0.29952328557E+03  0.30520155529E+03  0.00000000000E+00 0. -1.
</event>
<event>
 7    1  0.2719869E-009  0.3331598E+03  0.7561462E-02  0.1069747E+00
         -2   -1    0    0    0  501 -0.00000000000E+00  0.00000000000E+00  0.29233758338E+03  0.29233758338E+03  0.00000000000E+00 0.  1.
          2   -1    0    0  501    0  0.00000000000E+00 -0.00000000000E+00 -0.39308700513E+03  0.39308700513E+03  0.00000000000E+00 0. -1.
         25    2    1    2    0    0  0.31627695795E+03 -0.53172393978E+02 -0.97165805938E+01  0.34438448640E+03  0.12509134631E+03 0.  0.
          5    1    3    3  502    0  0.15575970672E+03  0.35827004548E+02  0.70244796239E+01  0.16003585912E+03  0.41800000000E+01 0. -1.
         -5    1    3    3    0  502  0.16051725124E+03 -0.88999398526E+02 -0.16741060218E+02  0.18434862728E+03  0.41800000000E+01 0. -1.
        -11    1    1    2    0    0 -0.67048721279E+02 -0.39338022872E+01  0.62885654288E+01  0.67457778504E+02  0.00000000000E+00 0. -1.
         11    1    1    2    0    0 -0.24922823667E+03  0.57106196265E+02 -0.97321406585E+02  0.27358232360E+03  0.00000000000E+00 0.  1.
</event>
<event>
 7    1  0.2719869E-009  0.1125659E+03  0.7561462E-02  0.1255891E+00
          1   -1    0    0  501    0  0.00000000000E+00  0.00000000000E+00  0.21657616000E+03  0.21657616000E+03  0.00000000000E+00 0. -1.
         -1   -1    0    0    0  501 -0.00000000000E+00 -0.00000000000E+00 -0.68841363673E+02  0.68841363673E+02  0.00000000000E+00 0.  1.
         25    2    1    2    0    0  0.34770471929E+02  0.39573120076E+02  0.10011247026E+03  0.16866140807E+03  0.12509654799E+03 0.  0.
          5    1    3    3  502    0  0.71066908001E+02  0.10482941738E+02  0.98431079570E+02  0.12192845158E+03  0.41800000000E+01 0.  1.
         -5    1    3    3    0  502 -0.36296436072E+02  0.29090178338E+02  0.16813906914E+01  0.46732956486E+02  0.41800000000E+01 0.  1.
        -11    1    1    2    0    0  0.29577540077E+02 -0.28697080565E+02  0.21262470998E+02  0.46372901386E+02  0.00000000000E+00 0. -1.
         11    1    1    2    0    0 -0.64348012006E+02 -0.10876039511E+02  0.26359855072E+02  0.70383214221E+02  0.00000000000E+00 0.  1.
</event>
<event>
 7    1  0.2719869E-009  0.1178249E+03  0.7561462E-02  0.1246729E+00
         -2   -1    0    0    0  501 -0.00000000000E+00  0.00000000000E+00  0.10918717395E+03  0.10918717395E+03  0.00000000000E+00 0.  1.
          2   -1    0    0  501    0  0.00000000000E+00 -0.00000000000E+00 -0.13984136453E+03  0.13984136453E+03  0.00000000000E+00 0. -1.
         25    2    1    2    0    0  0.54678832377E+02 -0.76807925797E+01 -0.27571832247E+02  0.13948024349E+03  0.12508302485E+03 0.  0.
          5    1    3    3  502    0 -0.38038677848E+02  0.66431224647E+01  0.68897409725E+01  0.39446330871E+02  0.41800000000E+01 0.  1.
         -5    1    3    3    0  502  0.92717510225E+02 -0.14323915044E+02 -0.34461573220E+02  0.10003391262E+03  0.41800000000E+01 0.  1.
        -11    1    1    2    0    0  0.11298827858E+02  0.30942646449E+02 -0.18684751947E+02  0.37871240216E+02  0.00000000000E+00 0. -1.
         11    1    1    2    0    0 -0.65977660235E+02 -0.23261853869E+02  0.15602393612E+02  0.71677054780E+02  0.00000000000E+00 0.  1.
</event>
<event>
 7    1  0.2719869E-009  0.1066161E+03  0.7561462E-02  0.1266968E+00
          2   -1    0    0  501    0  0.00000000000E+00  0.00000000000E+00  0.14968456449E+03  0.14968456449E+03  0.00000000000E+00 0. -1.
         -2   -1    0    0    0  501 -0.00000000000E+00 -0.00000000000E+00 -0.15053144822E+03  0.15053144822E+03  0.00000000000E+00 0.  1.
         25    2    1    2    0    0 -0.22536872000E+02  0.25121396332E+02  0.97286872287E+02  0.16204347879E+03  0.12511737827E+03 0.  0.
          5    1    3    3  502    0 -0.57116367529E+02  0.48828453907E+02  0.26732950672E+02  0.79866265734E+02  0.41800000000E+01 0. -1.
         -5    1    3    3    0  502  0.34579495530E+02 -0.23707057575E+02  0.70553921615E+02  0.82177213053E+02  0.41800000000E+01 0. -1.
        -11    1    1    2    0    0  0.17838256984E+02 -0.58999356443E+02 -0.51377049550E+02  0.80241689248E+02  0.00000000000E+00 0.  1.
         11    1    1    2    0    0  0.46986150157E+01  0.33877960110E+02 -0.46756706474E+02  0.57930844673E+02  0.00000000000E+00 0. -1.
</event>
<event>
 7    1  0.2719869E-009  0.1496611E+03  0.7561462E-02  0.1200890E+00
          1   -1    0    0  501    0  0.00000000000E+00  0.00000000000E+00  0.45294950707E+03  0.45294950707E+03  0.00000000000E+00 0. -1.
         -1   -1    0    0    0  501 -0.00000000000E+00 -0.00000000000E+00 -0.54637297970E+02  0.54637297970E+02  0.00000000000E+00 0.  1.
         25    2    1    2    0    0  0.99163637621E+02 -0.23436220969E+02  0.13746451871E+03  0.21195774160E+03  0.12508759667E+03 0.  0.
          5    1    3    3  502    0  0.55450503540E+02 -0.74652016194E+02  0.69277507761E+02  0.11603674998E+03  0.41800000000E+01 0.  1.
         -5    1    3    3    0  502  0.43713134081E+02  0.51215795224E+02  0.68187010945E+02  0.95920991619E+02  0.41800000000E+01 0.  1.
        -11    1    1    2    0    0 -0.59450176741E+02  0.60233527358E+02  0.14870042780E+03  0.17109710272E+03  0.00000000000E+00 0. -1.
         11    1    1    2    0    0 -0.39713460880E+02 -0.36797306388E+02  0.11214726260E+03  0.12453196072E+03  0.00000000000E+00 0.  1.
</event>
<event>
 7    1  0.2719869E-009  0.1405688E+03  0.7561462E-02  0.1212566E+00
          3   -1    0    0  501    0  0.00000000000E+00  0.00000000000E+00  0.85362834376E+02  0.85362834376E+02  0.00000000000E+00 0. -1.
         -3   -1    0    0    0  501 -0.00000000000E+00 -0.00000000000E+00 -0.29570983001E+03  0.29570983001E+03  0.00000000000E+00 0.  1.
         25    2    1    2    0    0 -0.77536875071E+01  0.90258300724E+02 -0.19905499569E+03  0.25194666947E+03  0.12509017719E+03 0.  0.
          5    1    3    3  502    0 -0.51376211290E+02  0.95684587360E+02 -0.15713836987E+03  0.19106280389E+03  0.41800000000E+01 0. -1.
         -5    1    3    3    0  502  0.43622523783E+02 -0.54262866365E+01 -0.41916625818E+02  0.60883865578E+02  0.41800000000E+01 0. -1.
        -11    1    1    2    0    0  0.48658286466E+02 -0.36928544034E+02 -0.71908942791E+00  0.61088978514E+02  0.00000000000E+00 0. -1.
         11    1    1    2    0    0 -0.40904598959E+02 -0.53329756689E+02 -0.10572910520E+02  0.68037016406E+02  0.00000000000E+00 0.  1.
</event>
<event>
 7    1  0.2719869E-009  0.3112360E+03  0.7561462E-02  0.1079755E+00
         -1   -1    0    0    0  501 -0.00000000000E+00  0.00000000000E+00  0.37693786952E+03  0.37693786952E+03  0.00000000000E+00 0.  1.
          1   -1    0    0  501    0  0.00000000000E+00 -0.00000000000E+00 -0.27697782758E+03  0.27697782758E+03  0.00000000000E+00 0. -1.
         25    2    1    2    0    0 -0.27367426534E+03  0.12591909975E+03  0.92924228975E+02  0.33916971509E+03  0.12509180672E+03 0.  0.
          5    1    3    3  502    0 -0.19625710986E+03  0.35092383505E+02  0.22868825380E+02  0.20072066193E+03  0.41800000000E+01 0. -1.
         -5    1    3    3    0  502 -0.77417155480E+02  0.90826716250E+02  0.70055403595E+02  0.13844905316E+03  0.41800000000E+01 0. -1.
        -11    1    1    2    0    0  0.94664245103E+02 -0.24032871125E+02  0.41120294857E+02  0.10597064143E+03  0.00000000000E+00 0.  1.
         11    1    1    2    0    0  0.17901002024E+03 -0.10188622863E+03 -0.34084481889E+02  0.20877534058E+03  0.00000000000E+00 0. -1.
</event>
<event>
 7    1  0.2719869E-009  0.1295775E+03  0.7561462E-02  0.1228084E+00
         -2   -1    0    0    0  501 -0.00000000000E+00  0.00000000000E+00  0.32017329619E+03  0.32017329619E+03  0.00000000000E+00 0.  1.
          2   -1    0    0  501    0  0.00000000000E+00 -0.00000000000E+00 -0.56849990588E+02  0.56849990588E+02  0.00000000000E+00 0. -1.
         25    2    1    2    0    0 -0.71022390011E+01 -0.74941612819E+02  0.17563825420E+03  0.22836746904E+03  0.12504486174E+03 0.  0.
          5    1    3    3  502    0 -0.56875050781E+02 -0.74488466980E+02  0.95007871013E+02  0.13351880418E+03  0.41800000000E+01 0. -1.
         -5    1    3    3    0  502  0.49772811780E+02 -0.45314583929E+00  0.80630383187E+02  0.94848664865E+02  0.41800000000E+01 0. -1.
        -11    1    1    2    0    0  0.46805189567E+02  0.30839871936E+02  0.22211214563E+02  0.60292300700E+02  0.00000000000E+00 0.  1.
         11    1    1    2    0    0 -0.39702950566E+02  0.44101740883E+02  0.65473836836E+02  0.88363517034E+02  0.00000000000E+00 0. -1.
</event>
<event>
 7    1  0.2719869E-009  0.1087631E+03  0.7561462E-02  0.1262878E+00
         -2   -1    0    0    0  501 -0.00000000000E+00  0.00000000000E+00  0.42300125265E+02  0.42300125265E+02  0.00000000000E+00 0.  1.
          2   -1    0    0  501    0  0.00000000000E+00 -0.00000000000E+00 -0.38568248097E+03  0.38568248097E+03  0.00000000000E+00 0. -1.
         25    2    1    2    0    0  0.22475020480E+02 -0.25722430535E+02 -0.10272233983E+03  0.16542758819E+03  0.12509051865E+03 0.  0.
          5    1    3    3  502    0  0.35008488630E+02 -0.72715924339E+02 -0.66079231251E+02  0.10438935353E+03  0.41800000000E+01 0.  1.
         -5    1    3    3    0  502 -0.12533468150E+02  0.46993493803E+02 -0.36643108584E+02  0.61038234660E+02  0.41800000000E+01 0.  1.
        -11    1    1    2    0    0  0.29852887617E+02  0.61666522073E+00 -0.16240051027E+03  0.16512268442E+03  0.00000000000E+00 0. -1.
         11    1    1    2    0    0 -0.52327908097E+02  0.25105765315E+02 -0.78259505606E+02  0.97432333625E+02  0.00000000000E+00 0.  1.
</event>
<event>
 7    1  0.2719869E-009  0.1118755E+03  0.7561462E-02  0.1257136E+00
         -2   -1    0    0    0  501 -0.00000000000E+00  0.00000000000E+00  0.12069361437E+03  0.12069361437E+03  0.00000000000E+00 0.  1.
          2   -1    0    0  501    0  0.00000000000E+00 -0.00000000000E+00 -0.13182509979E+03  0.13182509979E+03  0.00000000000E+00 0. -1.
         25    2    1    2    0    0 -0.58459496673E+02 -0.23166973317E+02 -0.17791405049E+01  0.14001946332E+03  0.12509221943E+03 0.  0.
          5    1    3    3  502    0 -0.59115679950E+02  0.38287939009E+02 -0.24011975242E+02  0.74529707128E+02  0.41800000000E+01 0. -1.
         -5    1    3    3    0  502  0.65618327677E+00 -0.61454912325E+02  0.22232834737E+02  0.65489756190E+02  0.41800000000E+01 0. -1.
        -11    1    1    2    0    0  0.37838182378E+01  0.35371840627E+02 -0.35870080153E+02  0.50518779083E+02  0.00000000000E+00 0. -1.
         11    1    1    2    0    0  0.54675678435E+02 -0.12204867311E+02  0.26517735238E+02  0.61980471768E+02  0.00000000000E+00 0.  1.
</event>
<event>
 7    1  0.2719869E-009  0.5069179E+02  0.7561462E-02  0.1441646E+00
         -2   -1    0    0    0  501 -0.00000000000E+00  0.00000000000E+00  0.12540016025E+03  0.12540016025E+03  0.00000000000E+00 0.  1.
          2   -1    0    0  501    0  0.00000000000E+00 -0.00000000000E+00 -0.18039226122E+03  0.18039226122E+03  0.00000000000E+00 0. -1.
         25    2    1    2    0    0 -0.33070144044E+02  0.32411240551E+02  0.64222100080E+02  0.14804170157E+03  0.12509094422E+03 0.  0.
          5    1    3    3  502    0 -0.22308185468E+02  0.12897478172E+02  0.10128420535E+03  0.10459427678E+03  0.41800000000E+01 0. -1.
         -5    1    3    3    0  502 -0.10761958576E+02  0.19513762379E+02 -0.37062105266E+02  0.43447424795E+02  0.41800000000E+01 0. -1.
        -11    1    1    2    0    0  0.28287618417E+02 -0.10492616978E+02  0.58137660861E+01  0.30725953897E+02  0.00000000000E+00 0.  1.
         11    1    1    2    0    0  0.47825256267E+01 -0.21918623573E+02 -0.12502796714E+03  0.12702476600E+03  0.00000000000E+00 0. -1.
</event>
<event>
 7    1  0.2719869E-009  0.5762307E+02  0.7561462E-02  0.1408086E+00
         -1   -1    0    0    0  501 -0.00000000000E+00  0.00000000000E+00  0.35850144146E+03  0.35850144146E+03  0.00000000000E+00 0.  1.
          1   -1    0    0  501    0  0.00000000000E+00 -0.00000000000E+00 -0.35873950264E+02  0.35873950264E+02  0.00000000000E+00 0. -1.
         25    2    1    2    0    0  0.26416091176E+02 -0.20245586094E+02  0.18107453193E+03  0.22257951189E+03  0.12508380938E+03 0.  0.
          5    1    3    3  502    0  0.17542516859E+02 -0.80675195439E+01  0.19831923215E+03  0.19930081537E+03  0.41800000000E+01 0. -1.
         -5    1    3    3    0  502  0.88735743167E+01 -0.12178066550E+02 -0.17244700212E+02  0.23278696515E+02  0.41800000000E+01 0. -1.
        -11    1    1    2    0    0 -0.42827035289E+02 -0.11301234001E+02  0.27053331687E+02  0.51901402649E+02  0.00000000000E+00 0.  1.
         11    1    1    2    0    0  0.16410944113E+02  0.31546820095E+02  0.11449962758E+03  0.11989447719E+03  0.00000000000E+00 0. -1.
</event>
<event>
 7    1  0.2719869E-009  0.1652269E+03  0.7561462E-02  0.1182919E+00
          2   -1    0    0  501    0  0.00000000000E+00  0.00000000000E+00  0.74506355875E+03  0.74506355875E+03  0.00000000000E+00 0. -1.
         -2   -1    0    0    0  501 -0.00000000000E+00 -0.00000000000E+00 -0.72831630147E+02  0.72831630147E+02  0.00000000000E+00 0.  1.
         25    2    1    2    0    0 -0.65548418397E+02  0.12520351617E+03  0.85384358405E+02  0.20714804116E+03  0.12508919489E+03 0.  0.
          5    1    3    3  502    0 -0.13806230621E+02 -0.25436792242E+02  0.16340430448E+02  0.33498126377E+02  0.41800000000E+01 0. -1.
         -5    1    3    3    0  502 -0.51742187776E+02  0.15064030841E+03  0.69043927957E+02  0.17364991478E+03  0.41800000000E+01 0. -1.
        -11    1    1    2    0    0  0.48781172149E+02 -0.80421491656E+02  0.52069036048E+03  0.52911782296E+03  0.00000000000E+00 0. -1.
         11    1    1    2    0    0  0.16767246248E+02 -0.44782024517E+02  0.66157209718E+02  0.81629324781E+02  0.00000000000E+00 0.  1.
</event>
<event>
 7    1  0.2719869E-009  0.2332598E+03  0.7561462E-02  0.1124366E+00
          2   -1    0    0  501    0  0.00000000000E+00  0.00000000000E+00  0.10116520780E+03  0.10116520780E+03  0.00000000000E+00 0. -1.
         -2   -1    0    0    0  501 -0.00000000000E+00 -0.00000000000E+00 -0.74107566654E+03  0.74107566654E+03  0.00000000000E+00 0.  1.
         25    2    1    2    0    0 -0.39246455640E+02 -0.21166856500E+03 -0.12857158866E+03  0.28021686062E+03  0.12508784865E+03 0.  0.
          5    1    3    3  502    0  0.34253570543E+02 -0.14534542748E+02 -0.29297958912E+02  0.47543693843E+02  0.41800000000E+01 0.  1.
         -5    1    3    3    0  502 -0.73500026183E+02 -0.19713402225E+03 -0.99273629744E+02  0.23267316678E+03  0.41800000000E+01 0.  1.
        -11    1    1    2    0    0  0.84859207456E+01  0.14470166641E+03 -0.42207312155E+03  0.44626931672E+03  0.00000000000E+00 0.  1.
         11    1    1    2    0    0  0.30760534894E+02  0.66966898588E+02 -0.89265748541E+02  0.11575469699E+03  0.00000000000E+00 0. -1.
</event>
<event>
 7    1  0.2719869E-009  0.1179578E+03  0.7561462E-02  0.1246505E+00
          1   -1    0    0  501    0  0.00000000000E+00  0.00000000000E+00  0.26574505542E+03  0.26574505542E+03  0.00000000000E+00 0. -1.
         -1   -1    0    0    0  501 -0.00000000000E+00 -0.00000000000E+00 -0.83105301410E+02  0.83105301410E+02  0.00000000000E+00 0.  1.
         25    2    1    2    0    0 -0.25436810914E+02 -0.10533675120E+03  0.15731056160E+03  0.22833569891E+03  0.12509083141E+03 0.  0.
          5    1    3    3  502    0  0.21143298082E+02 -0.53807548265E+02  0.14696592724E+03  0.15798337721E+03  0.41800000000E+01 0.  1.
         -5    1    3    3    0  502 -0.46580108995E+02 -0.51529202935E+02  0.10344634362E+02  0.70352321705E+02  0.41800000000E+01 0.  1.
        -11    1    1    2    0    0  0.10310399043E+02  0.42867227619E+02 -0.12636072767E+02  0.45864734460E+02  0.00000000000E+00 0.  1.
         11    1    1    2    0    0  0.15126411871E+02  0.62469523582E+02  0.37965265176E+02  0.74649923459E+02  0.00000000000E+00 0. -1.
</event>
<event>
 7    1  0.2719869E-009  0.1526919E+03  0.7561462E-02  0.1197204E+00
          2   -1    0    0  501    0  0.00000000000E+00  0.00000000000E+00  0.33974249575E+03  0.33974249575E+03  0.00000000000E+00 0.  1.
         -2   -1    0    0    0  501 -0.00000000000E+00 -0.00000000000E+00 -0.91930337555E+02  0.91930337555E+02  0.00000000000E+00 0. -1.
         25    2    1    2    0    0 -0.31346146027E+02  0.12857941142E+03  0.18335012109E+03  0.25841453398E+03  0.12508220719E+03 0.  0.
          5    1    3    3  502    0 -0.48092255928E+02  0.10278402580E+03  0.54644491971E+02  0.12601949826E+03  0.41800000000E+01 0.  1.
         -5    1    3    3    0  502  0.16746109901E+02  0.25795385626E+02  0.12870562912E+03  0.13239503572E+03  0.41800000000E+01 0.  1.
        -11    1    1    2    0    0  0.55919548736E+02 -0.12367982492E+03  0.55602600523E+02  0.14668109697E+03  0.00000000000E+00 0.  1.
         11    1    1    2    0    0 -0.24573402709E+02 -0.48995865052E+01  0.88594365800E+01  0.26577202357E+02  0.00000000000E+00 0. -1.
</event>
<event>
 7    1  0.2719869E-009  0.2062152E+03  0.7561462E-02  0.1144599E+00
         -1   -1    0    0    0  501 -0.00000000000E+00  0.00000000000E+00  0.55241272479E+03  0.55241272479E+03  0.00000000000E+00 0.  1.
          1   -1    0    0  501    0  0.00000000000E+00 -0.00000000000E+00 -0.12833666723E+03  0.12833666723E+03  0.00000000000E+00 0. -1.
         25    2    1    2    0    0  0.16902660439E+03 -0.86634546154E+02  0.41096301197E+03  0.46969626885E+03  0.12509376555E+03 0.  0.
          5    1    3    3  502    0 -0.17516133137E+00 -0.47487599175E+02  0.49881760901E+02  0.68998298729E+02  0.41800000000E+01 0.  1.
         -5    1    3    3    0  502  0.16920176573E+03 -0.39146946979E+02  0.36108125107E+03  0.40069797012E+03  0.41800000000E+01 0.  1.
        -11    1    1    2    0    0 -0.65167997978E+02  0.22352713552E+02  0.48069409931E+02  0.84007023127E+02  0.00000000000E+00 0.  1.
         11    1    1    2    0    0 -0.10385860642E+03  0.64281832602E+02 -0.34956364339E+02  0.12704610005E+03  0.00000000000E+00 0. -1.
</event>
<event>
 7    1  0.2955821E-009  0.9356135E+02  0.7561462E-02  0.1294450E+00
          3   -1    0    0  501    0  0.00000000000E+00  0.00000000000E+00  0.43345704899E+02  0.43345704899E+02  0.00000000000E+00 0. -1.
         -3   -1    0    0    0  501 -0.00000000000E+00 -0.00000000000E+00 -0.35117162645E+03  0.35117162645E+03  0.00000000000E+00 0.  1.
         25    2    1    2    0    0 -0.24411252978E+01 -0.33506555702E+02 -0.24921151683E+03  0.28086210658E+03  0.12509394241E+03 0.  0.
          5    1    3    3  502    0 -0.31213455684E+01  0.47392265778E+02 -0.77332762686E+02  0.90849316114E+02  0.41800000000E+01 0.  1.
         -5    1    3    3    0  502  0.68022027061E+00 -0.80898821480E+02 -0.17187875414E+03  0.19001279047E+03  0.41800000000E+01 0.  1.
        -11    1    1    2    0    0 -0.75230555093E+01  0.43604194585E+02  0.85004164888E+01  0.45057510252E+02  0.00000000000E+00 0. -1.
         11    1    1    2    0    0  0.99641808071E+01 -0.10097638883E+02 -0.67114821212E+02  0.68597714514E+02  0.00000000000E+00 0.  1.
</event>
<event>
 7    1  0.2719869E-009  0.7869210E+02  0.7561462E-02  0.1332805E+00
         -2   -1    0    0    0  501 -0.00000000000E+00  0.00000000000E+00  0.20465428943E+03  0.20465428943E+03  0.00000000000E+00 0.  1.
          2   -1    0    0  501    0  0.00000000000E+00 -0.00000000000E+00 -0.69298363471E+02  0.69298363471E+02  0.00000000000E+00 0. -1.
         25    2    1    2    0    0 -0.44699482078E+02  0.70918375380E+01  0.10534016469E+03  0.16968336904E+03  0.12509019775E+03 0.  0.
          5    1    3    3  502    0  0.28418617821E+02 -0.14835042841E+02 -0.76861665724E+01  0.33230195479E+02  0.41800000000E+01 0. -1.
         -5    1    3    3    0  502 -0.73118099900E+02  0.21926880379E+02  0.11302633126E+03  0.13645317356E+03  0.41800000000E+01 0. -1.
        -11    1    1    2    0    0  0.28453655017E+02  0.42820982264E+01  0.61020583232E+02  0.67464497530E+02  0.00000000000E+00 0.  1.
         11    1    1    2    0    0  0.16245827062E+02 -0.11373935764E+02 -0.31004821964E+02  0.36804786329E+02  0.00000000000E+00 0. -1.
</event>
<event>
 7    1  0.2719869E-009  0.1301432E+03  0.7561462E-02  0.1227243E+00
          1   -1    0    0  501    0  0.00000000000E+00  0.00000000000E+00  0.50560402273E+03  0.50560402273E+03  0.00000000000E+00 0. -1.
         -1   -1    0    0    0  501 -0.00000000000E+00 -0.00000000000E+00 -0.58156849601E+02  0.58156849601E+02  0.00000000000E+00 0.  1.
         25    2    1    2    0    0 -0.52706587445E+01  0.98964885047E+02  0.37811471399E+03  0.41041014180E+03  0.12507565407E+03 0.  0.
          5    1    3    3  502    0  0.38250294869E+02  0.35990118890E+02  0.47218677932E+02  0.70749202547E+02  0.41800000000E+01 0. -1.
         -5    1    3    3    0  502 -0.43520953614E+02  0.62974766156E+02  0.33089603605E+03  0.33966093925E+03  0.41800000000E+01 0. -1.
        -11    1    1    2    0    0 -0.22846915288E+02  0.48711195678E+01  0.31710597589E+02  0.39386182139E+02  0.00000000000E+00 0. -1.
         11    1    1    2    0    0  0.28117574033E+02 -0.10383600461E+03  0.37621861550E+02  0.11396454839E+03  0.00000000000E+00 0.  1.
</event>
<event>
 7    1  0.2719869E-009  0.1912609E+03  0.7561462E-02  0.1157329E+00
         -2   -1    0    0    0  501 -0.00000000000E+00  0.00000000000E+00  0.36614991477E+03  0.36614991477E+03  0.00000000000E+00 0.  1.
          2   -1    0    0  501    0  0.00000000000E+00 -0.00000000000E+00 -0.12220171307E+03  0.12220171307E+03  0.00000000000E+00 0. -1.
         25    2    1    2    0    0 -0.17081521513E+03 -0.12018114661E+02  0.19629362491E+03  0.28896495269E+03  0.12508910385E+03 0.  0.
          5    1    3    3  502    0 -0.18103665287E+01  0.24892829833E+02  0.70865636843E+02  0.75248530147E+02  0.41800000000E+01 0. -1.
         -5    1    3    3    0  502 -0.16900484860E+03 -0.36910944494E+02  0.12542798807E+03  0.21371642254E+03  0.41800000000E+01 0. -1.
        -11    1    1    2    0    0  0.14301992899E+03  0.35982409175E+02  0.62004567164E+02  0.15998124955E+03  0.00000000000E+00 0.  1.
         11    1    1    2    0    0  0.27795286134E+02 -0.23964294514E+02 -0.14349990379E+02  0.39405425600E+02  0.00000000000E+00 0. -1.
</event>
<event>
 7    1  0.2719869E-009  0.1106002E+03  0.7561462E-02  0.1259462E+00
         -1   -1    0    0    0  501 -0.00000000000E+00  0.00000000000E+00  0.19497292955E+03  0.19497292955E+03  0.00000000000E+00 0.  1.
          1   -1    0    0  501    0  0.00000000000E+00 -0.00000000000E+00 -0.70982424058E+02  0.70982424058E+02  0.00000000000E+00 0. -1.
         25    2    1    2    0    0  0.35086514976E+01  0.29688826379E+02  0.29443872790E+02  0.13191084558E+03  0.12505915596E+03 0.  0.
          5    1    3    3  502    0  0.81760191843E+01 -0.48327207471E+02  0.29468701988E+01  0.49280043787E+02  0.41800000000E+01 0.  1.
         -5    1    3    3    0  502 -0.46673676867E+01  0.78016033851E+02  0.26497002591E+02  0.82630801795E+02  0.41800000000E+01 0.  1.
        -11    1    1    2    0    0 -0.83295838591E+01 -0.61250167613E+02  0.72345215362E+02  0.95156687551E+02  0.00000000000E+00 0.  1.
         11    1    1    2    0    0  0.48209323616E+01  0.31561341234E+02  0.22201417338E+02  0.38887820473E+02  0.00000000000E+00 0. -1.
</event>
<event>
 7    1  0.2719869E-009  0.1195371E+03  0.7561462E-02  0.1243863E+00
         -1   -1    0    0    0  501 -0.00000000000E+00  0.00000000000E+00  0.35638593615E+02  0.35638593615E+02  0.00000000000E+00 0.  1.
          1   -1    0    0  501    0  0.00000000000E+00 -0.00000000000E+00 -0.57760502256E+03  0.57760502256E+03  0.00000000000E+00 0. -1.
         25    2    1    2    0    0  0.62951861538E+02  0.68356668995E+02 -0.32661352077E+03  0.36188339759E+03  0.12509048898E+03 0.  0.
          5    1    3    3  502    0  0.90484236172E+02  0.72866616319E+02 -0.30481854776E+03  0.32623421069E+03  0.41800000000E+01 0.  1.
         -5    1    3    3    0  502 -0.27532374633E+02 -0.45099473232E+01 -0.21794973013E+02  0.35649186898E+02  0.41800000000E+01 0.  1.
        -11    1    1    2    0    0 -0.36500267047E+02 -0.51931809817E+02 -0.44080123806E+02  0.77280267081E+02  0.00000000000E+00 0.  1.
         11    1    1    2    0    0 -0.26451594491E+02 -0.16424859178E+02 -0.17127278437E+03  0.17407995150E+03  0.00000000000E+00 0. -1.
</event>
<event>
 7    1  0.2719869E-009  0.1987223E+03  0.7561462E-02  0.1150821E+00
         -2   -1    0    0    0  501 -0.00000000000E+00  0.00000000000E+00  0.36082372426E+02  0.36082372426E+02  0.00000000000E+00 0.  1.
          2   -1    0    0  501    0  0.00000000000E+00 -0.00000000000E+00 -0.12958534749E+04  0.12958534749E+04  0.00000000000E+00 0. -1.
         25    2    1    2    0    0  0.16360364579E+03 -0.81648246131E+02 -0.53818551194E+03  0.58199927318E+03  0.12508764809E+03 0.  0.
          5    1    3    3  502    0  0.20633095739E+02 -0.66586563109E+02 -0.10991058039E+03  0.13022021006E+03  0.41800000000E+01 0.  1.
         -5    1    3    3    0  502  0.14297055005E+03 -0.15061683022E+02 -0.42827493155E+03  0.45177906312E+03  0.41800000000E+01 0.  1.
        -11    1    1    2    0    0 -0.13003014656E+03  0.72988453855E+02 -0.67819571923E+03  0.69439512311E+03  0.00000000000E+00 0. -1.
         11    1    1    2    0    0 -0.33573499230E+02  0.86597922762E+01 -0.43389871337E+02  0.55541451074E+02  0.00000000000E+00 0.  1.
</event>
<event>
 7    1  0.2719869E-009  0.1111406E+03  0.7561462E-02  0.1258472E+00
          1   -1    0    0  501    0  0.00000000000E+00  0.00000000000E+00  0.46170038731E+02  0.46170038731E+02  0.00000000000E+00 0. -1.
         -1   -1    0    0    0  501 -0.00000000000E+00 -0.00000000000E+00 -0.44123987159E+03  0.44123987159E+03  0.00000000000E+00 0.  1.
         25    2    1    2    0    0  0.53793833708E+02  0.35370051245E+02 -0.30936721466E+03  0.33985335581E+03  0.12508961938E+03 0.  0.
          5    1    3    3  502    0  0.55506018046E+02  0.71417749234E+02 -0.14070180166E+03  0.16731970097E+03  0.41800000000E+01 0. -1.
         -5    1    3    3    0  502 -0.17121843380E+01 -0.36047697989E+02 -0.16866541301E+03  0.17253365484E+03  0.41800000000E+01 0. -1.
        -11    1    1    2    0    0 -0.18420370401E+02 -0.52834898577E+02 -0.91928556165E+02  0.10761828837E+03  0.00000000000E+00 0.  1.
         11    1    1    2    0    0 -0.35373463307E+02  0.17464847332E+02  0.62259379700E+01  0.39938266140E+02  0.00000000000E+00 0. -1.
</event>
<event>
 7    1  0.2999014E-009  0.1088541E+03  0.7561462E-02  0.1262707E+00
          3   -1    0    0  501    0  0.00000000000E+00  0.00000000000E+00  0.71915137590E+03  0.71915137590E+03  0.00000000000E+00 0. -1.
         -3   -1    0    0    0  501 -0.00000000000E+00 -0.00000000000E+00 -0.36589177897E+02  0.36589177897E+02  0.00000000000E+00 0.  1.
         25    2    1    2    0    0  0.50779207442E+02 -0.87270171603E+02  0.51750703221E+03  0.54190064693E+03  0.12509265365E+03 0.  0.
          5    1    3    3  502    0 -0.11858262011E+02 -0.19407956671E+02  0.34846500036E+03  0.34923146484E+03  0.41800000000E+01 0.  1.
         -5    1    3    3    0  502  0.62637469453E+02 -0.67862214933E+02  0.16904203185E+03  0.19266918209E+03  0.41800000000E+01 0.  1.
        -11    1    1    2    0    0 -0.11986780536E+02  0.97436677662E+01 -0.10064961284E+02  0.18437066328E+02  0.00000000000E+00 0.  1.
         11    1    1    2    0    0 -0.38792426906E+02  0.77526503837E+02  0.17512012708E+03  0.19540284054E+03  0.00000000000E+00 0. -1.
</event>
<event>
 7    1  0.2719869E-009  0.1060214E+03  0.7561462E-02  0.1268120E+00
         -3   -1    0    0    0  501 -0.00000000000E+00  0.00000000000E+00  0.78145869964E+02  0.78145869964E+02  0.00000000000E+00 0.  1.
          3   -1    0    0  501    0  0.00000000000E+00 -0.00000000000E+00 -0.15954001932E+03  0.15954001932E+03  0.00000000000E+00 0. -1.
         25    2    1    2    0    0  0.19860478041E+02  0.16333686120E+02 -0.47008190965E+02  0.13608083662E+03  0.12508795380E+03 0.  0.
          5    1    3    3  502    0  0.65451722451E+02  0.26882387311E+02 -0.18344831832E+01  0.70904361275E+02  0.41800000000E+01 0. -1.
         -5    1    3    3    0  502 -0.45591244410E+02 -0.10548701191E+02 -0.45173707781E+02  0.65176475345E+02  0.41800000000E+01 0. -1.
        -11    1    1    2    0    0 -0.14912307873E+02  0.37377053211E+02 -0.23428326324E+02  0.46565088931E+02  0.00000000000E+00 0.  1.
         11    1    1    2    0    0 -0.49481701674E+01 -0.53710739331E+02 -0.10957632072E+02  0.55039963736E+02  0.00000000000E+00 0. -1.
</event>
<event>
 7    1  0.2719869E-009  0.2445114E+03  0.7561462E-02  0.1116823E+00
          1   -1    0    0  501    0  0.00000000000E+00  0.00000000000E+00  0.65353136515E+03  0.65353136515E+03  0.00000000000E+00 0. -1.
         -1   -1    0    0    0  501 -0.00000000000E+00 -0.00000000000E+00 -0.18373037912E+03  0.18373037912E+03  0.00000000000E+00 0.  1.
         25    2    1    2    0    0  0.93044982522E+01 -0.23541494894E+03  0.51549921011E+03  0.58042612304E+03  0.12509307264E+03 0.  0.
          5    1    3    3  502    0  0.99046839371E+01 -0.26599021761E+02  0.53576499621E+01  0.29185399357E+02  0.41800000000E+01 0. -1.
         -5    1    3    3    0  502 -0.60018568486E+00 -0.20881592717E+03  0.51014156014E+03  0.55124072369E+03  0.41800000000E+01 0. -1.
        -11    1    1    2    0    0  0.39433477055E+02  0.11485600727E+03 -0.34888878631E+02  0.12634925948E+03  0.00000000000E+00 0. -1.
         11    1    1    2    0    0 -0.48737975307E+02  0.12055894167E+03 -0.10809345452E+02  0.13048636175E+03  0.00000000000E+00 0.  1.
</event>
<event>
 7    1  0.2719869E-009  0.2247992E+03  0.7561462E-02  0.1130355E+00
          2   -1    0    0  501    0  0.00000000000E+00  0.00000000000E+00  0.34693672193E+03  0.34693672193E+03  0.00000000000E+00 0. -1.
         -2   -1    0    0    0  501 -0.00000000000E+00 -0.00000000000E+00 -0.19378832169E+03  0.19378832169E+03  0.00000000000E+00 0.  1.
         25    2    1    2    0    0  0.20585055891E+03 -0.11701808477E+02  0.19621544916E+03  0.31090241113E+03  0.12509365226E+03 0.  0.
          5    1    3    3  502    0  0.11280437935E+03  0.53449610647E+02  0.79880003197E+02  0.14825645412E+03  0.41800000000E+01 0. -1.
         -5    1    3    3    0  502  0.93046179556E+02 -0.65151419124E+02  0.11633544596E+03  0.16264595701E+03  0.41800000000E+01 0. -1.
        -11    1    1    2    0    0 -0.18179194115E+03 -0.48123873106E+01 -0.65207555066E+02  0.19319289370E+03  0.00000000000E+00 0.  1.
         11    1    1    2    0    0 -0.24058617758E+02  0.16514195788E+02  0.22140506151E+02  0.36629738786E+02  0.00000000000E+00 0. -1.
</event>
<event>
 7    1  0.2719869E-009  0.1855943E+03  0.7561462E-02  0.1162496E+00
          1   -1    0    0  501    0  0.00000000000E+00  0.00000000000E+00  0.45599724322E+03  0.45599724322E+03  0.00000000000E+00 0. -1.
         -1   -1    0    0    0  501 -0.00000000000E+00 -0.00000000000E+00 -0.85947676652E+02  0.85947676652E+02  0.00000000000E+00 0.  1.
         25    2    1    2    0    0 -0.14404236174E+03  0.80183515184E+02  0.21332298265E+03  0.29721363702E+03  0.12510656666E+03 0.  0.
          5    1    3    3  502    0 -0.14732702275E+03  0.10475867744E+03  0.19605867901E+03  0.26671353574E+03  0.41800000000E+01 0. -1.
         -5    1    3    3    0  502  0.32846610137E+01 -0.24575162258E+02  0.17264303648E+02  0.30500101285E+02  0.41800000000E+01 0. -1.
        -11    1    1    2    0    0  0.58970404864E+02 -0.26692306462E+02  0.79793986347E+01  0.65220078784E+02  0.00000000000E+00 0.  1.
         11    1    1    2    0    0  0.85071956873E+02 -0.53491208722E+02  0.14874718528E+03  0.17951120407E+03  0.00000000000E+00 0. -1.
</event>
<event>
 7    1  0.2719869E-009  0.9605694E+02  0.7561462E-02  0.1288813E+00
         -2   -1    0    0    0  501 -0.00000000000E+00  0.00000000000E+00  0.12385405233E+03  0.12385405233E+03  0.00000000000E+00 0.  1.
          2   -1    0    0  501    0  0.00000000000E+00 -0.00000000000E+00 -0.14955363260E+03  0.14955363260E+03  0.00000000000E+00 0. -1.
         25    2    1    2    0    0  0.32784309615E+02 -0.30721192243E+02  0.54915447086E+02  0.14381212168E+03  0.12509043690E+03 0.  0.
          5    1    3    3  502    0  0.60650051290E+02 -0.40486631986E+02 -0.86958333846E+01  0.73557365432E+02  0.41800000000E+01 0. -1.
         -5    1    3    3    0  502 -0.27865741675E+02  0.97654397426E+01  0.63611280471E+02  0.70254756249E+02  0.41800000000E+01 0. -1.
        -11    1    1    2    0    0 -0.24453814249E+02 -0.23783941604E+02 -0.28019341922E+01  0.34227412183E+02  0.00000000000E+00 0.  1.
         11    1    1    2    0    0 -0.83304953662E+01  0.54505133847E+02 -0.77813093164E+02  0.95368151059E+02  0.00000000000E+00 0. -1.
</event>
<event>
 7    1  0.2719869E-009  0.1069757E+03  0.7561462E-02  0.1266275E+00
          1   -1    0    0  501    0  0.00000000000E+00  0.00000000000E+00  0.49639398363E+02  0.49639398363E+02  0.00000000000E+00 0. -1.
         -1   -1    0    0    0  501 -0.00000000000E+00 -0.00000000000E+00 -0.35754444465E+03  0.35754444465E+03  0.00000000000E+00 0.  1.
         25    2    1    2    0    0 -0.54196691570E+02 -0.34172057318E+02 -0.23756666630E+03  0.27601648426E+03  0.12506865222E+03 0.  0.
          5    1    3    3  502    0 -0.14281840970E+02  0.31691573120E+02 -0.11026391901E+02  0.36706682044E+02  0.41800000000E+01 0. -1.
         -5    1    3    3    0  502 -0.39914850600E+02 -0.65863630437E+02 -0.22654027440E+03  0.23930980222E+03  0.41800000000E+01 0. -1.
        -11    1    1    2    0    0  0.59998136927E+02 -0.68446598257E+01 -0.66092036979E+02  0.89525321306E+02  0.00000000000E+00 0.  1.
         11    1    1    2    0    0 -0.58014453572E+01  0.41016717143E+02 -0.42463430040E+01  0.41642037442E+02  0.00000000000E+00 0. -1.
</event>
<event>
 7    1  0.2719869E-009  0.8296974E+02  0.7561462E-02  0.1320829E+00
         -1   -1    0    0    0  501 -0.00000000000E+00  0.00000000000E+00  0.67700557544E+02  0.67700557544E+02  0.00000000000E+00 0.  1.
          1   -1    0    0  501    0  0.00000000000E+00 -0.00000000000E+00 -0.23488420549E+03  0.23488420549E+03  0.00000000000E+00 0. -1.
         25    2    1    2    0    0 -0.42701626084E+02  0.14527826639E+02 -0.14737087771E+03  0.19849510847E+03  0.12509055070E+03 0.  0.
          5    1    3    3  502    0 -0.73160038868E+02  0.15607616395E+02 -0.14994832644E+03  0.16762446713E+03  0.41800000000E+01 0.  1.
         -5    1    3    3    0  502  0.30458412784E+02 -0.10797897559E+01  0.25774487329E+01  0.30870641348E+02  0.41800000000E+01 0.  1.
        -11    1    1    2    0    0  0.19160393437E+02 -0.27390943647E+02  0.31663245258E+02  0.46042866666E+02  0.00000000000E+00 0.  1.
         11    1    1    2    0    0  0.23541232647E+02  0.12863117009E+02 -0.51476015492E+02  0.58046787892E+02  0.00000000000E+00 0. -1.
</event>
<event>
 7    1  0.2719869E-009  0.1109471E+03  0.7561462E-02  0.1258826E+00
          2   -1    0    0  501    0  0.00000000000E+00  0.00000000000E+00  0.35730220510E+02  0.35730220510E+02  0.00000000000E+00 0. -1.
         -2   -1    0    0    0  501 -0.00000000000E+00 -0.00000000000E+00 -0.38161629238E+03  0.38161629238E+03  0.00000000000E+00 0.  1.
         25    2    1    2    0    0 -0.23806969019E+02  0.32622402755E+02 -0.17049974238E+03  0.21528829686E+03  0.12509154920E+03 0.  0.
          5    1    3    3  502    0 -0.64007331394E+02 -0.12698100980E+02 -0.57812223392E+02  0.87280615341E+02  0.41800000000E+01 0. -1.
         -5    1    3    3    0  502  0.40200362375E+02  0.45320503735E+02 -0.11268751899E+03  0.12800768152E+03  0.41800000000E+01 0. -1.
        -11    1    1    2    0    0 -0.11065300292E+01 -0.59282032539E+02 -0.13602406822E+03  0.14838507649E+03  0.00000000000E+00 0.  1.
         11    1    1    2    0    0  0.24913499048E+02  0.26659629784E+02 -0.39362261277E+02  0.53673139538E+02  0.00000000000E+00 0. -1.
</event>
<event>
 7    1  0.2719869E-009  0.1150164E+03  0.7561462E-02  0.1251552E+00
          2   -1    0    0  501    0  0.00000000000E+00  0.00000000000E+00  0.55274196848E+03  0.55274196848E+03  0.00000000000E+00 0. -1.
         -2   -1    0    0    0  501 -0.00000000000E+00 -0.00000000000E+00 -0.24776416616E+02  0.24776416616E+02  0.00000000000E+00 0.  1.
         25    2    1    2    0    0 -0.19114504192E+02  0.36331837579E+02  0.27517743288E+03  0.30505041100E+03  0.12509103483E+03 0.  0.
          5    1    3    3  502    0 -0.66875743407E+02 -0.59425968045E+01  0.12825444737E+03  0.14482525741E+03  0.41800000000E+01 0.  1.
         -5    1    3    3    0  502  0.47761239216E+02  0.42274434384E+02  0.14692298551E+03  0.16022515360E+03  0.41800000000E+01 0.  1.
        -11    1    1    2    0    0 -0.27987753823E+01  0.29411660990E+02  0.48983766950E+02  0.57203919187E+02  0.00000000000E+00 0.  1.
         11    1    1    2    0    0  0.21913279574E+02 -0.65743498569E+02  0.20380435204E+03  0.21526405491E+03  0.00000000000E+00 0. -1.
</event>
<event>
 7    1  0.2719869E-009  0.9609560E+02  0.7561462E-02  0.1288727E+00
         -4   -1    0    0    0  501 -0.00000000000E+00  0.00000000000E+00  0.60754997967E+03  0.60754997967E+03  0.00000000000E+00 0.  1.
          4   -1    0    0  501    0  0.00000000000E+00 -0.00000000000E+00 -0.33731072827E+02  0.33731072827E+02  0.00000000000E+00 0. -1.
         25    2    1    2    0    0 -0.45361929875E+02  0.57297098583E+02  0.43713278403E+03  0.46051327247E+03  0.12508693401E+03 0.  0.
          5    1    3    3  502    0 -0.46558446971E+02  0.21161313797E+02  0.41447784718E+03  0.41764200985E+03  0.41800000000E+01 0. -1.
         -5    1    3    3    0  502  0.11965170961E+01  0.36135784787E+02  0.22654936853E+02  0.42871262626E+02  0.41800000000E+01 0. -1.
        -11    1    1    2    0    0  0.59671540312E+02 -0.64995600926E+02  0.71440252229E+02  0.11352898529E+03  0.00000000000E+00 0. -1.
         11    1    1    2    0    0 -0.14309610437E+02  0.76985023426E+01  0.65245870587E+02  0.67238794738E+02  0.00000000000E+00 0.  1.
</event>
<event>
 7    1  0.2719869E-009  0.1011907E+03  0.7561462E-02  0.1277812E+00
          2   -1    0    0  501    0  0.00000000000E+00  0.00000000000E+00  0.91890941312E+02  0.91890941312E+02  0.00000000000E+00 0. -1.
         -2   -1    0    0    0  501 -0.00000000000E+00 -0.00000000000E+00 -0.15107171999E+03  0.15107171999E+03  0.00000000000E+00 0.  1.
         25    2    1    2    0    0 -0.20700985571E+01 -0.26488582950E+01 -0.82733896654E+02  0.15001237768E+03  0.12509002376E+03 0.  0.
          5    1    3    3  502    0  0.41450864798E+01 -0.60643511471E+02 -0.64574032328E+02  0.88781165100E+02  0.41800000000E+01 0. -1.
         -5    1    3    3    0  502 -0.62151850369E+01  0.57994653176E+02 -0.18159864326E+02  0.61231212583E+02  0.41800000000E+01 0. -1.
        -11    1    1    2    0    0  0.24019077130E+02 -0.33178639817E+02  0.29551884224E+02  0.50507940638E+02  0.00000000000E+00 0. -1.
         11    1    1    2    0    0 -0.21948978573E+02  0.35827498112E+02 -0.59987662489E+01  0.42442342983E+02  0.00000000000E+00 0.  1.
</event>
<event>
 7    1  0.2719869E-009  0.1649541E+03  0.7561462E-02  0.1183214E+00
         -1   -1    0    0    0  501 -0.00000000000E+00  0.00000000000E+00  0.28159624259E+02  0.28159624259E+02  0.00000000000E+00 0.  1.
          1   -1    0    0  501    0  0.00000000000E+00 -0.00000000000E+00 -0.10566214699E+04  0.10566214699E+04  0.00000000000E+00 0. -1.
         25    2    1    2    0    0 -0.31629045984E+02  0.12610958480E+03 -0.63880458838E+03  0.66379409575E+03  0.12508907026E+03 0.  0.
          5    1    3    3  502    0 -0.15097192179E+02 -0.19752734327E+02 -0.18774189802E+03  0.18942700018E+03  0.41800000000E+01 0.  1.
         -5    1    3    3    0  502 -0.16531853805E+02  0.14586231912E+03 -0.45106269036E+03  0.47436709557E+03  0.41800000000E+01 0.  1.
        -11    1    1    2    0    0  0.37021107876E+02 -0.58724066898E+01 -0.11928011881E+03  0.12503117344E+03  0.00000000000E+00 0.  1.
         11    1    1    2    0    0 -0.53920618925E+01 -0.12023717811E+03 -0.27037713841E+03  0.29595582492E+03  0.00000000000E+00 0. -1.
</event>
<event>
 7    1  0.2719869E-009  0.1071604E+03  0.7561462E-02  0.1265921E+00
          1   -1    0    0  501    0  0.00000000000E+00  0.00000000000E+00  0.19442454352E+03  0.19442454352E+03  0.00000000000E+00 0. -1.
         -1   -1    0    0    0  501 -0.00000000000E+00 -0.00000000000E+00 -0.89887389050E+02  0.89887389050E+02  0.00000000000E+00 0.  1.
         25    2    1    2    0    0  0.46532195383E+02 -0.38951305520E+02  0.10848873086E+03  0.17635025726E+03  0.12508860500E+03 0.  0.
          5    1    3    3  502    0  0.73887692518E+01 -0.80123773422E+02  0.50647233187E+02  0.95168417072E+02  0.41800000000E+01 0. -1.
         -5    1    3    3    0  502  0.39143426131E+02  0.41172467902E+02  0.57841497674E+02  0.81181840183E+02  0.41800000000E+01 0. -1.
        -11    1    1    2    0    0 -0.12583378952E+02 -0.10780957529E+02  0.33272349095E+02  0.37170145081E+02  0.00000000000E+00 0. -1.
         11    1    1    2    0    0 -0.33948816431E+02  0.49732263049E+02 -0.37223925481E+02  0.70791530237E+02  0.00000000000E+00 0.  1.
</event>
<event>
 7    1  0.2719869E-009  0.1064877E+03  0.7561462E-02  0.1267216E+00
         -1   -1    0    0    0  501 -0.00000000000E+00  0.00000000000E+00  0.92756904594E+02  0.92756904594E+02  0.00000000000E+00 0.  1.
          1   -1    0    0  501    0  0.00000000000E+00 -0.00000000000E+00 -0.14897542891E+03  0.14897542891E+03  0.00000000000E+00 0. -1.
         25    2    1    2    0    0  0.36360216711E+01 -0.36561565014E+02 -0.60018082132E+02  0.14352605340E+03  0.12509032390E+03 0.  0.
          5    1    3    3  502    0 -0.31276019744E+02 -0.71108332509E+02 -0.52028735743E+02  0.93589775650E+02  0.41800000000E+01 0. -1.
         -5    1    3    3    0  502  0.34912041415E+02  0.34546767496E+02 -0.79893463895E+01  0.49936277754E+02  0.41800000000E+01 0. -1.
        -11    1    1    2    0    0  0.17721616488E+02 -0.19228211783E+02  0.23648721653E+02  0.35256798708E+02  0.00000000000E+00 0.  1.
         11    1    1    2    0    0 -0.21357638159E+02  0.55789776796E+02 -0.19849163839E+02  0.62949481394E+02  0.00000000000E+00 0. -1.
</event>
<event>
 7    1  0.2719869E-009  0.1385770E+03  0.7561462E-02  0.1215257E+00
         -1   -1    0    0    0  501 -0.00000000000E+00  0.00000000000E+00  0.34831022434E+03  0.34831022434E+03  0.00000000000E+00 0.  1.
          1   -1    0    0  501    0  0.00000000000E+00 -0.00000000000E+00 -0.65313216980E+02  0.65313216980E+02  0.00000000000E+00 0. -1.
         25    2    1    2    0    0 -0.20686982448E+02 -0.10575300353E+03  0.16523629569E+03  0.23358550846E+03  0.12508999702E+03 0.  0.
          5    1    3    3  502    0  0.28211039825E+02 -0.11202777604E+03  0.11762806430E+03  0.16492398032E+03  0.41800000000E+01 0.  1.
         -5    1    3    3    0  502 -0.48898022274E+02  0.62747725036E+01  0.47608231384E+02  0.68661528149E+02  0.41800000000E+01 0.  1.
        -11    1    1    2    0    0  0.14435689564E+02  0.13992741339E+02  0.76743629952E+02  0.79333288609E+02  0.00000000000E+00 0.  1.
         11    1    1    2    0    0  0.62512928840E+01  0.91760262192E+02  0.41017081724E+02  0.10070464425E+03  0.00000000000E+00 0. -1.
</event>
<event>
 7    1  0.2719869E-009  0.1395541E+03  0.7561462E-02  0.1213930E+00
          1   -1    0    0  501    0  0.00000000000E+00  0.00000000000E+00  0.37701140727E+03  0.37701140727E+03  0.00000000000E+00 0. -1.
         -1   -1    0    0    0  501 -0.00000000000E+00 -0.00000000000E+00 -0.56528625787E+02  0.56528625787E+02  0.00000000000E+00 0.  1.
         25    2    1    2    0    0 -0.53609028492E+02  0.74420674190E+02  0.23862878607E+03  0.28461149693E+03  0.12509053505E+03 0.  0.
          5    1    3    3  502    0  0.16597176993E+02  0.82339735554E+02  0.13740182271E+03  0.16109634266E+03  0.41800000000E+01 0. -1.
         -5    1    3    3    0  502 -0.70206205485E+02 -0.79190613643E+01  0.10122696336E+03  0.12351515427E+03  0.41800000000E+01 0. -1.
        -11    1    1    2    0    0 -0.23696596456E+00  0.17607915591E+02  0.14515668881E+02  0.22821031690E+02  0.00000000000E+00 0.  1.
         11    1    1    2    0    0  0.53845994457E+02 -0.92028589781E+02  0.67338326526E+02  0.12610750444E+03  0.00000000000E+00 0. -1.
</event>
<event>
 7    1  0.2719869E-009  0.1610685E+03  0.7561462E-02  0.1187496E+00
          1   -1    0    0  501    0  0.00000000000E+00  0.00000000000E+00  0.14790492955E+04  0.14790492955E+04  0.00000000000E+00 0. -1.
         -1   -1    0    0    0  501 -0.00000000000E+00 -0.00000000000E+00 -0.32000688329E+02  0.32000688329E+02  0.00000000000E+00 0.  1.
         25    2    1    2    0    0  0.11920975207E+03 -0.75879301051E+02  0.11843579344E+04  0.11992997512E+04  0.12509013977E+03 0.  0.
          5    1    3    3  502    0  0.13204130168E+03 -0.63442062842E+02  0.72967097502E+03  0.74424257126E+03  0.41800000000E+01 0. -1.
         -5    1    3    3    0  502 -0.12831549610E+02 -0.12437238209E+02  0.45468695937E+03  0.45505717991E+03  0.41800000000E+01 0. -1.
        -11    1    1    2    0    0 -0.14265812518E+02 -0.13308866240E+02  0.59409401046E+01  0.20394462403E+02  0.00000000000E+00 0.  1.
         11    1    1    2    0    0 -0.10494393956E+03  0.89188167291E+02  0.25674973264E+03  0.29135577022E+03  0.00000000000E+00 0. -1.
</event>
<event>
 7    1  0.2719869E-009  0.1103276E+03  0.7561462E-02  0.1259965E+00
          2   -1    0    0  501    0  0.00000000000E+00  0.00000000000E+00  0.73670868809E+03  0.73670868809E+03  0.00000000000E+00 0. -1.
         -2   -1    0    0    0  501 -0.00000000000E+00 -0.00000000000E+00 -0.18312546071E+02  0.18312546071E+02  0.00000000000E+00 0.  1.
         25    2    1    2    0    0 -0.38016016378E+02  0.85657831643E+01  0.46478065831E+03  0.48289507931E+03  0.12509199471E+03 0.  0.
          5    1    3    3  502    0  0.40176316097E+02  0.24919939578E+02  0.23045597151E+03  0.23529251362E+03  0.41800000000E+01 0. -1.
         -5    1    3    3    0  502 -0.78192332475E+02 -0.16354156414E+02  0.23432468681E+03  0.24760256569E+03  0.41800000000E+01 0. -1.
        -11    1    1    2    0    0  0.60505229162E+02 -0.24875353361E+02  0.13129066467E+03  0.14668641583E+03  0.00000000000E+00 0. -1.
         11    1    1    2    0    0 -0.22489212784E+02  0.16309570197E+02  0.12232481903E+03  0.12543973901E+03  0.00000000000E+00 0.  1.
</event>
<event>
 7    1  0.2719869E-009  0.9801400E+02  0.7561462E-02  0.1284529E+00
          2   -1    0    0  501    0  0.00000000000E+00  0.00000000000E+00  0.31765269185E+03  0.31765269185E+03  0.00000000000E+00 0. -1.
         -2   -1    0    0    0  501 -0.00000000000E+00 -0.00000000000E+00 -0.60166384433E+02  0.60166384433E+02  0.00000000000E+00 0.  1.
         25    2    1    2    0    0 -0.22369382755E+02 -0.53821657565E+02  0.54929114913E+02  0.14852996608E+03  0.12508710185E+03 0.  0.
          5    1    3    3  502    0  0.34665462033E+02 -0.65360677080E+02  0.51200907546E+02  0.90070626176E+02  0.41800000000E+01 0. -1.
         -5    1    3    3    0  502 -0.57034844788E+02  0.11539019515E+02  0.37282073670E+01  0.58459339900E+02  0.41800000000E+01 0. -1.
        -11    1    1    2    0    0  0.22702790518E+02  0.21518900996E+02  0.82985387992E+01  0.32362718421E+02  0.00000000000E+00 0.  1.
         11    1    1    2    0    0 -0.33340776340E+00  0.32302756569E+02  0.19425865370E+03  0.19692639178E+03  0.00000000000E+00 0. -1.
</event>
<event>
 7    1  0.2719869E-009  0.9949273E+02  0.7561462E-02  0.1281366E+00
         -3   -1    0    0    0  501 -0.00000000000E+00  0.00000000000E+00  0.48729364885E+02  0.48729364885E+02  0.00000000000E+00 0.  1.
          3   -1    0    0  501    0  0.00000000000E+00 -0.00000000000E+00 -0.34040619684E+03  0.34040619684E+03  0.00000000000E+00 0. -1.
         25    2    1    2    0    0  0.27114130244E+02  0.54472728652E+02 -0.20512098643E+03  0.24783980651E+03  0.12508995319E+03 0.  0.
          5    1    3    3  502    0  0.68625759665E+02  0.61413363655E+02 -0.16769300061E+03  0.19136225066E+03  0.41800000000E+01 0.  1.
         -5    1    3    3    0  502 -0.41511629421E+02 -0.69406350037E+01 -0.37427985827E+02  0.56477555848E+02  0.41800000000E+01 0.  1.
        -11    1    1    2    0    0 -0.26333239650E+02 -0.29601157114E+02 -0.10374470276E+03  0.11105238117E+03  0.00000000000E+00 0. -1.
         11    1    1    2    0    0 -0.78089059469E+00 -0.24871571538E+02  0.17188857235E+02  0.30243374050E+02  0.00000000000E+00 0.  1.
</event>
<event>
 7    1  0.2719869E-009  0.1242269E+03  0.7561462E-02  0.1236282E+00
          4   -1    0    0  501    0  0.00000000000E+00  0.00000000000E+00  0.19172771924E+03  0.19172771924E+03  0.00000000000E+00 0. -1.
         -4   -1    0    0    0  501 -0.00000000000E+00 -0.00000000000E+00 -0.11723257948E+03  0.11723257948E+03  0.00000000000E+00 0.  1.
         25    2    1    2    0    0  0.28999682239E+02 -0.87878981103E+02  0.85505433624E+02  0.17754550624E+03  0.12509009041E+03 0.  0.
          5    1    3    3  502    0  0.45883653882E+02 -0.94051170720E+02  0.16385869210E+02  0.10600425235E+03  0.41800000000E+01 0.  1.
         -5    1    3    3    0  502 -0.16883971643E+02  0.61721896175E+01  0.69119564414E+02  0.71541253888E+02  0.41800000000E+01 0.  1.
        -11    1    1    2    0    0 -0.54396978593E+02  0.30138572867E+02  0.13681143270E+02  0.63675258426E+02  0.00000000000E+00 0. -1.
         11    1    1    2    0    0  0.25397296354E+02  0.57740408235E+02 -0.24691437134E+02  0.67739534048E+02  0.00000000000E+00 0.  1.
</event>
<event>
 7    1  0.2719869E-009  0.1106097E+03  0.7561462E-02  0.1259445E+00
         -2   -1    0    0    0  501 -0.00000000000E+00  0.00000000000E+00  0.48953696317E+02  0.48953696317E+02  0.00000000000E+00 0. -1.
          2   -1    0    0  501    0  0.00000000000E+00 -0.00000000000E+00 -0.38136737852E+03  0.38136737852E+03  0.00000000000E+00 0.  1.
         25    2    1    2    0    0 -0.65838107096E+02 -0.47496529792E+02 -0.15205385111E+03  0.21297464605E+03  0.12508896649E+03 0.  0.
          5    1    3    3  502    0 -0.88014848046E+01  0.15675818083E+02 -0.12081273950E+03  0.12221451564E+03  0.41800000000E+01 0. -1.
         -5    1    3    3    0  502 -0.57036622292E+02 -0.63172347876E+02 -0.31241111611E+02  0.90760130417E+02  0.41800000000E+01 0. -1.
        -11    1    1    2    0    0  0.84146172890E+02  0.23501490070E+02 -0.15499161772E+03  0.17791936379E+03  0.00000000000E+00 0.  1.
         11    1    1    2    0    0 -0.18308065794E+02  0.23995039723E+02 -0.25368213375E+02  0.39427064997E+02  0.00000000000E+00 0. -1.
</event>
<event>
 7    1  0.2719869E-009  0.8463865E+02  0.7561462E-02  0.1316380E+00
          2   -1    0    0  501    0  0.00000000000E+00  0.00000000000E+00  0.11807146385E+04  0.11807146385E+04  0.00000000000E+00 0. -1.
         -2   -1    0    0    0  501 -0.00000000000E+00 -0.00000000000E+00 -0.15080857739E+02  0.15080857739E+02  0.00000000000E+00 0.  1.
         25    2    1    2    0    0  0.25944412933E+02  0.15755857175E+02  0.96245276763E+03  0.97102191789E+03  0.12508747143E+03 0.  0.
          5    1    3    3  502    0 -0.23839696784E+02 -0.10540130701E+02  0.47612392917E+02  0.54441141219E+02  0.41800000000E+01 0.  1.
         -5    1    3    3    0  502  0.49784109717E+02  0.26295987876E+02  0.91484037471E+03  0.91658077667E+03  0.41800000000E+01 0.  1.
        -11    1    1    2    0    0  0.58106754811E+01 -0.43722425864E+02  0.54087277173E+02  0.69791460974E+02  0.00000000000E+00 0.  1.
         11    1    1    2    0    0 -0.31755088415E+02  0.27966568689E+02  0.14909373600E+03  0.15498211742E+03  0.00000000000E+00 0. -1.
</event>
<event>
 7    1  0.2719869E-009  0.8097145E+02  0.7561462E-02  0.1326317E+00
         -1   -1    0    0    0  501 -0.00000000000E+00  0.00000000000E+00  0.15817794849E+03  0.15817794849E+03  0.00000000000E+00 0.  1.
          1   -1    0    0  501    0  0.00000000000E+00 -0.00000000000E+00 -0.93884957787E+02  0.93884957787E+02  0.00000000000E+00 0. -1.
         25    2    1    2    0    0 -0.45242850089E+02  0.52378270290E+01  0.69770720369E+02  0.15029860808E+03  0.12508943942E+03 0.  0.
          5    1    3    3  502    0 -0.26952856053E+02 -0.16479543707E+02 -0.31639207609E+02  0.44905942461E+02  0.41800000000E+01 0.  1.
         -5    1    3    3    0  502 -0.18289994036E+02  0.21717370736E+02  0.10140992798E+03  0.10539266562E+03  0.41800000000E+01 0.  1.
        -11    1    1    2    0    0  0.69381866933E+02 -0.21068066444E+02 -0.70684958930E+01  0.72853761172E+02  0.00000000000E+00 0. -1.
         11    1    1    2    0    0 -0.24139016844E+02  0.15830239415E+02  0.15907662315E+01  0.28910537030E+02  0.00000000000E+00 0.  1.
</event>
<event>
 7    1  0.2719869E-009  0.1079175E+03  0.7561462E-02  0.1264476E+00
          1   -1    0    0  501    0  0.00000000000E+00  0.00000000000E+00  0.30785725907E+03  0.30785725907E+03  0.00000000000E+00 0.  1.
         -1   -1    0    0    0  501 -0.00000000000E+00 -0.00000000000E+00 -0.61306352991E+02  0.61306352991E+02  0.00000000000E+00 0. -1.
         25    2    1    2    0    0  0.57740233584E-01  0.69605266668E+01  0.24802679552E+03  0.27787122045E+03  0.12508665634E+03 0.  0.
          5    1    3    3  502    0  0.19813582255E+01 -0.58960317793E+02  0.11294677121E+03  0.12749388370E+03  0.41800000000E+01 0. -1.
         -5    1    3    3    0  502 -0.19236179919E+01  0.65920844460E+02  0.13508002431E+03  0.15037733675E+03  0.41800000000E+01 0. -1.
        -11    1    1    2    0    0  0.18432307971E+02  0.37870405844E+02  0.48131145940E+01  0.42392023873E+02  0.00000000000E+00 0.  1.
         11    1    1    2    0    0 -0.18490048205E+02 -0.44830932511E+02 -0.62890040396E+01  0.48900367731E+02  0.00000000000E+00 0. -1.
</event>
<event>
 7    1  0.2803378E-009  0.1285459E+03  0.7561462E-02  0.1229629E+00
         -1   -1    0    0    0  501 -0.00000000000E+00  0.00000000000E+00  0.26396529639E+02  0.26396529639E+02  0.00000000000E+00 0.  1.
          1   -1    0    0  501    0  0.00000000000E+00 -0.00000000000E+00 -0.81087903481E+03  0.81087903481E+03  0.00000000000E+00 0. -1.
         25    2    1    2    0    0 -0.81084559045E+02 -0.33768253031E+02 -0.55266311580E+03  0.57341066809E+03  0.12509306170E+03 0.  0.
          5    1    3    3  502    0  0.28493667622E+02 -0.26260176687E+02 -0.20885195042E+03  0.21245727940E+03  0.41800000000E+01 0. -1.
         -5    1    3    3    0  502 -0.10957822667E+03 -0.75080763438E+01 -0.34381116538E+03  0.36095338870E+03  0.41800000000E+01 0. -1.
        -11    1    1    2    0    0  0.75316426713E+02  0.14043955941E+01 -0.21312785257E+03  0.22604870714E+03  0.00000000000E+00 0. -1.
         11    1    1    2    0    0  0.57681323321E+01  0.32363857437E+02 -0.18691536802E+02  0.37816189216E+02  0.00000000000E+00 0.  1.
</event>
<event>
 7    1  0.2719869E-009  0.1714654E+03  0.7561462E-02  0.1176328E+00
         -2   -1    0    0    0  501 -0.00000000000E+00  0.00000000000E+00  0.15529165603E+03  0.15529165603E+03  0.00000000000E+00 0.  1.
          2   -1    0    0  501    0  0.00000000000E+00 -0.00000000000E+00 -0.22200136092E+03  0.22200136092E+03  0.00000000000E+00 0. -1.
         25    2    1    2    0    0 -0.14730582583E+03  0.76256770146E+01 -0.55836506321E+01  0.19348253484E+03  0.12508859606E+03 0.  0.
          5    1    3    3  502    0 -0.11038829667E+03 -0.36746378704E+02 -0.43516436651E+02  0.12428606136E+03  0.41800000000E+01 0. -1.
         -5    1    3    3    0  502 -0.36917529161E+02  0.44372055719E+02  0.37932786019E+02  0.69196473488E+02  0.41800000000E+01 0. -1.
        -11    1    1    2    0    0  0.52285404708E+02  0.36608369915E+02 -0.28589353267E+01  0.63891390692E+02  0.00000000000E+00 0.  1.
         11    1    1    2    0    0  0.95020421118E+02 -0.44234046929E+02 -0.58267118936E+02  0.11991909142E+03  0.00000000000E+00 0. -1.
</event>
<event>
 7    1  0.2719869E-009  0.1126056E+03  0.7561462E-02  0.1255819E+00
         -1   -1    0    0    0  501 -0.00000000000E+00  0.00000000000E+00  0.25260916408E+02  0.25260916408E+02  0.00000000000E+00 0.  1.
          1   -1    0    0  501    0  0.00000000000E+00 -0.00000000000E+00 -0.64148090073E+03  0.64148090073E+03  0.00000000000E+00 0. -1.
         25    2    1    2    0    0 -0.10450606765E+02 -0.64639808469E+02 -0.30870907918E+03  0.33946286291E+03  0.12508485004E+03 0.  0.
          5    1    3    3  502    0  0.10831510233E+02  0.27539218889E+02 -0.16278222810E+03  0.16550304039E+03  0.41800000000E+01 0.  1.
         -5    1    3    3    0  502 -0.21282116998E+02 -0.92179027358E+02 -0.14592685107E+03  0.17395982252E+03  0.41800000000E+01 0.  1.
        -11    1    1    2    0    0 -0.23610707780E+02  0.62141284414E+02 -0.26244951523E+03  0.27073742407E+03  0.00000000000E+00 0. -1.
         11    1    1    2    0    0  0.34061314545E+02  0.24985240544E+01 -0.45061389924E+02  0.56541530160E+02  0.00000000000E+00 0.  1.
</event>
<event>
 7    1  0.2719869E-009  0.1047976E+03  0.7561462E-02  0.1270519E+00
          2   -1    0    0  501    0  0.00000000000E+00  0.00000000000E+00  0.19206025026E+02  0.19206025026E+02  0.00000000000E+00 0.  1.
         -2   -1    0    0    0  501 -0.00000000000E+00 -0.00000000000E+00 -0.96385632834E+03  0.96385632834E+03  0.00000000000E+00 0. -1.
         25    2    1    2    0    0 -0.56019065859E+02  0.57700560378E+02 -0.46520633629E+03  0.48839743990E+03  0.12509050151E+03 0.  0.
          5    1    3    3  502    0 -0.60772351672E+02  0.67689890060E+02 -0.16915135890E+03  0.19210636262E+03  0.41800000000E+01 0.  1.
         -5    1    3    3    0  502  0.47532858134E+01 -0.99893296824E+01 -0.29605497739E+03  0.29629107728E+03  0.41800000000E+01 0.  1.
        -11    1    1    2    0    0  0.39621527302E+02  0.67578502821E+01 -0.77985238162E+02  0.87733866536E+02  0.00000000000E+00 0.  1.
         11    1    1    2    0    0  0.16397538557E+02 -0.64458410660E+02 -0.40145872886E+03  0.40693104693E+03  0.00000000000E+00 0. -1.
</event>
<event>
 7    1  0.2719869E-009  0.8741676E+02  0.7561462E-02  0.1309231E+00
          1   -1    0    0  501    0  0.00000000000E+00  0.00000000000E+00  0.12029672110E+03  0.12029672110E+03  0.00000000000E+00 0. -1.
         -1   -1    0    0    0  501 -0.00000000000E+00 -0.00000000000E+00 -0.16214972526E+03  0.16214972526E+03  0.00000000000E+00 0.  1.
         25    2    1    2    0    0 -0.11913455156E+02 -0.51453971205E+02 -0.82473930356E+02  0.15887805175E+03  0.12510333558E+03 0.  0.
          5    1    3    3  502    0 -0.13382356772E+02  0.28278324816E+02  0.13239085589E+02  0.34227137105E+02  0.41800000000E+01 0. -1.
         -5    1    3    3    0  502  0.14689016159E+01 -0.79732296021E+02 -0.95713015944E+02  0.12465091465E+03  0.41800000000E+01 0. -1.
        -11    1    1    2    0    0 -0.11896309947E+02  0.25823703622E+02 -0.32093530059E+02  0.42876339988E+02  0.00000000000E+00 0.  1.
         11    1    1    2    0    0  0.23809765103E+02  0.25630267583E+02  0.72714456254E+02  0.80692054621E+02  0.00000000000E+00 0. -1.
</event>
<event>
 7    1  0.2719869E-009  0.8912625E+02  0.7561462E-02  0.1304981E+00
         -2   -1    0    0    0  501 -0.00000000000E+00  0.00000000000E+00  0.12532912233E+02  0.12532912233E+02  0.00000000000E+00 0. -1.
          2   -1    0    0  501    0  0.00000000000E+00 -0.00000000000E+00 -0.18438002032E+04  0.18438002032E+04  0.00000000000E+00 0.  1.
         25    2    1    2    0    0 -0.50493459202E+02  0.22697567418E+02 -0.15296339761E+04  0.15357345369E+04  0.12504278524E+03 0.  0.
          5    1    3    3  502    0 -0.46545336093E+02 -0.22617418389E+02 -0.25241923637E+03  0.25770323866E+03  0.41800000000E+01 0. -1.
         -5    1    3    3    0  502 -0.39481231094E+01  0.45314985807E+02 -0.12772147397E+04  0.12780312982E+04  0.41800000000E+01 0. -1.
        -11    1    1    2    0    0  0.31960903250E+02 -0.42733476777E+02 -0.28193247853E+03  0.28693827180E+03  0.00000000000E+00 0.  1.
         11    1    1    2    0    0  0.18532555953E+02  0.20035909359E+02 -0.19700836345E+02  0.33660306693E+02  0.00000000000E+00 0. -1.
</event>
<event>
 7    1  0.2719869E-009  0.1060099E+03  0.7561462E-02  0.1268143E+00
          2   -1    0    0  501    0  0.00000000000E+00  0.00000000000E+00  0.55532030513E+02  0.55532030513E+02  0.00000000000E+00 0. -1.
         -2   -1    0    0    0  501 -0.00000000000E+00 -0.00000000000E+00 -0.28845265768E+03  0.28845265768E+03  0.00000000000E+00 0.  1.
         25    2    1    2    0    0  0.54163126862E+02  0.67753023469E+01 -0.79653437829E+02  0.15802472177E+03  0.12509034135E+03 0.  0.
          5    1    3    3  502    0 -0.26809593003E+02 -0.64888459120E+01  0.15816683564E+02  0.32070224153E+02  0.41800000000E+01 0.  1.
         -5    1    3    3    0  502  0.80972719864E+02  0.13264148259E+02 -0.95470121393E+02  0.12595449762E+03  0.41800000000E+01 0.  1.
        -11    1    1    2    0    0  0.11528761939E+02 -0.30116332914E+02 -0.28500229258E+02  0.43036832223E+02  0.00000000000E+00 0.  1.
         11    1    1    2    0    0 -0.65691888800E+02  0.23341030567E+02 -0.12476696008E+03  0.14292313420E+03  0.00000000000E+00 0. -1.
</event>
<event>
 7    1  0.2719869E-009  0.1401060E+03  0.7561462E-02  0.1213186E+00
          2   -1    0    0  501    0  0.00000000000E+00  0.00000000000E+00  0.49486744357E+03  0.49486744357E+03  0.00000000000E+00 0. -1.
         -2   -1    0    0    0  501 -0.00000000000E+00 -0.00000000000E+00 -0.49832565439E+02  0.49832565439E+02  0.00000000000E+00 0.  1.
         25    2    1    2    0    0 -0.73983370018E+02 -0.63396328886E+02  0.34118010915E+03  0.37622384398E+03  0.12509148791E+03 0.  0.
          5    1    3    3  502    0 -0.10408127480E+03 -0.22436894227E+02  0.21019466799E+03  0.23565991776E+03  0.41800000000E+01 0. -1.
         -5    1    3    3    0  502  0.30097904787E+02 -0.40959434660E+02  0.13098544115E+03  0.14056392622E+03  0.41800000000E+01 0. -1.
        -11    1    1    2    0    0  0.22441374751E+02 -0.16307105024E+02 -0.55235276043E-01  0.27740584455E+02  0.00000000000E+00 0.  1.
         11    1    1    2    0    0  0.51541995266E+02  0.79703433910E+02  0.10391000426E+03  0.14073558057E+03  0.00000000000E+00 0. -1.
</event>
<event>
 7    1  0.2719869E-009  0.1010535E+03  0.7561462E-02  0.1278096E+00
          4   -1    0    0  501    0  0.00000000000E+00  0.00000000000E+00  0.71555178503E+03  0.71555178503E+03  0.00000000000E+00 0. -1.
         -4   -1    0    0    0  501 -0.00000000000E+00 -0.00000000000E+00 -0.16813233109E+02  0.16813233109E+02  0.00000000000E+00 0.  1.
         25    2    1    2    0    0  0.96161255536E+01 -0.24647765485E+02  0.39817432868E+03  0.41819722436E+03  0.12508453233E+03 0.  0.
          5    1    3    3  502    0  0.28629002481E+02  0.36716284245E+02  0.27764141525E+03  0.28154916653E+03  0.41800000000E+01 0. -1.
         -5    1    3    3    0  502 -0.19012876928E+02 -0.61364049730E+02  0.12053291343E+03  0.13664805783E+03  0.41800000000E+01 0. -1.
        -11    1    1    2    0    0 -0.33225805320E+02  0.47604296677E+02  0.20654920431E+03  0.21455231764E+03  0.00000000000E+00 0. -1.
         11    1    1    2    0    0  0.23609679766E+02 -0.22956531192E+02  0.94015018923E+02  0.99615476138E+02  0.00000000000E+00 0.  1.
</event>
<event>
 7    1  0.2719869E-009  0.1284395E+03  0.7561462E-02  0.1229790E+00
         -1   -1    0    0    0  501 -0.00000000000E+00  0.00000000000E+00  0.12495848837E+03  0.12495848837E+03  0.00000000000E+00 0.  1.
          1   -1    0    0  501    0  0.00000000000E+00 -0.00000000000E+00 -0.20088786658E+03  0.20088786658E+03  0.00000000000E+00 0. -1.
         25    2    1    2    0    0  0.11168477341E+03  0.13156632019E+02 -0.62809081280E+02  0.17955272624E+03  0.12509042822E+03 0.  0.
          5    1    3    3  502    0 -0.15503024385E+02  0.52004065247E+01  0.21021263233E+02  0.26958373486E+02  0.41800000000E+01 0.  1.
         -5    1    3    3    0  502  0.12718779779E+03  0.79562254940E+01 -0.83830344513E+02  0.15259435275E+03  0.41800000000E+01 0.  1.
        -11    1    1    2    0    0 -0.44225376376E+02 -0.37478758070E+01 -0.51600728264E+02  0.68062953551E+02  0.00000000000E+00 0. -1.
         11    1    1    2    0    0 -0.67459397029E+02 -0.94087562117E+01  0.38480431334E+02  0.78230675164E+02  0.00000000000E+00 0.  1.
</event>
<event>
 7    1  0.2719869E-009  0.1256813E+03  0.7561462E-02  0.1234008E+00
         -1   -1    0    0    0  501 -0.00000000000E+00  0.00000000000E+00  0.30743816147E+03  0.30743816147E+03  0.00000000000E+00 0.  1.
          1   -1    0    0  501    0  0.00000000000E+00 -0.00000000000E+00 -0.77788683744E+02  0.77788683744E+02  0.00000000000E+00 0. -1.
         25    2    1    2    0    0 -0.77715416522E+01 -0.77594949148E+02  0.26718619003E+02  0.14981017193E+03  0.12509128674E+03 0.  0.
          5    1    3    3  502    0 -0.59392506086E+02 -0.31793839043E+02  0.41331075298E+02  0.79145740034E+02  0.41800000000E+01 0.  1.
         -5    1    3    3    0  502  0.51620964433E+02 -0.45801110105E+02 -0.14612456295E+02  0.70664431893E+02  0.41800000000E+01 0.  1.
        -11    1    1    2    0    0  0.34940293348E+02  0.80155438504E+02  0.12267511260E+03  0.15064827139E+03  0.00000000000E+00 0. -1.
         11    1    1    2    0    0 -0.27168751696E+02 -0.25604893561E+01  0.80255746118E+02  0.84768401893E+02  0.00000000000E+00 0.  1.
</event>
<event>
 7    1  0.2719869E-009  0.1837770E+03  0.7561462E-02  0.1164197E+00
         -2   -1    0    0    0  501 -0.00000000000E+00  0.00000000000E+00  0.20579971294E+03  0.20579971294E+03  0.00000000000E+00 0. -1.
          2   -1    0    0  501    0  0.00000000000E+00 -0.00000000000E+00 -0.20391516951E+03  0.20391516951E+03  0.00000000000E+00 0.  1.
         25    2    1    2    0    0 -0.96411459741E+02  0.12049971418E+03 -0.77141094079E+02  0.21306889012E+03  0.12502900806E+03 0.  0.
          5    1    3    3  502    0  0.16762813768E+02  0.73975662267E+02 -0.24762366956E+02  0.79900173657E+02  0.41800000000E+01 0. -1.
         -5    1    3    3    0  502 -0.11317427351E+03  0.46524051909E+02 -0.52378727122E+02  0.13316871647E+03  0.41800000000E+01 0. -1.
        -11    1    1    2    0    0  0.18623722120E+02 -0.78643969262E+02  0.71647034752E+02  0.10800469673E+03  0.00000000000E+00 0. -1.
         11    1    1    2    0    0  0.77787737621E+02 -0.41855744913E+02  0.73786027632E+01  0.88641295597E+02  0.00000000000E+00 0.  1.
</event>
<event>
 7    1  0.2719869E-009  0.1414349E+03  0.7561462E-02  0.1211411E+00
         -1   -1    0    0    0  501 -0.00000000000E+00  0.00000000000E+00  0.27141304234E+03  0.27141304234E+03  0.00000000000E+00 0.  1.
          1   -1    0    0  501    0  0.00000000000E+00 -0.00000000000E+00 -0.86089115625E+02  0.86089115625E+02  0.00000000000E+00 0. -1.
         25    2    1    2    0    0  0.54869196141E+02 -0.90157969430E+02  0.78891142088E+02  0.18168941350E+03  0.12509253591E+03 0.  0.
          5    1    3    3  502    0  0.32701044302E+02 -0.11435995854E+03  0.87240694189E+02  0.14756683075E+03  0.41800000000E+01 0. -1.
         -5    1    3    3    0  502  0.22168151838E+02  0.24201989110E+02 -0.83495521013E+01  0.34122582743E+02  0.41800000000E+01 0. -1.
        -11    1    1    2    0    0 -0.70791274000E+02  0.90429884246E+02  0.11050619363E+03  0.15937561692E+03  0.00000000000E+00 0.  1.
         11    1    1    2    0    0  0.15922077860E+02 -0.27191481650E+00 -0.40734090020E+01  0.16437127545E+02  0.00000000000E+00 0. -1.
</event>
<event>
 7    1  0.2719869E-009  0.1256946E+03  0.7561462E-02  0.1233988E+00
         -2   -1    0    0    0  501 -0.00000000000E+00  0.00000000000E+00  0.34277253435E+02  0.34277253435E+02  0.00000000000E+00 0.  1.
          2   -1    0    0  501    0  0.00000000000E+00 -0.00000000000E+00 -0.64983013706E+03  0.64983013706E+03  0.00000000000E+00 0. -1.
         25    2    1    2    0    0  0.30847806054E+02 -0.71091196619E+02 -0.48876009243E+03  0.51043043879E+03  0.12508900635E+03 0.  0.
          5    1    3    3  502    0  0.42938627557E+02 -0.98384739265E+02 -0.44145227265E+03  0.45433562933E+03  0.41800000000E+01 0.  1.
         -5    1    3    3    0  502 -0.12090821503E+02  0.27293542645E+02 -0.47307819787E+02  0.56094809455E+02  0.41800000000E+01 0.  1.
        -11    1    1    2    0    0  0.54012220796E+01  0.76915058308E+02 -0.10723867547E+03  0.13208040321E+03  0.00000000000E+00 0. -1.
         11    1    1    2    0    0 -0.36249028133E+02 -0.58238616888E+01 -0.19554115719E+02  0.41596548500E+02  0.00000000000E+00 0.  1.
</event>
<event>
 7    1  0.2719869E-009  0.1335970E+03  0.7561462E-02  0.1222214E+00
         -4   -1    0    0    0  501 -0.00000000000E+00  0.00000000000E+00  0.52167431872E+03  0.52167431872E+03  0.00000000000E+00 0.  1.
          4   -1    0    0  501    0  0.00000000000E+00 -0.00000000000E+00 -0.46241917126E+02  0.46241917126E+02  0.00000000000E+00 0. -1.
         25    2    1    2    0    0  0.95906770726E+02 -0.49016433414E+02  0.20813539649E+03  0.26565691955E+03  0.12511009638E+03 0.  0.
          5    1    3    3  502    0  0.58197990401E+01  0.27761221822E+02  0.30563882006E+01  0.28833477188E+02  0.41800000000E+01 0.  1.
         -5    1    3    3    0  502  0.90086971686E+02 -0.76777655236E+02  0.20507900829E+03  0.23682344236E+03  0.41800000000E+01 0.  1.
        -11    1    1    2    0    0 -0.86271087157E+02  0.18702755499E+02  0.25190162227E+03  0.26692118845E+03  0.00000000000E+00 0.  1.
         11    1    1    2    0    0 -0.96356835696E+01  0.30313677915E+02  0.15395382828E+02  0.35338127837E+02  0.00000000000E+00 0. -1.
</event>
<event>
 7    1  0.2719869E-009  0.1188628E+03  0.7561462E-02  0.1244985E+00
          1   -1    0    0  501    0  0.00000000000E+00  0.00000000000E+00  0.26827705580E+03  0.26827705580E+03  0.00000000000E+00 0. -1.
         -1   -1    0    0    0  501 -0.00000000000E+00 -0.00000000000E+00 -0.59449954940E+02  0.59449954940E+02  0.00000000000E+00 0.  1.
         25    2    1    2    0    0  0.49738770316E+02  0.41005817054E+02  0.12309388065E+03  0.18696158203E+03  0.12508839834E+03 0.  0.
          5    1    3    3  502    0  0.23329158032E+02 -0.38112769257E+02  0.82919436291E+02  0.94286468328E+02  0.41800000000E+01 0. -1.
         -5    1    3    3    0  502  0.26409612284E+02  0.79118586311E+02  0.40174444356E+02  0.92675113705E+02  0.41800000000E+01 0. -1.
        -11    1    1    2    0    0  0.16069570272E+02 -0.40443672034E+02  0.48458271958E+02  0.65131603830E+02  0.00000000000E+00 0. -1.
         11    1    1    2    0    0 -0.65808340588E+02 -0.56214501969E+00  0.37274948254E+02  0.75633824875E+02  0.00000000000E+00 0.  1.
</event>
<event>
 7    1  0.2719869E-009  0.8267588E+02  0.7561462E-02  0.1321625E+00
         -2   -1    0    0    0  501 -0.00000000000E+00  0.00000000000E+00  0.18032848399E+03  0.18032848399E+03  0.00000000000E+00 0. -1.
          2   -1    0    0  501    0  0.00000000000E+00 -0.00000000000E+00 -0.90687584456E+02  0.90687584456E+02  0.00000000000E+00 0.  1.
         25    2    1    2    0    0  0.59260761657E+02 -0.15950050998E+02  0.21473911341E+02  0.14097402813E+03  0.12508519393E+03 0.  0.
          5    1    3    3  502    0 -0.13922817998E+02  0.15602899858E+02  0.51473654795E+02  0.55716289207E+02  0.41800000000E+01 0. -1.
         -5    1    3    3    0  502  0.73183579655E+02 -0.31552950856E+02 -0.29999743454E+02  0.85257738922E+02  0.41800000000E+01 0. -1.
        -11    1    1    2    0    0 -0.39394239816E+02  0.19633994357E+02 -0.13399469455E+02  0.46010277621E+02  0.00000000000E+00 0.  1.
         11    1    1    2    0    0 -0.19866521841E+02 -0.36839433594E+01  0.81566457644E+02  0.84031762693E+02  0.00000000000E+00 0. -1.
</event>
<event>
 7    1  0.2719869E-009  0.1071556E+03  0.7561462E-02  0.1265930E+00
         -1   -1    0    0    0  501 -0.00000000000E+00  0.00000000000E+00  0.34702045270E+03  0.34702045270E+03  0.00000000000E+00 0.  1.
          1   -1    0    0  501    0  0.00000000000E+00 -0.00000000000E+00 -0.46264439366E+02  0.46264439366E+02  0.00000000000E+00 0. -1.
         25    2    1    2    0    0  0.13324630593E+02 -0.43887320538E+02  0.88881758581E+02  0.16017616025E+03  0.12511112109E+03 0.  0.
          5    1    3    3  502    0  0.14273655706E+02 -0.79779979364E+02  0.21891124115E+02  0.84055196565E+02  0.41800000000E+01 0. -1.
         -5    1    3    3    0  502 -0.94902511240E+00  0.35892658825E+02  0.66990634466E+02  0.76120963685E+02  0.41800000000E+01 0. -1.
        -11    1    1    2    0    0 -0.33034997511E+02 -0.13984256408E+02  0.71301838203E+02  0.79817433052E+02  0.00000000000E+00 0.  1.
         11    1    1    2    0    0  0.19710366918E+02  0.57871576947E+02  0.14057241655E+03  0.15329129876E+03  0.00000000000E+00 0. -1.
</event>
<event>
 7    1  0.2719869E-009  0.9400922E+02  0.7561462E-02  0.1293423E+00
         -2   -1    0    0    0  501 -0.00000000000E+00  0.00000000000E+00  0.36930171051E+03  0.36930171051E+03  0.00000000000E+00 0. -1.
          2   -1    0    0  501    0  0.00000000000E+00 -0.00000000000E+00 -0.37825540948E+02  0.37825540948E+02  0.00000000000E+00 0.  1.
         25    2    1    2    0    0 -0.47717996641E+02  0.14482087139E+02  0.14812303434E+03  0.20018470192E+03  0.12508694388E+03 0.  0.
          5    1    3    3  502    0 -0.58589356327E+02 -0.14809190890E+02  0.13688138171E+02  0.62103641892E+02  0.41800000000E+01 0.  1.
         -5    1    3    3    0  502  0.10871359687E+02  0.29291278029E+02  0.13443489617E+03  0.13808106003E+03  0.41800000000E+01 0.  1.
        -11    1    1    2    0    0  0.14554945908E+01 -0.42044226559E+02  0.77761139316E+02  0.88411708722E+02  0.00000000000E+00 0.  1.
         11    1    1    2    0    0  0.46262502050E+02  0.27562139420E+02  0.10559199591E+03  0.11853084082E+03  0.00000000000E+00 0. -1.
</event>
<event>
 7    1  0.2719869E-009  0.2212099E+03  0.7561462E-02  0.1132984E+00
          2   -1    0    0  501    0  0.00000000000E+00  0.00000000000E+00  0.10645902340E+04  0.10645902340E+04  0.00000000000E+00 0. -1.
         -2   -1    0    0    0  501 -0.00000000000E+00 -0.00000000000E+00 -0.52771148694E+02  0.52771148694E+02  0.00000000000E+00 0.  1.
         25    2    1    2    0    0 -0.12328779175E+03 -0.15698997558E+03  0.68255015221E+03  0.72205798380E+03  0.12508912688E+03 0.  0.
          5    1    3    3  502    0 -0.13808168871E+03 -0.11721817338E+03  0.44086676192E+03  0.47664203244E+03  0.41800000000E+01 0. -1.
         -5    1    3    3    0  502  0.14793896965E+02 -0.39771802198E+02  0.24168339029E+03  0.24541595135E+03  0.41800000000E+01 0. -1.
        -11    1    1    2    0    0  0.51238341900E+02  0.13322494956E+03  0.20837445422E+03  0.25257507406E+03  0.00000000000E+00 0.  1.
         11    1    1    2    0    0  0.72049449847E+02  0.23765026020E+02  0.12089447886E+03  0.14272832481E+03  0.00000000000E+00 0. -1.
</event>
<event>
 7    1  0.2719869E-009  0.1144913E+03  0.7561462E-02  0.1252472E+00
         -2   -1    0    0    0  501 -0.00000000000E+00  0.00000000000E+00  0.17999073096E+02  0.17999073096E+02  0.00000000000E+00 0.  1.
          2   -1    0    0  501    0  0.00000000000E+00 -0.00000000000E+00 -0.11283802031E+04  0.11283802031E+04  0.00000000000E+00 0. -1.
         25    2    1    2    0    0  0.85548267707E+02 -0.12440182944E+02 -0.69883146084E+03  0.71518225522E+03  0.12508790215E+03 0.  0.
          5    1    3    3  502    0  0.89047200177E+02  0.76710367036E+01 -0.68345290063E+03  0.68928483839E+03  0.41800000000E+01 0. -1.
         -5    1    3    3    0  502 -0.34989324691E+01 -0.20111219648E+02 -0.15378560214E+02  0.25897416829E+02  0.41800000000E+01 0. -1.
        -11    1    1    2    0    0  0.10175623407E+02  0.20215272342E+02 -0.29053232021E+02  0.36827854112E+02  0.00000000000E+00 0.  1.
         11    1    1    2    0    0 -0.95723891115E+02 -0.77750893983E+01 -0.38249643713E+03  0.39436916685E+03  0.00000000000E+00 0. -1.
</event>
<event>
 7    1  0.2719869E-009  0.1126039E+03  0.7561462E-02  0.1255822E+00
          2   -1    0    0  501    0  0.00000000000E+00  0.00000000000E+00  0.12905631876E+03  0.12905631876E+03  0.00000000000E+00 0. -1.
         -2   -1    0    0    0  501 -0.00000000000E+00 -0.00000000000E+00 -0.10863530892E+03  0.10863530892E+03  0.00000000000E+00 0.  1.
         25    2    1    2    0    0 -0.11785431297E+01  0.44516130082E+02  0.46145111563E+02  0.14057273804E+03  0.12509295967E+03 0.  0.
          5    1    3    3  502    0  0.54344706844E+02  0.52301090217E+02  0.35012280305E+02  0.83259133866E+02  0.41800000000E+01 0.  1.
         -5    1    3    3    0  502 -0.55523249974E+02 -0.77849601358E+01  0.11132831258E+02  0.57313604178E+02  0.41800000000E+01 0.  1.
        -11    1    1    2    0    0  0.31617974936E+02  0.81185071615E+01 -0.12057111911E+02  0.34799144317E+02  0.00000000000E+00 0. -1.
         11    1    1    2    0    0 -0.30439431806E+02 -0.52634637243E+02 -0.13666989807E+02  0.62319745320E+02  0.00000000000E+00 0.  1.
</event>
<event>
 7    1  0.2719869E-009  0.1042960E+03  0.7561462E-02  0.1271513E+00
          2   -1    0    0  501    0  0.00000000000E+00  0.00000000000E+00  0.21587646053E+03  0.21587646053E+03  0.00000000000E+00 0. -1.
         -2   -1    0    0    0  501 -0.00000000000E+00 -0.00000000000E+00 -0.74050871614E+02  0.74050871614E+02  0.00000000000E+00 0.  1.
         25    2    1    2    0    0  0.34537792877E+02 -0.10916823684E+02  0.14248371152E+03  0.19303092688E+03  0.12508914625E+03 0.  0.
          5    1    3    3  502    0 -0.14401124568E+02 -0.48046301454E+02  0.11514034416E+03  0.12566069682E+03  0.41800000000E+01 0. -1.
         -5    1    3    3    0  502  0.48938917446E+02  0.37129477769E+02  0.27343367363E+02  0.67370230065E+02  0.41800000000E+01 0. -1.
        -11    1    1    2    0    0 -0.26027850759E+01 -0.38098534780E+02 -0.33473959616E+01  0.38333769737E+02  0.00000000000E+00 0.  1.
         11    1    1    2    0    0 -0.31935007802E+02  0.49015358465E+02  0.26892733609E+01  0.58562635527E+02  0.00000000000E+00 0. -1.
</event>
<event>
 7    1  0.2719869E-009  0.2231550E+03  0.7561462E-02  0.1131552E+00
         -2   -1    0    0    0  501 -0.00000000000E+00  0.00000000000E+00  0.62334734635E+03  0.62334734635E+03  0.00000000000E+00 0.  1.
          2   -1    0    0  501    0  0.00000000000E+00 -0.00000000000E+00 -0.96008155271E+02  0.96008155271E+02  0.00000000000E+00 0. -1.
         25    2    1    2    0    0 -0.13873611667E+03 -0.15042505645E+03  0.15648885978E+03  0.28637892728E+03  0.12509484033E+03 0.  0.
          5    1    3    3  502    0 -0.23424906928E+02  0.14425941106E+02 -0.51216253679E+01  0.28293771183E+02  0.41800000000E+01 0. -1.
         -5    1    3    3    0  502 -0.11531120974E+03 -0.16485099756E+03  0.16161048515E+03  0.25808515610E+03  0.41800000000E+01 0. -1.
        -11    1    1    2    0    0  0.10211331324E+03  0.14897363856E+03  0.26280214962E+03  0.31888123741E+03  0.00000000000E+00 0. -1.
         11    1    1    2    0    0  0.36622803437E+02  0.14514178856E+01  0.10804818168E+03  0.11409533694E+03  0.00000000000E+00 0.  1.
</event>
<event>
 7    1  0.2719869E-009  0.1035274E+03  0.7561462E-02  0.1273048E+00
         -3   -1    0    0    0  501 -0.00000000000E+00  0.00000000000E+00  0.66140542735E+03  0.66140542735E+03  0.00000000000E+00 0.  1.
          3   -1    0    0  501    0  0.00000000000E+00 -0.00000000000E+00 -0.27063915851E+02  0.27063915851E+02  0.00000000000E+00 0. -1.
         25    2    1    2    0    0 -0.68322433526E+02  0.41879506214E+01  0.25554737412E+03  0.29264009626E+03  0.12509305203E+03 0.  0.
          5    1    3    3  502    0 -0.68447196610E+02 -0.35697730899E+02  0.23537891969E+03  0.24774998476E+03  0.41800000000E+01 0.  1.
         -5    1    3    3    0  502  0.12476308473E+00  0.39885681520E+02  0.20168454430E+02  0.44890111498E+02  0.41800000000E+01 0.  1.
        -11    1    1    2    0    0  0.86713946773E+00  0.18463415683E+02  0.11640404310E+02  0.21843732786E+02  0.00000000000E+00 0. -1.
         11    1    1    2    0    0  0.67455294058E+02 -0.22651366304E+02  0.36715373307E+03  0.37398551416E+03  0.00000000000E+00 0.  1.
</event>
<event>
 7    1  0.2719869E-009  0.1183161E+03  0.7561462E-02  0.1245901E+00
          1   -1    0    0  501    0  0.00000000000E+00  0.00000000000E+00  0.71131668082E+02  0.71131668082E+02  0.00000000000E+00 0. -1.
         -1   -1    0    0    0  501 -0.00000000000E+00 -0.00000000000E+00 -0.26047470652E+03  0.26047470652E+03  0.00000000000E+00 0.  1.
         25    2    1    2    0    0 -0.48982135122E+02  0.11941366339E+02 -0.25061452674E+02  0.13717684590E+03  0.12509022683E+03 0.  0.
          5    1    3    3  502    0 -0.63890434216E+02 -0.42131280906E+02 -0.28318215087E+01  0.76697614227E+02  0.41800000000E+01 0. -1.
         -5    1    3    3    0  502  0.14908299093E+02  0.54072647244E+02 -0.22229631165E+02  0.60479231672E+02  0.41800000000E+01 0. -1.
        -11    1    1    2    0    0  0.26760474675E+02 -0.51687889276E+02 -0.85420277595E+02  0.10336529750E+03  0.00000000000E+00 0.  1.
         11    1    1    2    0    0  0.22221660448E+02  0.39746522938E+02 -0.78861308172E+02  0.91064231207E+02  0.00000000000E+00 0. -1.
</event>
<event>
 7    1  0.2719869E-009  0.1219886E+03  0.7561462E-02  0.1239852E+00
          1   -1    0    0  501    0  0.00000000000E+00  0.00000000000E+00  0.20392495806E+04  0.20392495806E+04  0.00000000000E+00 0. -1.
         -1   -1    0    0    0  501 -0.00000000000E+00 -0.00000000000E+00 -0.11319196600E+02  0.11319196600E+02  0.00000000000E+00 0.  1.
         25    2    1    2    0    0 -0.38647982400E+02  0.58749827577E+02  0.16304423474E+04  0.16367452354E+04  0.12509000310E+03 0.  0.
          5    1    3    3  502    0  0.17417610344E+02 -0.23644727766E+02  0.76476553569E+03  0.76534060605E+03  0.41800000000E+01 0. -1.
         -5    1    3    3    0  502 -0.56065592743E+02  0.82394555343E+02  0.86567681168E+03  0.87140462938E+03  0.41800000000E+01 0. -1.
        -11    1    1    2    0    0  0.68478316763E+02 -0.42531176989E+02  0.29748477148E+03  0.30821318944E+03  0.00000000000E+00 0. -1.
         11    1    1    2    0    0 -0.29830334363E+02 -0.16218650588E+02  0.10000326517E+03  0.10561035233E+03  0.00000000000E+00 0.  1.
</event>
<event>
 7    1  0.2719869E-009  0.1182344E+03  0.7561462E-02  0.1246038E+00
          2   -1    0    0  501    0  0.00000000000E+00  0.00000000000E+00  0.33318476855E+03  0.33318476855E+03  0.00000000000E+00 0. -1.
         -2   -1    0    0    0  501 -0.00000000000E+00 -0.00000000000E+00 -0.42863004248E+02  0.42863004248E+02  0.00000000000E+00 0.  1.
         25    2    1    2    0    0  0.33746866835E+02 -0.39569747726E+02  0.16448409293E+03  0.21309078605E+03  0.12509216729E+03 0.  0.
          5    1    3    3  502    0  0.76093260896E+02 -0.14042343217E+01  0.11209596545E+03  0.13555491175E+03  0.41800000000E+01 0. -1.
         -5    1    3    3    0  502 -0.42346394061E+02 -0.38165513405E+02  0.52388127473E+02  0.77535874300E+02  0.41800000000E+01 0. -1.
        -11    1    1    2    0    0 -0.50507941618E+02 -0.93589915227E+01  0.55125311178E+02  0.75348807696E+02  0.00000000000E+00 0.  1.
         11    1    1    2    0    0  0.16761074783E+02  0.48928739249E+02  0.70712360194E+02  0.87608179051E+02  0.00000000000E+00 0. -1.
</event>
<event>
 7    1  0.2719869E-009  0.9912934E+02  0.7561462E-02  0.1282138E+00
          2   -1    0    0  501    0  0.00000000000E+00  0.00000000000E+00  0.42106635242E+02  0.42106635242E+02  0.00000000000E+00 0. -1.
         -2   -1    0    0    0  501 -0.00000000000E+00 -0.00000000000E+00 -0.36348159002E+03  0.36348159002E+03  0.00000000000E+00 0.  1.
         25    2    1    2    0    0  0.96620477194E+01 -0.46741983710E+02 -0.29432492000E+03  0.32334623338E+03  0.12508980734E+03 0.  0.
          5    1    3    3  502    0  0.12023876122E+02 -0.86301521962E+02 -0.24418227086E+03  0.25929708847E+03  0.41800000000E+01 0.  1.
         -5    1    3    3    0  502 -0.23618284024E+01  0.39559538252E+02 -0.50142649138E+02  0.64049144902E+02  0.41800000000E+01 0.  1.
        -11    1    1    2    0    0 -0.55752717602E+01 -0.11504298381E+02  0.70755255154E+01  0.14611488554E+02  0.00000000000E+00 0. -1.
         11    1    1    2    0    0 -0.40867759592E+01  0.58246282091E+02 -0.34125560296E+02  0.67630503330E+02  0.00000000000E+00 0.  1.
</event>
<event>
 7    1  0.2719869E-009  0.1156064E+03  0.7561462E-02  0.1250526E+00
         -2   -1    0    0    0  501 -0.00000000000E+00  0.00000000000E+00  0.23964144716E+03  0.23964144716E+03  0.00000000000E+00 0.  1.
          2   -1    0    0  501    0  0.00000000000E+00 -0.00000000000E+00 -0.96256858282E+02  0.96256858282E+02  0.00000000000E+00 0. -1.
         25    2    1    2    0    0 -0.69985806916E+02 -0.16448294967E+02 -0.10319607417E+02  0.14464860345E+03  0.12509262410E+03 0.  0.
          5    1    3    3  502    0  0.34221789208E+02 -0.83794803516E+01 -0.17960571479E+02  0.39766833862E+02  0.41800000000E+01 0.  1.
         -5    1    3    3    0  502 -0.10420759612E+03 -0.80688146156E+01  0.76409640621E+01  0.10488176958E+03  0.41800000000E+01 0.  1.
        -11    1    1    2    0    0  0.29521311094E+02 -0.20814913223E+02  0.12312278601E+03  0.12831207603E+03  0.00000000000E+00 0.  1.
         11    1    1    2    0    0  0.40464495822E+02  0.37263208190E+02  0.30581410286E+02  0.62937625963E+02  0.00000000000E+00 0. -1.
</event>
<event>
 7    1  0.2719869E-009  0.8973011E+02  0.7561462E-02  0.1303507E+00
         -4   -1    0    0    0  501 -0.00000000000E+00  0.00000000000E+00  0.18453480362E+02  0.18453480362E+02  0.00000000000E+00 0.  1.
          4   -1    0    0  501    0  0.00000000000E+00 -0.00000000000E+00 -0.70693632505E+03  0.70693632505E+03  0.00000000000E+00 0. -1.
         25    2    1    2    0    0 -0.32426199306E+02  0.14696076447E+02 -0.39403828547E+03  0.41494686614E+03  0.12508916115E+03 0.  0.
          5    1    3    3  502    0 -0.18579125102E+02 -0.34610761432E+02 -0.33222273820E+03  0.33456316126E+03  0.41800000000E+01 0.  1.
         -5    1    3    3    0  502 -0.13847074204E+02  0.49306837878E+02 -0.61815547275E+02  0.80383704882E+02  0.41800000000E+01 0.  1.
        -11    1    1    2    0    0  0.19810836454E+02 -0.48553907313E+02 -0.23580424352E+03  0.24156488242E+03  0.00000000000E+00 0. -1.
         11    1    1    2    0    0  0.12615362852E+02  0.33857830867E+02 -0.58640315704E+02  0.68878056860E+02  0.00000000000E+00 0.  1.
</event>
<event>
 7    1  0.2719869E-009  0.5590511E+02  0.7561462E-02  0.1415866E+00
          1   -1    0    0  501    0  0.00000000000E+00  0.00000000000E+00  0.26556395007E+03  0.26556395007E+03  0.00000000000E+00 0. -1.
         -1   -1    0    0    0  501 -0.00000000000E+00 -0.00000000000E+00 -0.94261711641E+02  0.94261711641E+02  0.00000000000E+00 0.  1.
         25    2    1    2    0    0  0.11930783454E+02  0.24169479474E+02 -0.34579928313E+02  0.13254989526E+03  0.12508875233E+03 0.  0.
          5    1    3    3  502    0  0.88561255224E+01  0.66759770426E+01  0.47248175804E+02  0.48712032862E+02  0.41800000000E+01 0.  1.
         -5    1    3    3    0  502  0.30746579311E+01  0.17493502432E+02 -0.81828104117E+02  0.83837862402E+02  0.41800000000E+01 0.  1.
        -11    1    1    2    0    0 -0.44670542760E+02 -0.87384669339E+01  0.51608287002E+02  0.68813032793E+02  0.00000000000E+00 0.  1.
         11    1    1    2    0    0  0.32739759306E+02 -0.15431012540E+02  0.15427387974E+03  0.15846273366E+03  0.00000000000E+00 0. -1.
</event>
<event>
 7    1  0.2719869E-009  0.1380263E+03  0.7561462E-02  0.1216010E+00
         -1   -1    0    0    0  501 -0.00000000000E+00  0.00000000000E+00  0.32376537476E+03  0.32376537476E+03  0.00000000000E+00 0.  1.
          1   -1    0    0  501    0  0.00000000000E+00 -0.00000000000E+00 -0.74758899597E+02  0.74758899597E+02  0.00000000000E+00 0. -1.
         25    2    1    2    0    0  0.67824013683E+02  0.87002613443E+02  0.14460163502E+03  0.22074033430E+03  0.12508841177E+03 0.  0.
          5    1    3    3  502    0  0.58727982466E+02 -0.16973216298E+02  0.41742299854E+02  0.74141472829E+02  0.41800000000E+01 0. -1.
         -5    1    3    3    0  502  0.90960312166E+01  0.10397582974E+03  0.10285933516E+03  0.14659886147E+03  0.41800000000E+01 0. -1.
        -11    1    1    2    0    0 -0.23575581739E+02 -0.29351202698E+02 -0.12895906414E+02  0.39794541792E+02  0.00000000000E+00 0. -1.
         11    1    1    2    0    0 -0.44248431944E+02 -0.57651410745E+02  0.11730074656E+03  0.13798939827E+03  0.00000000000E+00 0.  1.
</event>
<event>
 7    1  0.2719869E-009  0.8322469E+02  0.7561462E-02  0.1320142E+00
          1   -1    0    0  501    0  0.00000000000E+00  0.00000000000E+00  0.11064817656E+03  0.11064817656E+03  0.00000000000E+00 0. -1.
         -1   -1    0    0    0  501 -0.00000000000E+00 -0.00000000000E+00 -0.22881221944E+03  0.22881221944E+03  0.00000000000E+00 0.  1.
         25    2    1    2    0    0  0.40411869494E+02 -0.16594525615E+02  0.51448834292E+02  0.14213403647E+03  0.12508638734E+03 0.  0.
          5    1    3    3  502    0  0.26236846622E+02 -0.50229736656E+02 -0.21260348527E+02  0.60670201785E+02  0.41800000000E+01 0. -1.
         -5    1    3    3    0  502  0.14175022872E+02  0.33635211041E+02  0.72709182819E+02  0.81463834684E+02  0.41800000000E+01 0. -1.
        -11    1    1    2    0    0 -0.36877779346E+02 -0.15930178287E+02 -0.15733472131E+03  0.16238212870E+03  0.00000000000E+00 0.  1.
         11    1    1    2    0    0 -0.35340901484E+01  0.32524703901E+02 -0.12278155863E+02  0.34944230832E+02  0.00000000000E+00 0. -1.
</event>
<event>
 7    1  0.2719869E-009  0.7846621E+02  0.7561462E-02  0.1333461E+00
          1   -1    0    0  501    0  0.00000000000E+00  0.00000000000E+00  0.35169117359E+02  0.35169117359E+02  0.00000000000E+00 0. -1.
         -1   -1    0    0    0  501 -0.00000000000E+00 -0.00000000000E+00 -0.42260660774E+03  0.42260660774E+03  0.00000000000E+00 0.  1.
         25    2    1    2    0    0 -0.47389256075E+02 -0.25882388974E+02 -0.19897821301E+03  0.24115501775E+03  0.12509106157E+03 0.  0.
          5    1    3    3  502    0 -0.78800675597E+01 -0.34126771284E+02  0.27558257601E+01  0.35380771029E+02  0.41800000000E+01 0. -1.
         -5    1    3    3    0  502 -0.39509188516E+02  0.82443823102E+01 -0.20173403877E+03  0.20577424672E+03  0.41800000000E+01 0. -1.
        -11    1    1    2    0    0  0.36795469220E+02  0.45663672053E+02 -0.18480400243E+03  0.19388552502E+03  0.00000000000E+00 0.  1.
         11    1    1    2    0    0  0.10593786856E+02 -0.19781283080E+02 -0.36552749422E+01  0.22735182320E+02  0.00000000000E+00 0. -1.
</event>
<event>
 7    1  0.2719869E-009  0.1552872E+03  0.7561462E-02  0.1194123E+00
         -2   -1    0    0    0  501 -0.00000000000E+00  0.00000000000E+00  0.28685572689E+02  0.28685572689E+02  0.00000000000E+00 0.  1.
          2   -1    0    0  501    0  0.00000000000E+00 -0.00000000000E+00 -0.96614555015E+03  0.96614555015E+03  0.00000000000E+00 0. -1.
         25    2    1    2    0    0  0.34515382997E+02  0.95589498755E+02 -0.52927763657E+03  0.55327302732E+03  0.12509021643E+03 0.  0.
          5    1    3    3  502    0  0.60209908324E+02  0.10039832854E+03 -0.29350007827E+03  0.31601396453E+03  0.41800000000E+01 0.  1.
         -5    1    3    3    0  502 -0.25694525327E+02 -0.48088297844E+01 -0.23577755831E+03  0.23725906279E+03  0.41800000000E+01 0.  1.
        -11    1    1    2    0    0 -0.76854160184E+02 -0.18565205966E+02 -0.16463374109E+03  0.18263487486E+03  0.00000000000E+00 0. -1.
         11    1    1    2    0    0  0.42338777187E+02 -0.77024292790E+02 -0.24354859980E+03  0.25892322066E+03  0.00000000000E+00 0.  1.
</event>
<event>
 7    1  0.2719869E-009  0.1363190E+03  0.7561462E-02  0.1218370E+00
          1   -1    0    0  501    0  0.00000000000E+00  0.00000000000E+00  0.25622724995E+03  0.25622724995E+03  0.00000000000E+00 0. -1.
         -1   -1    0    0    0  501 -0.00000000000E+00 -0.00000000000E+00 -0.78578260542E+02  0.78578260542E+02  0.00000000000E+00 0.  1.
         25    2    1    2    0    0  0.89419953004E+02  0.15051629907E+02  0.81551819219E+02  0.17470458093E+03  0.12509401193E+03 0.  0.
          5    1    3    3  502    0 -0.26947348060E+02  0.60908774640E+01  0.43826623888E+02  0.51975991738E+02  0.41800000000E+01 0. -1.
         -5    1    3    3    0  502  0.11636730106E+03  0.89607524425E+01  0.37725195331E+02  0.12272858919E+03  0.41800000000E+01 0. -1.
        -11    1    1    2    0    0 -0.47609871831E+02  0.37607176402E+02  0.49369595660E+02  0.78219924497E+02  0.00000000000E+00 0.  1.
         11    1    1    2    0    0 -0.41810081173E+02 -0.52658806308E+02  0.46727574524E+02  0.81881005065E+02  0.00000000000E+00 0. -1.
</event>
<event>
 7    1  0.2719869E-009  0.1128756E+03  0.7561462E-02  0.1255335E+00
          2   -1    0    0  501    0  0.00000000000E+00  0.00000000000E+00  0.21052164346E+03  0.21052164346E+03  0.00000000000E+00 0. -1.
         -2   -1    0    0    0  501 -0.00000000000E+00 -0.00000000000E+00 -0.12120383342E+03  0.12120383342E+03  0.00000000000E+00 0.  1.
         25    2    1    2    0    0  0.10138345177E+03  0.12330474383E+02  0.10503587268E+03  0.19264775742E+03  0.12509987609E+03 0.  0.
          5    1    3    3  502    0  0.54034407210E+02  0.25678830404E+02  0.12558544428E+03  0.13917002446E+03  0.41800000000E+01 0. -1.
         -5    1    3    3    0  502  0.47349044560E+02 -0.13348356022E+02 -0.20549571600E+02  0.53477732956E+02  0.41800000000E+01 0. -1.
        -11    1    1    2    0    0 -0.31119705257E+01  0.14265477407E+02  0.25386628186E+02  0.29285988063E+02  0.00000000000E+00 0. -1.
         11    1    1    2    0    0 -0.98271481244E+02 -0.26595951789E+02 -0.41104690821E+02  0.10979173141E+03  0.00000000000E+00 0.  1.
</event>
<event>
 7    1  0.2719869E-009  0.1627348E+03  0.7561462E-02  0.1185643E+00
         -3   -1    0    0    0  501 -0.00000000000E+00  0.00000000000E+00  0.11880522705E+04  0.11880522705E+04  0.00000000000E+00 0.  1.
          3   -1    0    0  501    0  0.00000000000E+00 -0.00000000000E+00 -0.29729520925E+02  0.29729520925E+02  0.00000000000E+00 0. -1.
         25    2    1    2    0    0  0.80984818819E+02  0.11471239173E+03  0.81130579357E+03  0.83281585461E+03  0.12509070038E+03 0.  0.
          5    1    3    3  502    0  0.96060156411E+02  0.86384918147E+02  0.40281456722E+03  0.42304486251E+03  0.41800000000E+01 0. -1.
         -5    1    3    3    0  502 -0.15075337591E+02  0.28327473579E+02  0.40849122635E+03  0.40977099210E+03  0.41800000000E+01 0. -1.
        -11    1    1    2    0    0 -0.49128320681E+02 -0.12169690475E+03  0.24605142337E+03  0.27886382243E+03  0.00000000000E+00 0.  1.
         11    1    1    2    0    0 -0.31856498139E+02  0.69845130250E+01  0.10096553265E+03  0.10610211440E+03  0.00000000000E+00 0. -1.
</event>
<event>
 7    1  0.2719869E-009  0.9579180E+02  0.7561462E-02  0.1289403E+00
          1   -1    0    0  501    0  0.00000000000E+00  0.00000000000E+00  0.81706690330E+03  0.81706690330E+03  0.00000000000E+00 0. -1.
         -1   -1    0    0    0  501 -0.00000000000E+00 -0.00000000000E+00 -0.15028267431E+02  0.15028267431E+02  0.00000000000E+00 0.  1.
         25    2    1    2    0    0  0.15670543410E+02  0.90991377092E+01  0.53078679059E+03  0.54562860862E+03  0.12509037232E+03 0.  0.
          5    1    3    3  502    0 -0.37611135168E+02 -0.35673226731E+02  0.15683178747E+03  0.16522971450E+03  0.41800000000E+01 0.  1.
         -5    1    3    3    0  502  0.53281678578E+02  0.44772364440E+02  0.37395500312E+03  0.38039889412E+03  0.41800000000E+01 0.  1.
        -11    1    1    2    0    0  0.17251141277E+02  0.19650707214E+02  0.24365669877E+02  0.35741265198E+02  0.00000000000E+00 0.  1.
         11    1    1    2    0    0 -0.32921684687E+02 -0.28749844923E+02  0.24688617540E+03  0.25072529691E+03  0.00000000000E+00 0. -1.
</event>
<event>
 7    1  0.2719869E-009  0.8958522E+02  0.7561462E-02  0.1303859E+00
         -2   -1    0    0    0  501 -0.00000000000E+00  0.00000000000E+00  0.44576767814E+03  0.44576767814E+03  0.00000000000E+00 0.  1.
          2   -1    0    0  501    0  0.00000000000E+00 -0.00000000000E+00 -0.47322950195E+02  0.47322950195E+02  0.00000000000E+00 0. -1.
         25    2    1    2    0    0 -0.51842675106E+02 -0.20529566758E+02  0.81649995853E+02  0.15944642891E+03  0.12508923134E+03 0.  0.
          5    1    3    3  502    0 -0.14423814217E+02  0.30148824646E+02 -0.20449512171E+02  0.39403717999E+02  0.41800000000E+01 0.  1.
         -5    1    3    3    0  502 -0.37418860889E+02 -0.50678391404E+02  0.10209950802E+03  0.12004271092E+03  0.41800000000E+01 0.  1.
        -11    1    1    2    0    0  0.61172087673E+02  0.30792132457E+02  0.31127015910E+03  0.31871506346E+03  0.00000000000E+00 0.  1.
         11    1    1    2    0    0 -0.93294125670E+01 -0.10262565699E+02  0.55245729859E+01  0.14929135951E+02  0.00000000000E+00 0. -1.
</event>
<event>
 7    1  0.2719869E-009  0.1419372E+03  0.7561462E-02  0.1210746E+00
          1   -1    0    0  501    0  0.00000000000E+00  0.00000000000E+00  0.13420057532E+03  0.13420057532E+03  0.00000000000E+00 0. -1.
         -1   -1    0    0    0  501 -0.00000000000E+00 -0.00000000000E+00 -0.25832509940E+03  0.25832509940E+03  0.00000000000E+00 0.  1.
         25    2    1    2    0    0 -0.10357440392E+02  0.12423669508E+03  0.24437992390E+02  0.17828721327E+03  0.12508829669E+03 0.  0.
          5    1    3    3  502    0  0.15976822946E+02 -0.71600554935E+01  0.39461851180E+02  0.43373210218E+02  0.41800000000E+01 0.  1.
         -5    1    3    3    0  502 -0.26334263338E+02  0.13139675057E+03 -0.15023858790E+02  0.13491400305E+03  0.41800000000E+01 0.  1.
        -11    1    1    2    0    0 -0.16822035404E+02 -0.46781707085E+02 -0.11549995906E+03  0.12574477936E+03  0.00000000000E+00 0.  1.
         11    1    1    2    0    0  0.27179475796E+02 -0.77454987993E+02 -0.33062557409E+02  0.88493682102E+02  0.00000000000E+00 0. -1.
</event>
<event>
 7    1  0.2719869E-009  0.1101895E+03  0.7561462E-02  0.1260219E+00
          1   -1    0    0  501    0  0.00000000000E+00  0.00000000000E+00  0.13728458245E+03  0.13728458245E+03  0.00000000000E+00 0. -1.
         -1   -1    0    0    0  501 -0.00000000000E+00 -0.00000000000E+00 -0.10252438236E+03  0.10252438236E+03  0.00000000000E+00 0.  1.
         25    2    1    2    0    0 -0.16062862886E+02 -0.32851269144E+02 -0.11963890952E+02  0.13087348257E+03  0.12509001680E+03 0.  0.
          5    1    3    3  502    0 -0.12698994826E+02  0.44969260748E+02  0.13498224309E+02  0.48817756414E+02  0.41800000000E+01 0.  1.
         -5    1    3    3    0  502 -0.33638680596E+01 -0.77820529892E+02 -0.25462115261E+02  0.82055726153E+02  0.41800000000E+01 0.  1.
        -11    1    1    2    0    0 -0.36352717046E+02  0.19999961500E+02  0.73654043654E+01  0.42139858544E+02  0.00000000000E+00 0.  1.
         11    1    1    2    0    0  0.52415579932E+02  0.12851307644E+02  0.39358686683E+02  0.66795623698E+02  0.00000000000E+00 0. -1.
</event>
<event>
 7    1  0.2719869E-009  0.1258974E+03  0.7561462E-02  0.1233673E+00
          1   -1    0    0  501    0  0.00000000000E+00  0.00000000000E+00  0.16184086118E+03  0.16184086118E+03  0.00000000000E+00 0. -1.
         -1   -1    0    0    0  501 -0.00000000000E+00 -0.00000000000E+00 -0.10562043259E+03  0.10562043259E+03  0.00000000000E+00 0.  1.
         25    2    1    2    0    0  0.89411328004E+01  0.70652334570E+02  0.18463386010E+02  0.14512113403E+03  0.12509017021E+03 0.  0.
          5    1    3    3  502    0  0.61725495488E+02  0.58809570136E+02 -0.60709503505E+01  0.85574126762E+02  0.41800000000E+01 0. -1.
         -5    1    3    3    0  502 -0.52784362687E+02  0.11842764434E+02  0.24534336360E+02  0.59547007266E+02  0.41800000000E+01 0. -1.
        -11    1    1    2    0    0  0.39090008319E+02 -0.32641996908E+02  0.33465547940E+02  0.60938260653E+02  0.00000000000E+00 0. -1.
         11    1    1    2    0    0 -0.48031141119E+02 -0.38010337663E+02  0.42914946399E+01  0.61401899097E+02  0.00000000000E+00 0.  1.
</event>
<event>
 7    1  0.2910921E-009  0.1094634E+03  0.7561462E-02  0.1261567E+00
          2   -1    0    0  501    0  0.00000000000E+00  0.00000000000E+00  0.78438111611E+02  0.78438111611E+02  0.00000000000E+00 0. -1.
         -2   -1    0    0    0  501 -0.00000000000E+00 -0.00000000000E+00 -0.24276884562E+03  0.24276884562E+03  0.00000000000E+00 0.  1.
         25    2    1    2    0    0 -0.71231576731E+02  0.18066963133E+02 -0.40454613430E+02  0.15061086397E+03  0.12508678554E+03 0.  0.
          5    1    3    3  502    0 -0.30394058484E+02  0.62768962303E+02  0.11392906361E+02  0.70788502845E+02  0.41800000000E+01 0. -1.
         -5    1    3    3    0  502 -0.40837518247E+02 -0.44701999170E+02 -0.51847519791E+02  0.79822361121E+02  0.41800000000E+01 0. -1.
        -11    1    1    2    0    0  0.13900104927E+02  0.16382102274E+02 -0.95591550120E+02  0.97976173870E+02  0.00000000000E+00 0.  1.
         11    1    1    2    0    0  0.57331471805E+02 -0.34449065407E+02 -0.28284570455E+02  0.72619919392E+02  0.00000000000E+00 0. -1.
</event>
<event>
 7    1  0.3999868E-009  0.1434247E+03  0.7561462E-02  0.1208794E+00
         -3   -1    0    0    0  501 -0.00000000000E+00  0.00000000000E+00  0.17769116832E+02  0.17769116832E+02  0.00000000000E+00 0.  1.
          3   -1    0    0  501    0  0.00000000000E+00 -0.00000000000E+00 -0.13790046544E+04  0.13790046544E+04  0.00000000000E+00 0. -1.
         25    2    1    2    0    0  0.40048507081E+02  0.92616073200E+02 -0.95886419128E+03  0.97224181949E+03  0.12510794668E+03 0.  0.
          5    1    3    3  502    0 -0.56249740463E+01 -0.29461010811E+02 -0.17268887439E+03  0.17532401783E+03  0.41800000000E+01 0.  1.
         -5    1    3    3    0  502  0.45673481127E+02  0.12207708401E+03 -0.78617531688E+03  0.79691780166E+03  0.41800000000E+01 0.  1.
        -11    1    1    2    0    0  0.20253327262E+02 -0.44915432035E+02 -0.23827603048E+03  0.24331678939E+03  0.00000000000E+00 0. -1.
         11    1    1    2    0    0 -0.60301834343E+02 -0.47700641166E+02 -0.16409531582E+03  0.18121516235E+03  0.00000000000E+00 0.  1.
</event>
<event>
 7    1  0.2719869E-009  0.1520317E+03  0.7561462E-02  0.1197998E+00
          2   -1    0    0  501    0  0.00000000000E+00  0.00000000000E+00  0.90369494808E+03  0.90369494808E+03  0.00000000000E+00 0. -1.
         -2   -1    0    0    0  501 -0.00000000000E+00 -0.00000000000E+00 -0.31941072182E+02  0.31941072182E+02  0.00000000000E+00 0.  1.
         25    2    1    2    0    0 -0.12267706746E+03 -0.42574143808E+02  0.47261677363E+03  0.50584223533E+03  0.12509009444E+03 0.  0.
          5    1    3    3  502    0 -0.18268281233E+02  0.22275475543E+02  0.24851482499E+03  0.25021394356E+03  0.41800000000E+01 0.  1.
         -5    1    3    3    0  502 -0.10440878622E+03 -0.64849619351E+02  0.22410194863E+03  0.25562829177E+03  0.41800000000E+01 0.  1.
        -11    1    1    2    0    0  0.93849083959E+02 -0.75477323260E+01  0.17975484900E+03  0.20291974907E+03  0.00000000000E+00 0.  1.
         11    1    1    2    0    0  0.28827983498E+02  0.50121876134E+02  0.21938225327E+03  0.22687403586E+03  0.00000000000E+00 0. -1.
</event>
<event>
 7    1  0.2719869E-009  0.1401410E+03  0.7561462E-02  0.1213139E+00
         -2   -1    0    0    0  501 -0.00000000000E+00  0.00000000000E+00  0.23915052331E+02  0.23915052331E+02  0.00000000000E+00 0.  1.
          2   -1    0    0  501    0  0.00000000000E+00 -0.00000000000E+00 -0.98973173891E+03  0.98973173891E+03  0.00000000000E+00 0. -1.
         25    2    1    2    0    0 -0.43631832474E+02  0.82441265372E+02 -0.33687145217E+03  0.37125504126E+03  0.12509049256E+03 0.  0.
          5    1    3    3  502    0 -0.17361824050E+02  0.10988944832E+03 -0.19728903758E+03  0.22653379556E+03  0.41800000000E+01 0.  1.
         -5    1    3    3    0  502 -0.26270008423E+02 -0.27448182945E+02 -0.13958241460E+03  0.14472124569E+03  0.41800000000E+01 0.  1.
        -11    1    1    2    0    0  0.63598009954E+02 -0.22356825571E+02 -0.31872759319E+03  0.32577877951E+03  0.00000000000E+00 0.  1.
         11    1    1    2    0    0 -0.19966177481E+02 -0.60084439801E+02 -0.31021764122E+03  0.31661297048E+03  0.00000000000E+00 0. -1.
</event>
<event>
 7    1  0.2719869E-009  0.1042027E+03  0.7561462E-02  0.1271698E+00
         -2   -1    0    0    0  501 -0.00000000000E+00  0.00000000000E+00  0.15328397372E+02  0.15328397372E+02  0.00000000000E+00 0. -1.
          2   -1    0    0  501    0  0.00000000000E+00 -0.00000000000E+00 -0.11891598845E+04  0.11891598845E+04  0.00000000000E+00 0.  1.
         25    2    1    2    0    0 -0.55943765407E+02  0.24678053089E+02 -0.86311031482E+03  0.87426886728E+03  0.12509166865E+03 0.  0.
          5    1    3    3  502    0 -0.61820835553E+02  0.66481207780E+02 -0.69372848799E+03  0.69965581120E+03  0.41800000000E+01 0. -1.
         -5    1    3    3    0  502  0.58770701465E+01 -0.41803154691E+02 -0.16938182683E+03  0.17461305609E+03  0.41800000000E+01 0. -1.
        -11    1    1    2    0    0  0.57223748749E+02 -0.73081904168E+01 -0.30704676771E+03  0.31241908493E+03  0.00000000000E+00 0.  1.
         11    1    1    2    0    0 -0.12799833425E+01 -0.17369862672E+02 -0.36744045968E+01  0.17800329653E+02  0.00000000000E+00 0. -1.
</event>
<event>
 7    1  0.2719869E-009  0.8727551E+02  0.7561462E-02  0.1309587E+00
         -2   -1    0    0    0  501 -0.00000000000E+00  0.00000000000E+00  0.30688743212E+02  0.30688743212E+02  0.00000000000E+00 0.  1.
          2   -1    0    0  501    0  0.00000000000E+00 -0.00000000000E+00 -0.43655048180E+03  0.43655048180E+03  0.00000000000E+00 0. -1.
         25    2    1    2    0    0  0.99505524640E+01 -0.69544609870E+01 -0.31647882349E+03  0.34052022609E+03  0.12509116931E+03 0.  0.
          5    1    3    3  502    0  0.48412850422E+02 -0.88993234565E+01 -0.28859000514E+03  0.29278774823E+03  0.41800000000E+01 0.  1.
         -5    1    3    3    0  502 -0.38462297958E+02  0.19448624695E+01 -0.27888818344E+02  0.47732477862E+02  0.41800000000E+01 0.  1.
        -11    1    1    2    0    0 -0.47638425318E+02 -0.19809718434E+01 -0.31762815733E+02  0.57290664855E+02  0.00000000000E+00 0.  1.
         11    1    1    2    0    0  0.37687872854E+02  0.89354328305E+01 -0.57620099371E+02  0.69428334070E+02  0.00000000000E+00 0. -1.
</event>
<event>
 7    1  0.2719869E-009  0.9925006E+02  0.7561462E-02  0.1281881E+00
         -1   -1    0    0    0  501 -0.00000000000E+00  0.00000000000E+00  0.17746255189E+03  0.17746255189E+03  0.00000000000E+00 0.  1.
          1   -1    0    0  501    0  0.00000000000E+00 -0.00000000000E+00 -0.13589060657E+03  0.13589060657E+03  0.00000000000E+00 0. -1.
         25    2    1    2    0    0  0.39979629141E+02 -0.57314707310E+02  0.10930805892E+03  0.18021973820E+03  0.12509019095E+03 0.  0.
          5    1    3    3  502    0  0.51703805392E-01  0.17161749504E+02 -0.19372330840E+02  0.26216176714E+02  0.41800000000E+01 0. -1.
         -5    1    3    3    0  502  0.39927925336E+02 -0.74476456814E+02  0.12868038976E+03  0.15400356148E+03  0.41800000000E+01 0. -1.
        -11    1    1    2    0    0  0.15032658927E+02  0.32642019156E+02 -0.63160085482E+02  0.72668278135E+02  0.00000000000E+00 0. -1.
         11    1    1    2    0    0 -0.55012288068E+02  0.24672688153E+02 -0.45760281145E+01  0.60465142127E+02  0.00000000000E+00 0.  1.
</event>
<event>
 7    1  0.2719869E-009  0.1303566E+03  0.7561462E-02  0.1226928E+00
          1   -1    0    0  501    0  0.00000000000E+00  0.00000000000E+00  0.56875955724E+02  0.56875955724E+02  0.00000000000E+00 0. -1.
         -1   -1    0    0    0  501 -0.00000000000E+00 -0.00000000000E+00 -0.35245082815E+03  0.35245082815E+03  0.00000000000E+00 0.  1.
         25    2    1    2    0    0  0.85166785934E+02 -0.34145641481E+02 -0.15712837961E+03  0.22080797752E+03  0.12509008354E+03 0.  0.
          5    1    3    3  502    0 -0.19321922723E+02 -0.45790006271E+02 -0.52918641738E+02  0.72718061136E+02  0.41800000000E+01 0.  1.
         -5    1    3    3    0  502  0.10448870866E+03  0.11644364791E+02 -0.10420973787E+03  0.14808991639E+03  0.41800000000E+01 0.  1.
        -11    1    1    2    0    0 -0.24774613371E+01  0.21886445106E+02 -0.88371006080E+02  0.91074634282E+02  0.00000000000E+00 0.  1.
         11    1    1    2    0    0 -0.82689324596E+02  0.12259196374E+02 -0.50075486734E+02  0.97444172066E+02  0.00000000000E+00 0. -1.
</event>
<event>
 7    1  0.2719869E-009  0.1185756E+03  0.7561462E-02  0.1245466E+00
          2   -1    0    0  501    0  0.00000000000E+00  0.00000000000E+00  0.12037766516E+03  0.12037766516E+03  0.00000000000E+00 0. -1.
         -2   -1    0    0    0  501 -0.00000000000E+00 -0.00000000000E+00 -0.22170392422E+03  0.22170392422E+03  0.00000000000E+00 0.  1.
         25    2    1    2    0    0 -0.17863907205E+02 -0.95991137602E+02  0.21452611669E+02  0.16012814120E+03  0.12508952546E+03 0.  0.
          5    1    3    3  502    0 -0.49285959732E+00 -0.76745846301E+02 -0.44727724276E+02  0.88928114531E+02  0.41800000000E+01 0.  1.
         -5    1    3    3    0  502 -0.17371047607E+02 -0.19245291300E+02  0.66180335945E+02  0.71200026672E+02  0.41800000000E+01 0.  1.
        -11    1    1    2    0    0  0.54577740340E+02  0.71276123228E+02 -0.76883389113E+02  0.11819505491E+03  0.00000000000E+00 0.  1.
         11    1    1    2    0    0 -0.36713833135E+02  0.24715014374E+02 -0.45895481625E+02  0.63758393272E+02  0.00000000000E+00 0. -1.
</event>
<event>
 7    1  0.2719869E-009  0.1869967E+03  0.7561462E-02  0.1161198E+00
          2   -1    0    0  501    0  0.00000000000E+00  0.00000000000E+00  0.91660768531E+03  0.91660768531E+03  0.00000000000E+00 0. -1.
         -2   -1    0    0    0  501 -0.00000000000E+00 -0.00000000000E+00 -0.74615707223E+02  0.74615707223E+02  0.00000000000E+00 0.  1.
         25    2    1    2    0    0  0.17195626521E+03  0.15320700677E+02  0.12249925098E+03  0.24587238679E+03  0.12507391046E+03 0.  0.
          5    1    3    3  502    0  0.16227121389E+03  0.25968044120E+02  0.49977763715E+02  0.17181832102E+03  0.41800000000E+01 0.  1.
         -5    1    3    3    0  502  0.96850513234E+01 -0.10647343443E+02  0.72521487261E+02  0.74054065763E+02  0.41800000000E+01 0.  1.
        -11    1    1    2    0    0 -0.12621924721E+03  0.30524753154E+02  0.48307376052E+03  0.50022326717E+03  0.00000000000E+00 0. -1.
         11    1    1    2    0    0 -0.45737018004E+02 -0.45845453831E+02  0.23641896659E+03  0.24512773857E+03  0.00000000000E+00 0.  1.
</event>
<event>
 7    1  0.2719869E-009  0.7567666E+02  0.7561462E-02  0.1341788E+00
          4   -1    0    0  501    0  0.00000000000E+00  0.00000000000E+00  0.13548926829E+03  0.13548926829E+03  0.00000000000E+00 0.  1.
         -4   -1    0    0    0  501 -0.00000000000E+00 -0.00000000000E+00 -0.11150548499E+03  0.11150548499E+03  0.00000000000E+00 0. -1.
         25    2    1    2    0    0  0.51819721440E+02  0.74673334021E+01  0.35928072660E+02  0.14027939252E+03  0.12508571846E+03 0.  0.
          5    1    3    3  502    0  0.41744321966E+02 -0.10460914228E+02 -0.41576353053E+02  0.59984036844E+02  0.41800000000E+01 0. -1.
         -5    1    3    3    0  502  0.10075399474E+02  0.17928247630E+02  0.77504425714E+02  0.80295355674E+02  0.41800000000E+01 0. -1.
        -11    1    1    2    0    0  0.12893692601E+02  0.13919748225E+02  0.23249577963E+02  0.30009158185E+02  0.00000000000E+00 0.  1.
         11    1    1    2    0    0 -0.64713414041E+02 -0.21387081627E+02 -0.35193867320E+02  0.76706202580E+02  0.00000000000E+00 0. -1.
</event>
<event>
 7    1  0.2719869E-009  0.1220104E+03  0.7561462E-02  0.1239817E+00
         -2   -1    0    0    0  501 -0.00000000000E+00  0.00000000000E+00  0.77168892447E+02  0.77168892447E+02  0.00000000000E+00 0. -1.
          2   -1    0    0  501    0  0.00000000000E+00 -0.00000000000E+00 -0.32972932442E+03  0.32972932442E+03  0.00000000000E+00 0.  1.
         25    2    1    2    0    0 -0.85649958712E+02 -0.72031352444E+02 -0.90891339204E+02  0.19087565419E+03  0.12509136124E+03 0.  0.
          5    1    3    3  502    0 -0.41401887647E+02  0.44058779907E+01  0.22162390576E+02  0.47351578830E+02  0.41800000000E+01 0. -1.
         -5    1    3    3    0  502 -0.44248071065E+02 -0.76437230434E+02 -0.11305372978E+03  0.14352407536E+03  0.41800000000E+01 0. -1.
        -11    1    1    2    0    0  0.60305053684E+02  0.37833864793E+02 -0.29311239791E+02  0.76988632948E+02  0.00000000000E+00 0. -1.
         11    1    1    2    0    0  0.25344905027E+02  0.34197487650E+02 -0.13235785298E+03  0.13903392973E+03  0.00000000000E+00 0.  1.
</event>
<event>
 7    1  0.2719869E-009  0.8712059E+02  0.7561462E-02  0.1309978E+00
          1   -1    0    0  501    0  0.00000000000E+00  0.00000000000E+00  0.38635525205E+03  0.38635525205E+03  0.00000000000E+00 0. -1.
         -1   -1    0    0    0  501 -0.00000000000E+00 -0.00000000000E+00 -0.43440711845E+02  0.43440711845E+02  0.00000000000E+00 0.  1.
         25    2    1    2    0    0 -0.52012949866E+02 -0.19957267050E+02  0.26823938311E+03  0.30117082708E+03  0.12509141046E+03 0.  0.
          5    1    3    3  502    0 -0.59947460869E+02 -0.45808952704E+02  0.76634402248E+02  0.10762184825E+03  0.41800000000E+01 0. -1.
         -5    1    3    3    0  502  0.79345110028E+01  0.25851685654E+02  0.19160498086E+03  0.19354897883E+03  0.41800000000E+01 0. -1.
        -11    1    1    2    0    0  0.35543304950E+02 -0.10179720030E+02 -0.91067636859E+01  0.38077373485E+02  0.00000000000E+00 0.  1.
         11    1    1    2    0    0  0.16469644916E+02  0.30136987080E+02  0.83781920781E+02  0.90547763328E+02  0.00000000000E+00 0. -1.
</event>
<event>
 7    1  0.2719869E-009  0.1001999E+03  0.7561462E-02  0.1279876E+00
         -1   -1    0    0    0  501 -0.00000000000E+00  0.00000000000E+00  0.87949430006E+02  0.87949430006E+02  0.00000000000E+00 0.  1.
          1   -1    0    0  501    0  0.00000000000E+00 -0.00000000000E+00 -0.21771995078E+03  0.21771995078E+03  0.00000000000E+00 0. -1.
         25    2    1    2    0    0  0.65734912561E+02 -0.40908667439E+02 -0.28951894569E+02  0.14993463417E+03  0.12509030547E+03 0.  0.
          5    1    3    3  502    0  0.62208995345E+02 -0.43144779365E+02  0.36546888096E+02  0.84169938326E+02  0.41800000000E+01 0. -1.
         -5    1    3    3    0  502  0.35259172157E+01  0.22361119254E+01 -0.65498782666E+02  0.65764695844E+02  0.41800000000E+01 0. -1.
        -11    1    1    2    0    0 -0.13918411878E+02 -0.28697629892E+02 -0.25648923975E+02  0.40928516364E+02  0.00000000000E+00 0. -1.
         11    1    1    2    0    0 -0.51816500682E+02  0.69606297332E+02 -0.75169702226E+02  0.11480623025E+03  0.00000000000E+00 0.  1.
</event>
<event>
 7    1  0.2719869E-009  0.9200871E+02  0.7561462E-02  0.1298059E+00
          2   -1    0    0  501    0  0.00000000000E+00  0.00000000000E+00  0.18758718464E+03  0.18758718464E+03  0.00000000000E+00 0. -1.
         -2   -1    0    0    0  501 -0.00000000000E+00 -0.00000000000E+00 -0.10065484739E+03  0.10065484739E+03  0.00000000000E+00 0.  1.
         25    2    1    2    0    0 -0.27096862551E+02 -0.20969877465E+02  0.13105270994E+03  0.18438138866E+03  0.12509079894E+03 0.  0.
          5    1    3    3  502    0 -0.61705685712E+02 -0.53583213972E+02  0.86721581015E+02  0.11923446432E+03  0.41800000000E+01 0.  1.
         -5    1    3    3    0  502  0.34608823161E+02  0.32613336507E+02  0.44331128922E+02  0.65146924334E+02  0.41800000000E+01 0.  1.
        -11    1    1    2    0    0  0.36491521161E+02  0.24992704095E+02 -0.66150867523E+02  0.79575144667E+02  0.00000000000E+00 0.  1.
         11    1    1    2    0    0 -0.93946586107E+01 -0.40228266307E+01  0.22030494836E+02  0.24285498702E+02  0.00000000000E+00 0. -1.
</event>
<event>
 7    1  0.2719869E-009  0.2341140E+03  0.7561462E-02  0.1123777E+00
         -2   -1    0    0    0  501 -0.00000000000E+00  0.00000000000E+00  0.70416757585E+03  0.70416757585E+03  0.00000000000E+00 0. -1.
          2   -1    0    0  501    0  0.00000000000E+00 -0.00000000000E+00 -0.11349075228E+03  0.11349075228E+03  0.00000000000E+00 0.  1.
         25    2    1    2    0    0 -0.79093895402E+02  0.21809352121E+03  0.12995165534E+03  0.29386233441E+03  0.12508801133E+03 0.  0.
          5    1    3    3  502    0 -0.11664885982E+01  0.59075179475E-01 -0.18356947449E+02  0.18863035417E+02  0.41800000000E+01 0. -1.
         -5    1    3    3    0  502 -0.77927406804E+02  0.21803444603E+03  0.14830860279E+03  0.27499929900E+03  0.41800000000E+01 0. -1.
        -11    1    1    2    0    0  0.72074995423E+02 -0.20691516612E+03  0.46118557199E+03  0.51058870213E+03  0.00000000000E+00 0. -1.
         11    1    1    2    0    0  0.70188999790E+01 -0.11178355092E+02 -0.46040375320E+00  0.13207291588E+02  0.00000000000E+00 0.  1.
</event>
<event>
 7    1  0.2719869E-009  0.1237956E+03  0.7561462E-02  0.1236964E+00
          3   -1    0    0  501    0  0.00000000000E+00  0.00000000000E+00  0.83901465620E+02  0.83901465620E+02  0.00000000000E+00 0.  1.
         -3   -1    0    0    0  501 -0.00000000000E+00 -0.00000000000E+00 -0.26441044914E+03  0.26441044914E+03  0.00000000000E+00 0. -1.
         25    2    1    2    0    0  0.29927602300E+02  0.84239508618E+02 -0.39670654860E+02  0.15878904912E+03  0.12509294573E+03 0.  0.
          5    1    3    3  502    0 -0.44151525191E+02  0.33181748023E+02 -0.40670434119E+02  0.68716389530E+02  0.41800000000E+01 0. -1.
         -5    1    3    3    0  502  0.74079127492E+02  0.51057760595E+02  0.99977925929E+00  0.90072659589E+02  0.41800000000E+01 0. -1.
        -11    1    1    2    0    0  0.76395521676E+01 -0.52216124816E+02 -0.12809666723E+03  0.13854112243E+03  0.00000000000E+00 0. -1.
         11    1    1    2    0    0 -0.37567154468E+02 -0.32023383803E+02 -0.12741661429E+02  0.50981743212E+02  0.00000000000E+00 0.  1.
</event>
<event>
 7    1  0.3149003E-009  0.8147814E+02  0.7561462E-02  0.1324908E+00
          2   -1    0    0  501    0  0.00000000000E+00  0.00000000000E+00  0.63769538584E+03  0.63769538584E+03  0.00000000000E+00 0. -1.
         -2   -1    0    0    0  501 -0.00000000000E+00 -0.00000000000E+00 -0.25429990572E+02  0.25429990572E+02  0.00000000000E+00 0.  1.
         25    2    1    2    0    0 -0.28595433679E+02  0.49195299469E+01  0.18370816388E+03  0.22414181406E+03  0.12509581420E+03 0.  0.
          5    1    3    3  502    0 -0.25625512943E+02 -0.29014086544E+02  0.18572640056E+03  0.18976367513E+03  0.41800000000E+01 0. -1.
         -5    1    3    3    0  502 -0.29699207357E+01  0.33933616491E+02 -0.20182366790E+01  0.34378138935E+02  0.41800000000E+01 0. -1.
        -11    1    1    2    0    0 -0.16124716266E+02  0.29264778681E+02  0.94871719111E+02  0.10058368075E+03  0.00000000000E+00 0.  1.
         11    1    1    2    0    0  0.44720149945E+02 -0.34184308628E+02  0.33368551228E+03  0.33839988161E+03  0.00000000000E+00 0. -1.
</event>
<event>
 7    1  0.2719869E-009  0.9580021E+02  0.7561462E-02  0.1289384E+00
         -4   -1    0    0    0  501 -0.00000000000E+00  0.00000000000E+00  0.22413232165E+03  0.22413232165E+03  0.00000000000E+00 0.  1.
          4   -1    0    0  501    0  0.00000000000E+00 -0.00000000000E+00 -0.63030054459E+02  0.63030054459E+02  0.00000000000E+00 0. -1.
         25    2    1    2    0    0  0.29593596528E+02 -0.15184505482E+02  0.47801287530E+02  0.13798184321E+03  0.12509067033E+03 0.  0.
          5    1    3    3  502    0  0.62244260470E+02 -0.56392066940E+01  0.72443881583E+02  0.95769186028E+02  0.41800000000E+01 0.  1.
         -5    1    3    3    0  502 -0.32650663942E+02 -0.95452987879E+01 -0.24642594053E+02  0.42212657183E+02  0.41800000000E+01 0.  1.
        -11    1    1    2    0    0 -0.57818426324E+02 -0.77302072065E+01  0.85081635764E+02  0.10315818567E+03  0.00000000000E+00 0.  1.
         11    1    1    2    0    0  0.28224829796E+02  0.22914712688E+02  0.28219343897E+02  0.46022347230E+02  0.00000000000E+00 0. -1.
</event>
<event>
 7    1  0.2719869E-009  0.2042678E+03  0.7561462E-02  0.1146187E+00
         -1   -1    0    0    0  501 -0.00000000000E+00  0.00000000000E+00  0.89518128259E+02  0.89518128259E+02  0.00000000000E+00 0.  1.
          1   -1    0    0  501    0  0.00000000000E+00 -0.00000000000E+00 -0.64415656852E+03  0.64415656852E+03  0.00000000000E+00 0. -1.
         25    2    1    2    0    0 -0.11926224921E+03  0.15012918483E+03 -0.14245964240E+03  0.26963710902E+03  0.12508862708E+03 0.  0.
          5    1    3    3  502    0 -0.54153294982E+02  0.13883163623E+03 -0.13820723884E+03  0.20328678227E+03  0.41800000000E+01 0.  1.
         -5    1    3    3    0  502 -0.65108954223E+02  0.11297548599E+02 -0.42524035571E+01  0.66350326754E+02  0.41800000000E+01 0.  1.
        -11    1    1    2    0    0  0.51679314836E+02 -0.46473472738E+02 -0.63836216363E+02  0.94369474777E+02  0.00000000000E+00 0.  1.
         11    1    1    2    0    0  0.67582934369E+02 -0.10365571209E+03 -0.34834258150E+03  0.36966811298E+03  0.00000000000E+00 0. -1.
</event>
<event>
 7    1  0.2719869E-009  0.1130668E+03  0.7561462E-02  0.1254994E+00
          2   -1    0    0  501    0  0.00000000000E+00  0.00000000000E+00  0.16836189283E+04  0.16836189283E+04  0.00000000000E+00 0. -1.
         -2   -1    0    0    0  501 -0.00000000000E+00 -0.00000000000E+00 -0.97378544269E+01  0.97378544269E+01  0.00000000000E+00 0.  1.
         25    2    1    2    0    0  0.25081104780E+02  0.26195549069E+02  0.13262354707E+04  0.13326152713E+04  0.12509064207E+03 0.  0.
          5    1    3    3  502    0  0.71706971626E+02 -0.74879200565E+01  0.78564385531E+03  0.78895608148E+03  0.41800000000E+01 0. -1.
         -5    1    3    3    0  502 -0.46625866846E+02  0.33683469126E+02  0.54059161542E+03  0.54365918977E+03  0.41800000000E+01 0. -1.
        -11    1    1    2    0    0  0.33074903882E+02 -0.17569337852E+02  0.14218745632E+03  0.14703708251E+03  0.00000000000E+00 0.  1.
         11    1    1    2    0    0 -0.58156008662E+02 -0.86262112173E+01  0.20545814684E+03  0.21370442899E+03  0.00000000000E+00 0. -1.
</event>
<event>
 7    1  0.2719869E-009  0.8394662E+02  0.7561462E-02  0.1318210E+00
          2   -1    0    0  501    0  0.00000000000E+00  0.00000000000E+00  0.87328331418E+02  0.87328331418E+02  0.00000000000E+00 0. -1.
         -2   -1    0    0    0  501 -0.00000000000E+00 -0.00000000000E+00 -0.21015926812E+03  0.21015926812E+03  0.00000000000E+00 0.  1.
         25    2    1    2    0    0  0.64255904317E+02 -0.23688023196E+02 -0.11246231470E+03  0.18161872425E+03  0.12509054756E+03 0.  0.
          5    1    3    3  502    0  0.31633573735E+02 -0.39173953624E+02  0.12021758026E+02  0.51935312609E+02  0.41800000000E+01 0. -1.
         -5    1    3    3    0  502  0.32622330582E+02  0.15485930428E+02 -0.12448407272E+03  0.12968341164E+03  0.41800000000E+01 0. -1.
        -11    1    1    2    0    0 -0.21401091356E+00  0.16579370692E+02 -0.41219138848E+02  0.44429030381E+02  0.00000000000E+00 0.  1.
         11    1    1    2    0    0 -0.64041893403E+02  0.71086525037E+01  0.30850516840E+02  0.71439844907E+02  0.00000000000E+00 0. -1.
</event>
<event>
 7    1  0.2719869E-009  0.1744708E+03  0.7561462E-02  0.1173264E+00
          2   -1    0    0  501    0  0.00000000000E+00  0.00000000000E+00  0.20933527480E+04  0.20933527480E+04  0.00000000000E+00 0. -1.
         -2   -1    0    0    0  501 -0.00000000000E+00 -0.00000000000E+00 -0.21104669511E+02  0.21104669511E+02  0.00000000000E+00 0.  1.
         25    2    1    2    0    0 -0.16009411774E+03 -0.98144017421E+01  0.14875846587E+04  0.15014267411E+04  0.12509073949E+03 0.  0.
          5    1    3    3  502    0 -0.15391700158E+03  0.85214868587E+01  0.87245725055E+03  0.88598091715E+03  0.41800000000E+01 0.  1.
         -5    1    3    3    0  502 -0.61771161607E+01 -0.18335888601E+02  0.61512740817E+03  0.61544582398E+03  0.41800000000E+01 0.  1.
        -11    1    1    2    0    0  0.96551139734E+02 -0.28584230940E+02  0.23657662430E+03  0.25711413810E+03  0.00000000000E+00 0.  1.
         11    1    1    2    0    0  0.63542978008E+02  0.38398632682E+02  0.34808679545E+03  0.35591653826E+03  0.00000000000E+00 0. -1.
</event>
<event>
 7    1  0.2719869E-009  0.9101425E+02  0.7561462E-02  0.1300414E+00
         -2   -1    0    0    0  501 -0.00000000000E+00  0.00000000000E+00  0.25660132661E+02  0.25660132661E+02  0.00000000000E+00 0.  1.
          2   -1    0    0  501    0  0.00000000000E+00 -0.00000000000E+00 -0.51478079991E+03  0.51478079991E+03  0.00000000000E+00 0. -1.
         25    2    1    2    0    0  0.80797807483E+01  0.34689451569E+02 -0.31860352902E+03  0.34412827556E+03  0.12508964956E+03 0.  0.
          5    1    3    3  502    0 -0.50499430482E+02  0.28972225050E+02 -0.84479810258E+02  0.10268346042E+03  0.41800000000E+01 0. -1.
         -5    1    3    3    0  502  0.58579211231E+02  0.57172265188E+01 -0.23412371876E+03  0.24144481513E+03  0.41800000000E+01 0. -1.
        -11    1    1    2    0    0 -0.17380961109E+02 -0.46486760018E+02 -0.17395932042E+03  0.18090041964E+03  0.00000000000E+00 0. -1.
         11    1    1    2    0    0  0.93011803607E+01  0.11797308449E+02  0.34421821860E+01  0.15412237376E+02  0.00000000000E+00 0.  1.
</event>
<event>
 7    1  0.2719869E-009  0.9877850E+02  0.7561462E-02  0.1282886E+00
         -1   -1    0    0    0  501 -0.00000000000E+00  0.00000000000E+00  0.14664080703E+03  0.14664080703E+03  0.00000000000E+00 0. -1.
          1   -1    0    0  501    0  0.00000000000E+00 -0.00000000000E+00 -0.11190429445E+03  0.11190429445E+03  0.00000000000E+00 0.  1.
         25    2    1    2    0    0  0.14714924185E+01 -0.28285312400E+02 -0.44031468240E+02  0.13560087927E+03  0.12508638646E+03 0.  0.
          5    1    3    3  502    0 -0.48378536483E+01  0.46388748390E+02  0.31724664826E+01  0.46934611415E+02  0.41800000000E+01 0.  1.
         -5    1    3    3    0  502  0.63093460668E+01 -0.74674060790E+02 -0.47203934723E+02  0.88666267858E+02  0.41800000000E+01 0.  1.
        -11    1    1    2    0    0 -0.35376499435E+02  0.83751564451E+01  0.75122605342E+02  0.83456849875E+02  0.00000000000E+00 0. -1.
         11    1    1    2    0    0  0.33905007016E+02  0.19910155954E+02  0.36453754743E+01  0.39487372326E+02  0.00000000000E+00 0.  1.
</event>
<event>
 7    1  0.2719869E-009  0.1333710E+03  0.7561462E-02  0.1222538E+00
         -2   -1    0    0    0  501 -0.00000000000E+00  0.00000000000E+00  0.16295418918E+02  0.16295418918E+02  0.00000000000E+00 0.  1.
          2   -1    0    0  501    0  0.00000000000E+00 -0.00000000000E+00 -0.11120618396E+04  0.11120618396E+04  0.00000000000E+00 0. -1.
         25    2    1    2    0    0 -0.16167007306E+02 -0.75675595359E+02 -0.52858540942E+03  0.54866972796E+03  0.12509103670E+03 0.  0.
          5    1    3    3  502    0 -0.60066913836E+02 -0.82786103122E+02 -0.37491017704E+03  0.38863438635E+03  0.41800000000E+01 0. -1.
         -5    1    3    3    0  502  0.43899906530E+02  0.71105077626E+01 -0.15367523238E+03  0.16003534160E+03  0.41800000000E+01 0. -1.
        -11    1    1    2    0    0  0.28154453031E+02  0.93823718649E+02 -0.45706404882E+03  0.46744316033E+03  0.00000000000E+00 0.  1.
         11    1    1    2    0    0 -0.11987445726E+02 -0.18148123290E+02 -0.11011696240E+03  0.11224437020E+03  0.00000000000E+00 0. -1.
</event>
<event>
 7    1  0.2719869E-009  0.1100675E+03  0.7561462E-02  0.1260445E+00
         -2   -1    0    0    0  501 -0.00000000000E+00  0.00000000000E+00  0.69361896523E+02  0.69361896523E+02  0.00000000000E+00 0.  1.
          2   -1    0    0  501    0  0.00000000000E+00 -0.00000000000E+00 -0.32312103316E+03  0.32312103316E+03  0.00000000000E+00 0. -1.
         25    2    1    2    0    0  0.38262499505E+02  0.58297747832E+02 -0.23640016685E+03  0.27639367950E+03  0.12508309602E+03 0.  0.
          5    1    3    3  502    0  0.71459058195E+02  0.48804817107E+02 -0.86179054102E+02  0.12219905457E+03  0.41800000000E+01 0. -1.
         -5    1    3    3    0  502 -0.33196558690E+02  0.94929307254E+01 -0.15022111275E+03  0.15419462493E+03  0.41800000000E+01 0. -1.
        -11    1    1    2    0    0 -0.55232452954E+02 -0.23537862710E+02 -0.39166318523E+02  0.71684414952E+02  0.00000000000E+00 0. -1.
         11    1    1    2    0    0  0.16969953449E+02 -0.34759885122E+02  0.21807348732E+02  0.44404835238E+02  0.00000000000E+00 0.  1.
</event>
<event>
 7    1  0.2719869E-009  0.9732022E+02  0.7561462E-02  0.1286034E+00
          1   -1    0    0  501    0  0.00000000000E+00  0.00000000000E+00  0.10139243327E+04  0.10139243327E+04  0.00000000000E+00 0. -1.
         -1   -1    0    0    0  501 -0.00000000000E+00 -0.00000000000E+00 -0.15244896862E+02  0.15244896862E+02  0.00000000000E+00 0.  1.
         25    2    1    2    0    0 -0.50924665681E+01 -0.62006791889E+02  0.72979954222E+03  0.74305158667E+03  0.12509002028E+03 0.  0.
          5    1    3    3  502    0 -0.79250158394E+01  0.19017748042E+02  0.47856363815E+03  0.47902516508E+03  0.41800000000E+01 0. -1.
         -5    1    3    3    0  502  0.28325492714E+01 -0.81024539931E+02  0.25123590407E+03  0.26402642160E+03  0.41800000000E+01 0. -1.
        -11    1    1    2    0    0  0.33444549654E+02  0.53032474330E+02  0.13321893477E+03  0.14723540952E+03  0.00000000000E+00 0.  1.
         11    1    1    2    0    0 -0.28352083085E+02  0.89743175580E+01  0.13566095884E+03  0.13888223337E+03  0.00000000000E+00 0. -1.
</event>
<event>
 7    1  0.2719869E-009  0.2398851E+03  0.7561462E-02  0.1119869E+00
         -2   -1    0    0    0  501 -0.00000000000E+00  0.00000000000E+00  0.12758392255E+03  0.12758392255E+03  0.00000000000E+00 0.  1.
          2   -1    0    0  501    0  0.00000000000E+00 -0.00000000000E+00 -0.48195220433E+03  0.48195220433E+03  0.00000000000E+00 0. -1.
         25    2    1    2    0    0  0.19048892863E+03 -0.10754827626E+03 -0.13089781965E+03  0.28396207646E+03  0.12509019954E+03 0.  0.
          5    1    3    3  502    0  0.78116851311E+01 -0.51464926371E+02 -0.61344632513E+02  0.80562382096E+02  0.41800000000E+01 0.  1.
         -5    1    3    3    0  502  0.18267724350E+03 -0.56083349889E+02 -0.69553187139E+02  0.20339969436E+03  0.41800000000E+01 0.  1.
        -11    1    1    2    0    0 -0.17283664947E+03  0.55623416730E+02 -0.17901304640E+03  0.25497478831E+03  0.00000000000E+00 0.  1.
         11    1    1    2    0    0 -0.17652279157E+02  0.51924859530E+02 -0.44457415725E+02  0.70599262104E+02  0.00000000000E+00 0. -1.
</event>
<event>
 7    1  0.2719869E-009  0.1098376E+03  0.7561462E-02  0.1260871E+00
          1   -1    0    0  501    0  0.00000000000E+00  0.00000000000E+00  0.19406865698E+03  0.19406865698E+03  0.00000000000E+00 0. -1.
         -1   -1    0    0    0  501 -0.00000000000E+00 -0.00000000000E+00 -0.74260359077E+02  0.74260359077E+02  0.00000000000E+00 0.  1.
         25    2    1    2    0    0  0.45898492895E+01 -0.44966515032E+02  0.67074199953E+02  0.14895866681E+03  0.12508669765E+03 0.  0.
          5    1    3    3  502    0 -0.41329830912E+01  0.38376303306E+02 -0.39593667288E+01  0.39025263478E+02  0.41800000000E+01 0.  1.
         -5    1    3    3    0  502  0.87228323807E+01 -0.83342818338E+02  0.71033566681E+02  0.10993340333E+03  0.41800000000E+01 0.  1.
        -11    1    1    2    0    0  0.40297062655E+02  0.27486440883E+02  0.51854914069E+02  0.71191922323E+02  0.00000000000E+00 0. -1.
         11    1    1    2    0    0 -0.44886911944E+02  0.17480074149E+02  0.87918388080E+00  0.48178426920E+02  0.00000000000E+00 0.  1.
</event>
<event>
 7    1  0.2719869E-009  0.2235981E+03  0.7561462E-02  0.1131229E+00
         -1   -1    0    0    0  501 -0.00000000000E+00  0.00000000000E+00  0.27519655211E+03  0.27519655211E+03  0.00000000000E+00 0.  1.
          1   -1    0    0  501    0  0.00000000000E+00 -0.00000000000E+00 -0.23696972525E+03  0.23696972525E+03  0.00000000000E+00 0. -1.
         25    2    1    2    0    0 -0.21934282195E+03 -0.93034506084E+01 -0.52796942909E+02  0.25813309181E+03  0.12508936075E+03 0.  0.
          5    1    3    3  502    0 -0.87240272851E+02  0.20533166189E+02 -0.79682510202E+02  0.11999687893E+03  0.41800000000E+01 0. -1.
         -5    1    3    3    0  502 -0.13210254910E+03 -0.29836616797E+02  0.26885567293E+02  0.13813621288E+03  0.41800000000E+01 0. -1.
        -11    1    1    2    0    0  0.17021474769E+03  0.20924992034E+02  0.28786768161E+02  0.17389535257E+03  0.00000000000E+00 0. -1.
         11    1    1    2    0    0  0.49128074257E+02 -0.11621541426E+02  0.62237001610E+02  0.80137832980E+02  0.00000000000E+00 0.  1.
</event>
<event>
 7    1  0.2719869E-009  0.1470790E+03  0.7561462E-02  0.1204109E+00
         -2   -1    0    0    0  501 -0.00000000000E+00  0.00000000000E+00  0.14298853147E+03  0.14298853147E+03  0.00000000000E+00 0.  1.
          2   -1    0    0  501    0  0.00000000000E+00 -0.00000000000E+00 -0.16651632094E+03  0.16651632094E+03  0.00000000000E+00 0. -1.
         25    2    1    2    0    0 -0.99758437324E+02  0.45256050565E+02 -0.13473923730E+02  0.16681734379E+03  0.12508646464E+03 0.  0.
          5    1    3    3  502    0  0.11582922531E+02  0.42743024580E+02 -0.30698132999E+02  0.54046073069E+02  0.41800000000E+01 0.  1.
         -5    1    3    3    0  502 -0.11134135986E+03  0.25130259849E+01  0.17224209270E+02  0.11277127072E+03  0.41800000000E+01 0.  1.
        -11    1    1    2    0    0  0.82306939951E+01  0.22755417413E+02  0.11248034393E+02  0.26684670187E+02  0.00000000000E+00 0.  1.
         11    1    1    2    0    0  0.91527743329E+02 -0.68011467978E+02 -0.21301900130E+02  0.11600283843E+03  0.00000000000E+00 0. -1.
</event>
<event>
 7    1  0.2719869E-009  0.1006186E+03  0.7561462E-02  0.1279000E+00
          1   -1    0    0  501    0  0.00000000000E+00  0.00000000000E+00  0.38516778722E+03  0.38516778722E+03  0.00000000000E+00 0. -1.
         -1   -1    0    0    0  501 -0.00000000000E+00 -0.00000000000E+00 -0.43947309620E+02  0.43947309620E+02  0.00000000000E+00 0.  1.
         25    2    1    2    0    0  0.19253380675E+02  0.10047207470E+02  0.28861192671E+03  0.31530326120E+03  0.12509062010E+03 0.  0.
          5    1    3    3  502    0  0.61547327448E+01  0.53953150708E+02  0.24807810266E+03  0.25398630007E+03  0.41800000000E+01 0.  1.
         -5    1    3    3    0  502  0.13098647930E+02 -0.43905943238E+02  0.40533824053E+02  0.61316961125E+02  0.41800000000E+01 0.  1.
        -11    1    1    2    0    0 -0.33711645812E+02 -0.48851729120E+02  0.34106050654E+02  0.68455746235E+02  0.00000000000E+00 0.  1.
         11    1    1    2    0    0  0.14458265137E+02  0.38804521650E+02  0.18502500232E+02  0.45356089405E+02  0.00000000000E+00 0. -1.
</event>
<event>
 7    1  0.2719869E-009  0.1366353E+03  0.7561462E-02  0.1217930E+00
          2   -1    0    0  501    0  0.00000000000E+00  0.00000000000E+00  0.49749579886E+03  0.49749579886E+03  0.00000000000E+00 0. -1.
         -2   -1    0    0    0  501 -0.00000000000E+00 -0.00000000000E+00 -0.50045622640E+02  0.50045622640E+02  0.00000000000E+00 0.  1.
         25    2    1    2    0    0  0.98189410682E+02 -0.18532696498E+02  0.33454007958E+03  0.37087647624E+03  0.12509066542E+03 0.  0.
          5    1    3    3  502    0  0.88753409752E+02  0.27088793273E+02  0.29611580895E+03  0.31034338268E+03  0.41800000000E+01 0.  1.
         -5    1    3    3    0  502  0.94360009299E+01 -0.45621489772E+02  0.38424270628E+02  0.60533093559E+02  0.41800000000E+01 0.  1.
        -11    1    1    2    0    0 -0.11247941408E+03  0.28682796703E+02  0.10778193104E+03  0.15840222876E+03  0.00000000000E+00 0.  1.
         11    1    1    2    0    0  0.14290003398E+02 -0.10150100205E+02  0.51281655968E+01  0.18262716492E+02  0.00000000000E+00 0. -1.
</event>
<event>
 7    1  0.2719869E-009  0.1104575E+03  0.7561462E-02  0.1259725E+00
         -2   -1    0    0    0  501 -0.00000000000E+00  0.00000000000E+00  0.54351990474E+02  0.54351990474E+02  0.00000000000E+00 0. -1.
          2   -1    0    0  501    0  0.00000000000E+00 -0.00000000000E+00 -0.36886177264E+03  0.36886177264E+03  0.00000000000E+00 0.  1.
         25    2    1    2    0    0  0.55162558448E+02 -0.43860527709E+02 -0.87235558545E+02  0.16800015205E+03  0.12508938672E+03 0.  0.
          5    1    3    3  502    0  0.82929829284E+02 -0.35957598439E+02 -0.10111893437E+03  0.13569383464E+03  0.41800000000E+01 0. -1.
         -5    1    3    3    0  502 -0.27767270836E+02 -0.79029292699E+01  0.13883375824E+02  0.32306317416E+02  0.41800000000E+01 0. -1.
        -11    1    1    2    0    0 -0.10838039548E+02  0.54587857628E+02 -0.18441787652E+03  0.19263242323E+03  0.00000000000E+00 0.  1.
         11    1    1    2    0    0 -0.44324518900E+02 -0.10727329919E+02 -0.42856347103E+02  0.62581187827E+02  0.00000000000E+00 0. -1.
</event>
<event>
 7    1  0.2719869E-009  0.2396978E+03  0.7561462E-02  0.1119994E+00
          2   -1    0    0  501    0  0.00000000000E+00  0.00000000000E+00  0.10839579889E+03  0.10839579889E+03  0.00000000000E+00 0.  1.
         -2   -1    0    0    0  501 -0.00000000000E+00 -0.00000000000E+00 -0.56764131490E+03  0.56764131490E+03  0.00000000000E+00 0. -1.
         25    2    1    2    0    0 -0.12465197405E+03 -0.18475971634E+03 -0.24158208719E+03  0.35168658334E+03  0.12508909080E+03 0.  0.
          5    1    3    3  502    0 -0.11746444308E+03 -0.19665120178E+03 -0.18857118563E+03  0.29672572353E+03  0.41800000000E+01 0. -1.
         -5    1    3    3    0  502 -0.71875309652E+01  0.11891485448E+02 -0.53010901558E+02  0.54960859814E+02  0.41800000000E+01 0. -1.
        -11    1    1    2    0    0  0.88992264087E+02  0.63325866634E+02 -0.69363703021E+02  0.12938744819E+03  0.00000000000E+00 0.  1.
         11    1    1    2    0    0  0.35659709961E+02  0.12143384970E+03 -0.14829972580E+03  0.19496308225E+03  0.00000000000E+00 0. -1.
</event>
<event>
 7    1  0.2719869E-009  0.2112795E+03  0.7561462E-02  0.1140557E+00
          3   -1    0    0  501    0  0.00000000000E+00  0.00000000000E+00  0.25974427969E+03  0.25974427969E+03  0.00000000000E+00 0. -1.
         -3   -1    0    0    0  501 -0.00000000000E+00 -0.00000000000E+00 -0.26118692656E+03  0.26118692656E+03  0.00000000000E+00 0.  1.
         25    2    1    2    0    0 -0.64662262358E+02 -0.18649572862E+03 -0.13158616294E+03  0.26818254295E+03  0.12508034659E+03 0.  0.
          5    1    3    3  502    0  0.15613682418E+02 -0.11210276671E+03 -0.10725344548E+03  0.15598586908E+03  0.41800000000E+01 0. -1.
         -5    1    3    3    0  502 -0.80275944775E+02 -0.74392961902E+02 -0.24332717453E+02  0.11219667388E+03  0.41800000000E+01 0. -1.
        -11    1    1    2    0    0  0.32329055590E+02  0.50329632973E+02  0.88338262129E+02  0.10668593322E+03  0.00000000000E+00 0. -1.
         11    1    1    2    0    0  0.32333206768E+02  0.13616609564E+03  0.41805253937E+02  0.14606273008E+03  0.00000000000E+00 0.  1.
</event>
<event>
 7    1  0.2719869E-009  0.9843748E+02  0.7561462E-02  0.1283616E+00
         -2   -1    0    0    0  501 -0.00000000000E+00  0.00000000000E+00  0.25931363601E+03  0.25931363601E+03  0.00000000000E+00 0.  1.
          2   -1    0    0  501    0  0.00000000000E+00 -0.00000000000E+00 -0.53886470871E+02  0.53886470871E+02  0.00000000000E+00 0. -1.
         25    2    1    2    0    0 -0.31712825065E+02 -0.28013349046E+02  0.80394544987E+02  0.15460079112E+03  0.12509065014E+03 0.  0.
          5    1    3    3  502    0 -0.10411473720E+02 -0.71513944451E+02  0.16381166325E+02  0.74218987100E+02  0.41800000000E+01 0. -1.
         -5    1    3    3    0  502 -0.21301351345E+02  0.43500595405E+02  0.64013378662E+02  0.80381804020E+02  0.41800000000E+01 0. -1.
        -11    1    1    2    0    0 -0.18262119744E+02 -0.62197827434E+00 -0.27094935623E+01  0.18472499286E+02  0.00000000000E+00 0. -1.
         11    1    1    2    0    0  0.49974944809E+02  0.28635327320E+02  0.12774211371E+03  0.14012681647E+03  0.00000000000E+00 0.  1.
</event>
<event>
 7    1  0.2719869E-009  0.1674460E+03  0.7561462E-02  0.1180538E+00
          2   -1    0    0  501    0  0.00000000000E+00  0.00000000000E+00  0.83213703923E+03  0.83213703923E+03  0.00000000000E+00 0.  1.
         -2   -1    0    0    0  501 -0.00000000000E+00 -0.00000000000E+00 -0.38707023870E+02  0.38707023870E+02  0.00000000000E+00 0. -1.
         25    2    1    2    0    0  0.12547769263E+03 -0.63730117536E+02  0.36574258785E+03  0.41136755827E+03  0.12509775457E+03 0.  0.
          5    1    3    3  502    0  0.13985505457E+03 -0.19331310176E+02  0.26635970280E+03  0.30149311687E+03  0.41800000000E+01 0.  1.
         -5    1    3    3    0  502 -0.14377361950E+02 -0.44398807360E+02  0.99382885052E+02  0.10987444140E+03  0.41800000000E+01 0.  1.
        -11    1    1    2    0    0 -0.75056905352E+02  0.60252620493E+02  0.15733308072E+03  0.18443864998E+03  0.00000000000E+00 0. -1.
         11    1    1    2    0    0 -0.50420787273E+02  0.34774970432E+01  0.27035434679E+03  0.27503785486E+03  0.00000000000E+00 0.  1.
</event>
<event>
 7    1  0.2719869E-009  0.1149940E+03  0.7561462E-02  0.1251592E+00
         -1   -1    0    0    0  501 -0.00000000000E+00  0.00000000000E+00  0.45507963017E+02  0.45507963017E+02  0.00000000000E+00 0.  1.
          1   -1    0    0  501    0  0.00000000000E+00 -0.00000000000E+00 -0.50364776253E+03  0.50364776253E+03  0.00000000000E+00 0. -1.
         25    2    1    2    0    0  0.35942436011E+02  0.96942928320E+02 -0.29068959175E+03  0.33292774630E+03  0.12510257970E+03 0.  0.
          5    1    3    3  502    0  0.81093744083E+01  0.12660129395E+02 -0.21680345988E+03  0.21736433343E+03  0.41800000000E+01 0.  1.
         -5    1    3    3    0  502  0.27833061603E+02  0.84282798924E+02 -0.73886131873E+02  0.11556341288E+03  0.41800000000E+01 0.  1.
        -11    1    1    2    0    0 -0.44086697587E+02 -0.10511600665E+03 -0.11276982347E+03  0.16034352137E+03  0.00000000000E+00 0.  1.
         11    1    1    2    0    0  0.81442615757E+01  0.81730783336E+01 -0.54680384289E+02  0.55884457875E+02  0.00000000000E+00 0. -1.
</event>
<event>
 7    1  0.2719869E-009  0.1952029E+03  0.7561462E-02  0.1153851E+00
         -4   -1    0    0    0  501 -0.00000000000E+00  0.00000000000E+00  0.33653449390E+03  0.33653449390E+03  0.00000000000E+00 0.  1.
          4   -1    0    0  501    0  0.00000000000E+00 -0.00000000000E+00 -0.13020162995E+03  0.13020162995E+03  0.00000000000E+00 0. -1.
         25    2    1    2    0    0 -0.13188323806E+03 -0.11444561996E+03  0.66123117669E+02  0.22474484514E+03  0.12508793035E+03 0.  0.
          5    1    3    3  502    0 -0.75652912479E+02 -0.11601894240E+03  0.88104177274E+02  0.16420589702E+03  0.41800000000E+01 0. -1.
         -5    1    3    3    0  502 -0.56230325576E+02  0.15733224462E+01 -0.21981059604E+02  0.60538948118E+02  0.41800000000E+01 0. -1.
        -11    1    1    2    0    0 -0.13196587620E+02  0.73680916270E+01  0.20840663722E+02  0.25744357894E+02  0.00000000000E+00 0.  1.
         11    1    1    2    0    0  0.14507982568E+03  0.10707752833E+03  0.11936908256E+03  0.21624692082E+03  0.00000000000E+00 0. -1.
</event>
<event>
 7    1  0.2719869E-009  0.1344454E+03  0.7561462E-02  0.1221005E+00
          1   -1    0    0  501    0  0.00000000000E+00  0.00000000000E+00  0.23943514853E+03  0.23943514853E+03  0.00000000000E+00 0. -1.
         -1   -1    0    0    0  501 -0.00000000000E+00 -0.00000000000E+00 -0.96550126715E+02  0.96550126715E+02  0.00000000000E+00 0.  1.
         25    2    1    2    0    0 -0.10078790896E+02  0.10358126682E+03  0.11402855426E+03  0.19869240877E+03  0.12508197813E+03 0.  0.
          5    1    3    3  502    0 -0.39331882562E+02  0.15292960881E+02 -0.10037072311E+02  0.43578513730E+02  0.41800000000E+01 0. -1.
         -5    1    3    3    0  502  0.29253091666E+02  0.88288305935E+02  0.12406562657E+03  0.15511389504E+03  0.41800000000E+01 0. -1.
        -11    1    1    2    0    0 -0.35897255318E+02 -0.30823735001E+02  0.17649529073E+02  0.50499717378E+02  0.00000000000E+00 0.  1.
         11    1    1    2    0    0  0.45976046214E+02 -0.72757531815E+02  0.11206938488E+02  0.86793149105E+02  0.00000000000E+00 0. -1.
</event>
<event>
 7    1  0.2719869E-009  0.1089681E+03  0.7561462E-02  0.1262493E+00
          2   -1    0    0  501    0  0.00000000000E+00  0.00000000000E+00  0.52221629878E+03  0.52221629878E+03  0.00000000000E+00 0. -1.
         -2   -1    0    0    0  501 -0.00000000000E+00 -0.00000000000E+00 -0.31518067205E+02  0.31518067205E+02  0.00000000000E+00 0.  1.
         25    2    1    2    0    0  0.45519374613E+02 -0.45254319197E+02  0.32704265180E+03  0.35598381989E+03  0.12509043551E+03 0.  0.
          5    1    3    3  502    0  0.11330022298E+02  0.43615892769E+02  0.10868029853E+03  0.11772678198E+03  0.41800000000E+01 0.  1.
         -5    1    3    3    0  502  0.34189352315E+02 -0.88870211967E+02  0.21836235327E+03  0.23825703791E+03  0.41800000000E+01 0.  1.
        -11    1    1    2    0    0 -0.23477690306E+02 -0.36180512791E+01 -0.18025769930E+01  0.23823129958E+02  0.00000000000E+00 0.  1.
         11    1    1    2    0    0 -0.22041684307E+02  0.48872370477E+02  0.16545815677E+03  0.17392741614E+03  0.00000000000E+00 0. -1.
</event>
<event>
 7    1  0.2719869E-009  0.1067048E+03  0.7561462E-02  0.1266797E+00
         -2   -1    0    0    0  501 -0.00000000000E+00  0.00000000000E+00  0.31608991139E+02  0.31608991139E+02  0.00000000000E+00 0.  1.
          2   -1    0    0  501    0  0.00000000000E+00 -0.00000000000E+00 -0.48155584785E+03  0.48155584785E+03  0.00000000000E+00 0. -1.
         25    2    1    2    0    0 -0.49117265950E+02 -0.22294972100E+02 -0.28816680724E+03  0.31874188447E+03  0.12508680396E+03 0.  0.
          5    1    3    3  502    0  0.26289431370E+01 -0.62126046205E+02 -0.85705567506E+02  0.10596921091E+03  0.41800000000E+01 0.  1.
         -5    1    3    3    0  502 -0.51746209087E+02  0.39831074105E+02 -0.20246123973E+03  0.21277267356E+03  0.41800000000E+01 0.  1.
        -11    1    1    2    0    0  0.47826949943E+02  0.43355519186E+02 -0.52735004231E+02  0.83355256919E+02  0.00000000000E+00 0.  1.
         11    1    1    2    0    0  0.12903160068E+01 -0.21060547086E+02 -0.10904504524E+03  0.11106769760E+03  0.00000000000E+00 0. -1.
</event>
<event>
 7    1  0.2719869E-009  0.1196052E+03  0.7561462E-02  0.1243750E+00
         -1   -1    0    0    0  501 -0.00000000000E+00  0.00000000000E+00  0.13969118736E+03  0.13969118736E+03  0.00000000000E+00 0.  1.
          1   -1    0    0  501    0  0.00000000000E+00 -0.00000000000E+00 -0.10828476856E+03  0.10828476856E+03  0.00000000000E+00 0. -1.
         25    2    1    2    0    0  0.50617161635E+02 -0.70788575605E+01 -0.25654989151E-02  0.13512650278E+03  0.12508782702E+03 0.  0.
          5    1    3    3  502    0  0.91450641161E+02  0.55864781768E+00 -0.10295975503E+02  0.92124976894E+02  0.41800000000E+01 0.  1.
         -5    1    3    3    0  502 -0.40833479526E+02 -0.76375053782E+01  0.10293410004E+02  0.43001525882E+02  0.41800000000E+01 0.  1.
        -11    1    1    2    0    0 -0.64757003067E+02  0.35730471472E+02  0.32713299512E+02  0.80872096565E+02  0.00000000000E+00 0. -1.
         11    1    1    2    0    0  0.14139841432E+02 -0.28651613911E+02 -0.13043152103E+01  0.31977356576E+02  0.00000000000E+00 0.  1.
</event>
<event>
 7    1  0.2719869E-009  0.1677540E+03  0.7561462E-02  0.1180211E+00
         -1   -1    0    0    0  501 -0.00000000000E+00  0.00000000000E+00  0.23495110410E+03  0.23495110410E+03  0.00000000000E+00 0.  1.
          1   -1    0    0  501    0  0.00000000000E+00 -0.00000000000E+00 -0.13115445694E+03  0.13115445694E+03  0.00000000000E+00 0. -1.
         25    2    1    2    0    0 -0.13091194602E+03  0.41002809060E+02  0.72076662009E+02  0.19915235295E+03  0.12508975385E+03 0.  0.
          5    1    3    3  502    0 -0.58500949681E+02 -0.33641355548E+02 -0.76514281631E+01  0.68044975345E+02  0.41800000000E+01 0. -1.
         -5    1    3    3    0  502 -0.72410996343E+02  0.74644164607E+02  0.79728090172E+02  0.13110737761E+03  0.41800000000E+01 0. -1.
        -11    1    1    2    0    0  0.14149205347E+03 -0.23597637240E+02  0.29661339617E+02  0.14648086819E+03  0.00000000000E+00 0.  1.
         11    1    1    2    0    0 -0.10580107442E+02 -0.17405171820E+02  0.20586455319E+01  0.20472339900E+02  0.00000000000E+00 0. -1.
</event>
<event>
 7    1  0.2719869E-009  0.1128301E+03  0.7561462E-02  0.1255417E+00
         -2   -1    0    0    0  501 -0.00000000000E+00  0.00000000000E+00  0.15881423813E+03  0.15881423813E+03  0.00000000000E+00 0.  1.
          2   -1    0    0  501    0  0.00000000000E+00 -0.00000000000E+00 -0.82733871001E+02  0.82733871001E+02  0.00000000000E+00 0. -1.
         25    2    1    2    0    0 -0.22627059922E+02 -0.25624091714E+02  0.60969524726E+02  0.14329695221E+03  0.12509258831E+03 0.  0.
          5    1    3    3  502    0 -0.18229495103E+01 -0.74912317628E+02  0.44086326320E+02  0.87041685678E+02  0.41800000000E+01 0. -1.
         -5    1    3    3    0  502 -0.20804110411E+02  0.49288225914E+02  0.16883198406E+02  0.56255266528E+02  0.41800000000E+01 0. -1.
        -11    1    1    2    0    0 -0.28023614160E+02  0.35617269304E+02  0.44808428129E+01  0.45541088871E+02  0.00000000000E+00 0.  1.
         11    1    1    2    0    0  0.50650674082E+02 -0.99931775899E+01  0.10629999595E+02  0.52710068058E+02  0.00000000000E+00 0. -1.
</event>
<event>
 7    1  0.2719869E-009  0.7877761E+02  0.7561462E-02  0.1332557E+00
          1   -1    0    0  501    0  0.00000000000E+00  0.00000000000E+00  0.92450619511E+02  0.92450619511E+02  0.00000000000E+00 0. -1.
         -1   -1    0    0    0  501 -0.00000000000E+00 -0.00000000000E+00 -0.14221540678E+03  0.14221540678E+03  0.00000000000E+00 0.  1.
         25    2    1    2    0    0  0.10351265658E+02 -0.76275848213E+01  0.16036989310E+02  0.12676866246E+03  0.12509108683E+03 0.  0.
          5    1    3    3  502    0  0.53769876920E+02  0.34799567002E+02  0.14802382754E+01  0.64201814873E+02  0.41800000000E+01 0.  1.
         -5    1    3    3    0  502 -0.43418611263E+02 -0.42427151824E+02  0.14556751035E+02  0.62566847583E+02  0.41800000000E+01 0.  1.
        -11    1    1    2    0    0  0.81176510287E+01  0.11076244277E+02 -0.81968670803E+02  0.83111024772E+02  0.00000000000E+00 0.  1.
         11    1    1    2    0    0 -0.18468916686E+02 -0.34486594554E+01  0.16166894220E+02  0.24786339067E+02  0.00000000000E+00 0. -1.
</event>
<event>
 7    1  0.2719869E-009  0.1354077E+03  0.7561462E-02  0.1219645E+00
          1   -1    0    0  501    0  0.00000000000E+00  0.00000000000E+00  0.63848138678E+03  0.63848138678E+03  0.00000000000E+00 0. -1.
         -1   -1    0    0    0  501 -0.00000000000E+00 -0.00000000000E+00 -0.41050266410E+02  0.41050266410E+02  0.00000000000E+00 0.  1.
         25    2    1    2    0    0  0.11130250611E+03  0.24175292770E+02  0.39227217766E+03  0.42719853169E+03  0.12509369075E+03 0.  0.
          5    1    3    3  502    0  0.80375605785E+02 -0.35231352321E+02  0.30322999271E+03  0.31570142076E+03  0.41800000000E+01 0.  1.
         -5    1    3    3    0  502  0.30926900327E+02  0.59406645092E+02  0.89042184949E+02  0.11149711093E+03  0.41800000000E+01 0.  1.
        -11    1    1    2    0    0 -0.72946890674E+02 -0.53948179056E+01  0.19523644703E+03  0.20848890419E+03  0.00000000000E+00 0. -1.
         11    1    1    2    0    0 -0.38355615438E+02 -0.18780474865E+02  0.99224956841E+01  0.43844217319E+02  0.00000000000E+00 0.  1.
</event>
<event>
 7    1  0.2719869E-009  0.5018719E+02  0.7561462E-02  0.1444335E+00
         -2   -1    0    0    0  501 -0.00000000000E+00  0.00000000000E+00  0.26239719665E+03  0.26239719665E+03  0.00000000000E+00 0.  1.
          2   -1    0    0  501    0  0.00000000000E+00 -0.00000000000E+00 -0.50305800722E+02  0.50305800722E+02  0.00000000000E+00 0. -1.
         25    2    1    2    0    0  0.21889064826E+02 -0.29468103434E+02  0.85223146420E+02  0.15574961418E+03  0.12508979715E+03 0.  0.
          5    1    3    3  502    0  0.23911660913E+02 -0.25496227255E+02  0.11762323111E+03  0.12277834512E+03  0.41800000000E+01 0. -1.
         -5    1    3    3    0  502 -0.20225960869E+01 -0.39718761787E+01 -0.32400084694E+02  0.32971269061E+02  0.41800000000E+01 0. -1.
        -11    1    1    2    0    0  0.12270979552E+02  0.20250632635E+02  0.11816887127E+03  0.12051782938E+03  0.00000000000E+00 0.  1.
         11    1    1    2    0    0 -0.34160044378E+02  0.92174707992E+01  0.86993782359E+01  0.36435553812E+02  0.00000000000E+00 0. -1.
</event>
<event>
 7    1  0.2719869E-009  0.1425838E+03  0.7561462E-02  0.1209894E+00
          2   -1    0    0  501    0  0.00000000000E+00  0.00000000000E+00  0.28735065664E+03  0.28735065664E+03  0.00000000000E+00 0. -1.
         -2   -1    0    0    0  501 -0.00000000000E+00 -0.00000000000E+00 -0.15842048958E+03  0.15842048958E+03  0.00000000000E+00 0.  1.
         25    2    1    2    0    0 -0.98667650313E+02 -0.88037317021E+02  0.19908472917E+03  0.26975916097E+03  0.12509756645E+03 0.  0.
          5    1    3    3  502    0 -0.39869015106E+02 -0.28071324419E+02  0.17583280121E+03  0.18251625682E+03  0.41800000000E+01 0. -1.
         -5    1    3    3    0  502 -0.58798635207E+02 -0.59965992603E+02  0.23251927952E+02  0.87242904150E+02  0.41800000000E+01 0. -1.
        -11    1    1    2    0    0  0.21368535477E+02  0.69416791034E+02 -0.63058635672E+02  0.96185740725E+02  0.00000000000E+00 0.  1.
         11    1    1    2    0    0  0.77299114836E+02  0.18620525987E+02 -0.70959264333E+01  0.79826244522E+02  0.00000000000E+00 0. -1.
</event>
<event>
 7    1  0.2719869E-009  0.1152319E+03  0.7561462E-02  0.1251177E+00
          3   -1    0    0  501    0  0.00000000000E+00  0.00000000000E+00  0.40615381374E+03  0.40615381374E+03  0.00000000000E+00 0. -1.
         -3   -1    0    0    0  501 -0.00000000000E+00 -0.00000000000E+00 -0.42843401132E+02  0.42843401132E+02  0.00000000000E+00 0.  1.
         25    2    1    2    0    0 -0.65521222704E+02  0.77951327771E+01  0.26405490600E+03  0.29954565761E+03  0.12509521530E+03 0.  0.
          5    1    3    3  502    0  0.30268221803E+02 -0.15752905163E+02  0.12056715760E+03  0.12537237001E+03  0.41800000000E+01 0. -1.
         -5    1    3    3    0  502 -0.95789444507E+02  0.23548037940E+02  0.14348774840E+03  0.17417328759E+03  0.41800000000E+01 0. -1.
        -11    1    1    2    0    0  0.53163419998E+02  0.27575367219E+02  0.94226389809E+02  0.11164838843E+03  0.00000000000E+00 0. -1.
         11    1    1    2    0    0  0.12357802706E+02 -0.35370499996E+02  0.50291167995E+01  0.37803168829E+02  0.00000000000E+00 0.  1.
</event>
<event>
 7    1  0.2719869E-009  0.9381759E+02  0.7561462E-02  0.1293862E+00
          2   -1    0    0  501    0  0.00000000000E+00  0.00000000000E+00  0.11785886196E+04  0.11785886196E+04  0.00000000000E+00 0. -1.
         -2   -1    0    0    0  501 -0.00000000000E+00 -0.00000000000E+00 -0.16030656735E+02  0.16030656735E+02  0.00000000000E+00 0.  1.
         25    2    1    2    0    0  0.30164178554E+02  0.61541655656E+02  0.84709891705E+03  0.85902365282E+03  0.12509119793E+03 0.  0.
          5    1    3    3  502    0  0.68137852849E+01  0.45001318063E+02  0.86133750698E+02  0.97509187806E+02  0.41800000000E+01 0.  1.
         -5    1    3    3    0  502  0.23350393270E+02  0.16540337593E+02  0.76096516635E+03  0.76151446502E+03  0.41800000000E+01 0.  1.
        -11    1    1    2    0    0  0.18375335465E+02  0.14081153372E+02  0.88943953277E+02  0.91907337347E+02  0.00000000000E+00 0.  1.
         11    1    1    2    0    0 -0.48539514019E+02 -0.75622809027E+02  0.22651509257E+03  0.24368828619E+03  0.00000000000E+00 0. -1.
</event>
<event>
 7    1  0.2719869E-009  0.1211377E+03  0.7561462E-02  0.1241232E+00
          2   -1    0    0  501    0  0.00000000000E+00  0.00000000000E+00  0.53252843887E+03  0.53252843887E+03  0.00000000000E+00 0. -1.
         -2   -1    0    0    0  501 -0.00000000000E+00 -0.00000000000E+00 -0.35530765593E+02  0.35530765593E+02  0.00000000000E+00 0.  1.
         25    2    1    2    0    0 -0.11085684593E+02 -0.84756970434E+02  0.28006499712E+03  0.31841899808E+03  0.12509044443E+03 0.  0.
          5    1    3    3  502    0  0.49867393535E+02 -0.73667941586E+02  0.17561276576E+03  0.19690362733E+03  0.41800000000E+01 0. -1.
         -5    1    3    3    0  502 -0.60953078128E+02 -0.11089028848E+02  0.10445223136E+03  0.12151537076E+03  0.41800000000E+01 0. -1.
        -11    1    1    2    0    0 -0.10279697086E+02  0.15124532072E+02 -0.24793688357E+01  0.18454563457E+02  0.00000000000E+00 0.  1.
         11    1    1    2    0    0  0.21365381679E+02  0.69632438361E+02  0.21941204499E+03  0.23118564292E+03  0.00000000000E+00 0. -1.
</event>
<event>
 7    1  0.2719869E-009  0.1072833E+03  0.7561462E-02  0.1265685E+00
          1   -1    0    0  501    0  0.00000000000E+00  0.00000000000E+00  0.44043946855E+03  0.44043946855E+03  0.00000000000E+00 0. -1.
         -1   -1    0    0    0  501 -0.00000000000E+00 -0.00000000000E+00 -0.35123211538E+02  0.35123211538E+02  0.00000000000E+00 0.  1.
         25    2    1    2    0    0  0.51985618330E+02 -0.11074837108E+02  0.17099390344E+03  0.21842856950E+03  0.12508784286E+03 0.  0.
          5    1    3    3  502    0  0.25008901328E+02 -0.62652165663E+02  0.13183713072E+03  0.14815276050E+03  0.41800000000E+01 0. -1.
         -5    1    3    3    0  502  0.26976717002E+02  0.51577328555E+02  0.39156772720E+02  0.70275809002E+02  0.41800000000E+01 0. -1.
        -11    1    1    2    0    0 -0.51058140468E+02  0.36763494396E+02  0.85757496947E+02  0.10636181886E+03  0.00000000000E+00 0.  1.
         11    1    1    2    0    0 -0.92747786173E+00 -0.25688657288E+02  0.14856485662E+03  0.15077229173E+03  0.00000000000E+00 0. -1.
</event>
<event>
 7    1  0.2719869E-009  0.1337927E+03  0.7561462E-02  0.1221934E+00
         -2   -1    0    0    0  501 -0.00000000000E+00  0.00000000000E+00  0.82609938223E+02  0.82609938223E+02  0.00000000000E+00 0.  1.
          2   -1    0    0  501    0  0.00000000000E+00 -0.00000000000E+00 -0.25037809254E+03  0.25037809254E+03  0.00000000000E+00 0. -1.
         25    2    1    2    0    0 -0.69270332270E+01 -0.91394944282E+02 -0.11967701453E+03  0.19588533573E+03  0.12508979701E+03 0.  0.
          5    1    3    3  502    0 -0.11291059719E+02 -0.12021630874E+03 -0.74444660149E+02  0.14191169346E+03  0.41800000000E+01 0. -1.
         -5    1    3    3    0  502  0.43640264918E+01  0.28821364457E+02 -0.45232354382E+02  0.53973642264E+02  0.41800000000E+01 0. -1.
        -11    1    1    2    0    0  0.38152259901E+02  0.30347864436E+02  0.68609281081E+01  0.49230682972E+02  0.00000000000E+00 0.  1.
         11    1    1    2    0    0 -0.31225226674E+02  0.61047079846E+02 -0.54952067895E+02  0.87872012066E+02  0.00000000000E+00 0. -1.
</event>
<event>
 7    1  0.2719869E-009  0.3710286E+03  0.7561462E-02  0.1054300E+00
          1   -1    0    0  501    0  0.00000000000E+00  0.00000000000E+00  0.28597745167E+03  0.28597745167E+03  0.00000000000E+00 0. -1.
         -1   -1    0    0    0  501 -0.00000000000E+00 -0.00000000000E+00 -0.78875573532E+03  0.78875573532E+03  0.00000000000E+00 0.  1.
         25    2    1    2    0    0  0.87204938499E+02  0.35786027270E+03 -0.56961408310E+03  0.68976557826E+03  0.12509065993E+03 0.  0.
          5    1    3    3  502    0  0.47986834970E+02  0.11764307352E+03 -0.10356302020E+03  0.16396768166E+03  0.41800000000E+01 0.  1.
         -5    1    3    3    0  502  0.39218103529E+02  0.24021719919E+03 -0.46605106290E+03  0.52579789659E+03  0.41800000000E+01 0.  1.
        -11    1    1    2    0    0 -0.85621417990E+02 -0.26215460395E+03  0.82761104720E+02  0.28793308953E+03  0.00000000000E+00 0. -1.
         11    1    1    2    0    0 -0.15835205090E+01 -0.95705668756E+02 -0.15925305261E+02  0.97034519202E+02  0.00000000000E+00 0.  1.
</event>
<event>
 7    1  0.2719869E-009  0.1309770E+03  0.7561462E-02  0.1226013E+00
         -1   -1    0    0    0  501 -0.00000000000E+00  0.00000000000E+00  0.16010836298E+02  0.16010836298E+02  0.00000000000E+00 0.  1.
          1   -1    0    0  501    0  0.00000000000E+00 -0.00000000000E+00 -0.18848717425E+04  0.18848717425E+04  0.00000000000E+00 0. -1.
         25    2    1    2    0    0  0.11741297320E+02 -0.12490242449E+03 -0.12751754945E+04  0.12874238626E+04  0.12509670835E+03 0.  0.
          5    1    3    3  502    0  0.11495988987E+02 -0.87273246609E+01 -0.12893133603E+02  0.19799728600E+02  0.41800000000E+01 0.  1.
         -5    1    3    3    0  502  0.24530833346E+00 -0.11617509983E+03 -0.12622823609E+04  0.12676241340E+04  0.41800000000E+01 0.  1.
        -11    1    1    2    0    0 -0.12923548555E+02  0.11592639684E+02 -0.12660637908E+02  0.21487185817E+02  0.00000000000E+00 0.  1.
         11    1    1    2    0    0  0.11822512349E+01  0.11330978481E+03 -0.58102477372E+03  0.59197153033E+03  0.00000000000E+00 0. -1.
</event>
<event>
 7    1  0.2719869E-009  0.1284057E+03  0.7561462E-02  0.1229841E+00
         -2   -1    0    0    0  501 -0.00000000000E+00  0.00000000000E+00  0.35993533424E+02  0.35993533424E+02  0.00000000000E+00 0.  1.
          2   -1    0    0  501    0  0.00000000000E+00 -0.00000000000E+00 -0.52092219693E+03  0.52092219693E+03  0.00000000000E+00 0. -1.
         25    2    1    2    0    0  0.64641994016E+02  0.44555692180E+02 -0.21793412027E+03  0.26326275463E+03  0.12509276597E+03 0.  0.
          5    1    3    3  502    0  0.76820149033E+02  0.71523139433E+02 -0.20570498891E+03  0.23097382889E+03  0.41800000000E+01 0.  1.
         -5    1    3    3    0  502 -0.12178155018E+02 -0.26967447253E+02 -0.12229131367E+02  0.32288925733E+02  0.41800000000E+01 0.  1.
        -11    1    1    2    0    0 -0.86129779239E+02 -0.50167181136E+02 -0.20899593216E+03  0.23154780196E+03  0.00000000000E+00 0.  1.
         11    1    1    2    0    0  0.21487785223E+02  0.56114889560E+01 -0.57998611075E+02  0.62105173768E+02  0.00000000000E+00 0. -1.
</event>
<event>
 6    1  0.2719869E-009  0.1339933E+03  0.7561462E-02  0.1221648E+00
          1   -1    0    0  501    0  0.00000000000E+00  0.00000000000E+00  0.10024893264E+03  0.10024893264E+03  0.00000000000E+00 0. -1.
         -1   -1    0    0    0  501 -0.00000000000E+00 -0.00000000000E+00 -0.18682030152E+03  0.18682030152E+03  0.00000000000E+00 0.  1.
          5    1    1    2  502    0 -0.31023649365E+02 -0.27957324423E+02 -0.61074831904E+01  0.42412882002E+02  0.41800000000E+01 0.  1.
         -5    1    1    2    0  502  0.10471799606E+03 -0.75875704643E+01 -0.60928241445E+02  0.12146255773E+03  0.41800000000E+01 0.  1.
        -11    1    1    2    0    0 -0.65825723623E+02  0.63763472429E+02 -0.91009496572E+01  0.92095784873E+02  0.00000000000E+00 0. -1.
         11    1    1    2    0    0 -0.78686230686E+01 -0.28218577542E+02 -0.10434694588E+02  0.31098009560E+02  0.00000000000E+00 0.  1.
</event>
<event>
 7    1  0.2719869E-009  0.1290180E+03  0.7561462E-02  0.1228920E+00
          2   -1    0    0  501    0  0.00000000000E+00  0.00000000000E+00  0.38158064710E+02  0.38158064710E+02  0.00000000000E+00 0.  1.
         -2   -1    0    0    0  501 -0.00000000000E+00 -0.00000000000E+00 -0.70704122273E+03  0.70704122273E+03  0.00000000000E+00 0. -1.
         25    2    1    2    0    0 -0.59971411972E+02 -0.80679065337E+02 -0.49323702587E+03  0.51868844124E+03  0.12509697656E+03 0.  0.
          5    1    3    3  502    0  0.41802350306E+01  0.22246848000E+02 -0.20017967629E+03  0.20149881342E+03  0.41800000000E+01 0.  1.
         -5    1    3    3    0  502 -0.64151647003E+02 -0.10292591334E+03 -0.29305734958E+03  0.31718962781E+03  0.41800000000E+01 0.  1.
        -11    1    1    2    0    0  0.69162861474E+02  0.62169579932E+02 -0.18242460807E+03  0.20476155818E+03  0.00000000000E+00 0. -1.
         11    1    1    2    0    0 -0.91914495021E+01  0.18509485404E+02  0.67784759232E+01  0.21749288028E+02  0.00000000000E+00 0.  1.
</event>
<event>
 7    1  0.2719869E-009  0.1703221E+03  0.7561462E-02  0.1177512E+00
          2   -1    0    0  501    0  0.00000000000E+00  0.00000000000E+00  0.12019286879E+03  0.12019286879E+03  0.00000000000E+00 0. -1.
         -2   -1    0    0    0  501 -0.00000000000E+00 -0.00000000000E+00 -0.26753444744E+03  0.26753444744E+03  0.00000000000E+00 0.  1.
         25    2    1    2    0    0 -0.65895548576E+01 -0.14150134504E+03 -0.56763553655E+02  0.19732011093E+03  0.12508825793E+03 0.  0.
          5    1    3    3  502    0 -0.33618419809E+02 -0.15401037435E+03 -0.55652365608E+02  0.16722455488E+03  0.41800000000E+01 0. -1.
         -5    1    3    3    0  502  0.27028864952E+02  0.12509029311E+02 -0.11111880469E+01  0.30095556047E+02  0.41800000000E+01 0. -1.
        -11    1    1    2    0    0 -0.17094128483E+02  0.11190615993E+02 -0.46548413121E+02  0.50834967090E+02  0.00000000000E+00 0.  1.
         11    1    1    2    0    0  0.23683683341E+02  0.13031072904E+03 -0.44029611874E+02  0.13957223822E+03  0.00000000000E+00 0. -1.
</event>
<event>
 7    1  0.2719869E-009  0.5137776E+03  0.7561462E-02  0.1010244E+00
          2   -1    0    0  501    0  0.00000000000E+00  0.00000000000E+00  0.20351154926E+04  0.20351154926E+04  0.00000000000E+00 0. -1.
         -2   -1    0    0    0  501 -0.00000000000E+00 -0.00000000000E+00 -0.14153349207E+03  0.14153349207E+03  0.00000000000E+00 0.  1.
         25    2    1    2    0    0 -0.38701795079E+03 -0.33045199601E+03  0.68673732505E+03  0.86384986115E+03  0.12508802131E+03 0.  0.
          5    1    3    3  502    0 -0.19580268071E+03 -0.21227728171E+03  0.46946705037E+03  0.55119607935E+03  0.41800000000E+01 0.  1.
         -5    1    3    3    0  502 -0.19121527008E+03 -0.11817471431E+03  0.21727027468E+03  0.31265378180E+03  0.41800000000E+01 0.  1.
        -11    1    1    2    0    0  0.67901587581E+02  0.97489320227E+02  0.33993669909E+03  0.36009964252E+03  0.00000000000E+00 0. -1.
         11    1    1    2    0    0  0.31911636321E+03  0.23296267579E+03  0.86690797643E+03  0.95269948104E+03  0.00000000000E+00 0.  1.
</event>
<event>
 7    1  0.2719869E-009  0.8931431E+02  0.7561462E-02  0.1304521E+00
          2   -1    0    0  501    0  0.00000000000E+00  0.00000000000E+00  0.21855972542E+04  0.21855972542E+04  0.00000000000E+00 0. -1.
         -2   -1    0    0    0  501 -0.00000000000E+00 -0.00000000000E+00 -0.86746841489E+01  0.86746841489E+01  0.00000000000E+00 0.  1.
         25    2    1    2    0    0  0.42663804029E+02 -0.48269774464E+01  0.17604765546E+04  0.17654366675E+04  0.12508168363E+03 0.  0.
          5    1    3    3  502    0  0.62061510036E+02 -0.14567765258E+01  0.17094805453E+04  0.17106124519E+04  0.41800000000E+01 0. -1.
         -5    1    3    3    0  502 -0.19397706007E+02 -0.33702009205E+01  0.50996009322E+02  0.54824215629E+02  0.41800000000E+01 0. -1.
        -11    1    1    2    0    0 -0.47257916999E+02  0.39324956675E+02  0.32942760463E+03  0.33511536764E+03  0.00000000000E+00 0.  1.
         11    1    1    2    0    0  0.45941129694E+01 -0.34497979228E+02  0.87018410753E+02  0.93719903195E+02  0.00000000000E+00 0. -1.
</event>
<event>
 7    1  0.2719869E-009  0.9869846E+02  0.7561462E-02  0.1283057E+00
         -1   -1    0    0    0  501 -0.00000000000E+00  0.00000000000E+00  0.24706550060E+02  0.24706550060E+02  0.00000000000E+00 0.  1.
          1   -1    0    0  501    0  0.00000000000E+00 -0.00000000000E+00 -0.61079602352E+03  0.61079602352E+03  0.00000000000E+00 0. -1.
         25    2    1    2    0    0 -0.74151361532E+01  0.46795452790E+02 -0.40749261969E+03  0.42888603321E+03  0.12509274852E+03 0.  0.
          5    1    3    3  502    0  0.53259844344E+02  0.20455873335E+02 -0.27324718779E+03  0.27917118728E+03  0.41800000000E+01 0. -1.
         -5    1    3    3    0  502 -0.60674980497E+02  0.26339579455E+02 -0.13424543190E+03  0.14971484593E+03  0.41800000000E+01 0. -1.
        -11    1    1    2    0    0 -0.14473232770E+02  0.68219286934E+01  0.27605773950E+01  0.16236808968E+02  0.00000000000E+00 0.  1.
         11    1    1    2    0    0  0.21888368923E+02 -0.53617381484E+02 -0.18135743116E+03  0.19037973140E+03  0.00000000000E+00 0. -1.
</event>
<event>
 7    1  0.2719869E-009  0.7306643E+02  0.7561462E-02  0.1349965E+00
         -1   -1    0    0    0  501 -0.00000000000E+00  0.00000000000E+00  0.13287707452E+03  0.13287707452E+03  0.00000000000E+00 0.  1.
          1   -1    0    0  501    0  0.00000000000E+00 -0.00000000000E+00 -0.19136598008E+03  0.19136598008E+03  0.00000000000E+00 0. -1.
         25    2    1    2    0    0 -0.48346777927E+00  0.54104724869E+02  0.73282692580E+02  0.15476141696E+03  0.12511270181E+03 0.  0.
          5    1    3    3  502    0  0.15866244285E+02  0.55127782470E+02 -0.19283371392E+02  0.60664082619E+02  0.41800000000E+01 0.  1.
         -5    1    3    3    0  502 -0.16349712064E+02 -0.10230576008E+01  0.92566063972E+02  0.94097334344E+02  0.41800000000E+01 0.  1.
        -11    1    1    2    0    0 -0.23285002165E+02 -0.26104055722E+02 -0.24727569014E+01  0.35067471789E+02  0.00000000000E+00 0.  1.
         11    1    1    2    0    0  0.23768469944E+02 -0.28000669147E+02 -0.12929884123E+03  0.13441416585E+03  0.00000000000E+00 0. -1.
</event>
<event>
 7    1  0.2719869E-009  0.1534040E+03  0.7561462E-02  0.1196352E+00
         -2   -1    0    0    0  501 -0.00000000000E+00  0.00000000000E+00  0.57301977041E+02  0.57301977041E+02  0.00000000000E+00 0.  1.
          2   -1    0    0  501    0  0.00000000000E+00 -0.00000000000E+00 -0.51957898935E+03  0.51957898935E+03  0.00000000000E+00 0. -1.
         25    2    1    2    0    0  0.12933118902E+03 -0.43658803843E+00 -0.18774891058E+03  0.26004547440E+03  0.12508896142E+03 0.  0.
          5    1    3    3  502    0  0.73881708842E+02 -0.60526139114E+02 -0.12228918665E+03  0.15522254343E+03  0.41800000000E+01 0.  1.
         -5    1    3    3    0  502  0.55449480175E+02  0.60089551075E+02 -0.65459723935E+02  0.10482293097E+03  0.41800000000E+01 0.  1.
        -11    1    1    2    0    0 -0.91655769928E+02 -0.19453118553E+00 -0.89842693575E+02  0.12834534504E+03  0.00000000000E+00 0.  1.
         11    1    1    2    0    0 -0.37675419088E+02  0.63111922397E+00 -0.18468540815E+03  0.18849014696E+03  0.00000000000E+00 0. -1.
</event>
<event>
 7    1  0.2719869E-009  0.1168571E+03  0.7561462E-02  0.1248374E+00
          2   -1    0    0  501    0  0.00000000000E+00  0.00000000000E+00  0.13460039396E+03  0.13460039396E+03  0.00000000000E+00 0. -1.
         -2   -1    0    0    0  501 -0.00000000000E+00 -0.00000000000E+00 -0.15073495490E+03  0.15073495490E+03  0.00000000000E+00 0.  1.
         25    2    1    2    0    0  0.19850009093E+02  0.63433611715E+02  0.55898441664E+02  0.15228247965E+03  0.12508985519E+03 0.  0.
          5    1    3    3  502    0 -0.39994408913E+02  0.64226671226E+02  0.52508569254E+02  0.92191324354E+02  0.41800000000E+01 0.  1.
         -5    1    3    3    0  502  0.59844418007E+02 -0.79305951087E+00  0.33898724105E+01  0.60091155297E+02  0.41800000000E+01 0.  1.
        -11    1    1    2    0    0 -0.75886807163E+00 -0.75404496103E+02 -0.22593593075E+02  0.78720291928E+02  0.00000000000E+00 0. -1.
         11    1    1    2    0    0 -0.19091141022E+02  0.11970884387E+02 -0.49439409532E+02  0.54332577275E+02  0.00000000000E+00 0.  1.
</event>
<event>
 7    1  0.2719869E-009  0.8742949E+02  0.7561462E-02  0.1309199E+00
         -2   -1    0    0    0  501 -0.00000000000E+00  0.00000000000E+00  0.46474353513E+02  0.46474353513E+02  0.00000000000E+00 0.  1.
          2   -1    0    0  501    0  0.00000000000E+00 -0.00000000000E+00 -0.30847217276E+03  0.30847217276E+03  0.00000000000E+00 0. -1.
         25    2    1    2    0    0 -0.32180200562E+02 -0.26537881585E+02 -0.14839737257E+03  0.19851893728E+03  0.12509262091E+03 0.  0.
          5    1    3    3  502    0 -0.48236521135E+02 -0.30362069828E+02 -0.87241655753E+01  0.57811769739E+02  0.41800000000E+01 0.  1.
         -5    1    3    3    0  502  0.16056320573E+02  0.38241882427E+01 -0.13967320699E+03  0.14070716754E+03  0.41800000000E+01 0.  1.
        -11    1    1    2    0    0  0.64476732114E+02  0.21673333772E+02 -0.48335286947E+02  0.83446284190E+02  0.00000000000E+00 0.  1.
         11    1    1    2    0    0 -0.32296531552E+02  0.48645478126E+01 -0.65265159734E+02  0.72981304803E+02  0.00000000000E+00 0. -1.
</event>
<event>
 7    1  0.2719869E-009  0.9805918E+02  0.7561462E-02  0.1284431E+00
          2   -1    0    0  501    0  0.00000000000E+00  0.00000000000E+00  0.40441006306E+03  0.40441006306E+03  0.00000000000E+00 0. -1.
         -2   -1    0    0    0  501 -0.00000000000E+00 -0.00000000000E+00 -0.30692398436E+02  0.30692398436E+02  0.00000000000E+00 0.  1.
         25    2    1    2    0    0 -0.66135470184E+01  0.23018373240E+02  0.23016863617E+03  0.26305650010E+03  0.12509011414E+03 0.  0.
          5    1    3    3  502    0  0.17712436868E+02  0.56723534061E+02  0.20675591372E+03  0.21516684223E+03  0.41800000000E+01 0.  1.
         -5    1    3    3    0  502 -0.24325983887E+02 -0.33705160821E+02  0.23412722445E+02  0.47889657864E+02  0.41800000000E+01 0.  1.
        -11    1    1    2    0    0 -0.42343194020E+02 -0.16222206774E+02  0.71831567743E+02  0.84946337160E+02  0.00000000000E+00 0. -1.
         11    1    1    2    0    0  0.48956741039E+02 -0.67961664664E+01  0.71717460708E+02  0.87099624236E+02  0.00000000000E+00 0.  1.
</event>
<event>
 7    1  0.2719869E-009  0.1096975E+03  0.7561462E-02  0.1261131E+00
         -1   -1    0    0    0  501 -0.00000000000E+00  0.00000000000E+00  0.11598163710E+03  0.11598163710E+03  0.00000000000E+00 0.  1.
          1   -1    0    0  501    0  0.00000000000E+00 -0.00000000000E+00 -0.18166895725E+03  0.18166895725E+03  0.00000000000E+00 0. -1.
         25    2    1    2    0    0  0.65300110476E+02  0.58505180554E+02 -0.76777829175E+02  0.17096411720E+03  0.12508770419E+03 0.  0.
          5    1    3    3  502    0  0.12906709293E+02  0.56571492794E+02 -0.98228053485E+02  0.11416277779E+03  0.41800000000E+01 0.  1.
         -5    1    3    3    0  502  0.52393401183E+02  0.19336877599E+01  0.21450224310E+02  0.56801339411E+02  0.41800000000E+01 0.  1.
        -11    1    1    2    0    0 -0.51987310379E+02 -0.35821036371E+01 -0.26847374678E+02  0.58619906466E+02  0.00000000000E+00 0. -1.
         11    1    1    2    0    0 -0.13312800097E+02 -0.54923076917E+02  0.37937883700E+02  0.68066570680E+02  0.00000000000E+00 0.  1.
</event>
<event>
 7    1  0.2719869E-009  0.1877079E+03  0.7561462E-02  0.1160545E+00
         -2   -1    0    0    0  501 -0.00000000000E+00  0.00000000000E+00  0.10755424745E+03  0.10755424745E+03  0.00000000000E+00 0. -1.
          2   -1    0    0  501    0  0.00000000000E+00 -0.00000000000E+00 -0.39764836669E+03  0.39764836669E+03  0.00000000000E+00 0.  1.
         25    2    1    2    0    0 -0.13418886296E+02 -0.17542508259E+03 -0.13581922440E+03  0.25504650512E+03  0.12509129443E+03 0.  0.
          5    1    3    3  502    0 -0.17252731219E+02 -0.28107156492E+02 -0.97080698379E+02  0.10261483021E+03  0.41800000000E+01 0. -1.
         -5    1    3    3    0  502  0.38338449235E+01 -0.14731792610E+03 -0.38738526024E+02  0.15243167491E+03  0.41800000000E+01 0. -1.
        -11    1    1    2    0    0 -0.28452713032E+02  0.12953519315E+03 -0.12175765553E+03  0.18003846762E+03  0.00000000000E+00 0.  1.
         11    1    1    2    0    0  0.41871599327E+02  0.45889889445E+02 -0.32517239299E+02  0.70117641397E+02  0.00000000000E+00 0. -1.
</event>
<event>
 7    1  0.3406125E-009  0.1093753E+03  0.7561462E-02  0.1261731E+00
          2   -1    0    0  501    0  0.00000000000E+00  0.00000000000E+00  0.99742555646E+03  0.99742555646E+03  0.00000000000E+00 0. -1.
         -2   -1    0    0    0  501 -0.00000000000E+00 -0.00000000000E+00 -0.15393307827E+02  0.15393307827E+02  0.00000000000E+00 0.  1.
         25    2    1    2    0    0 -0.40101384112E+02  0.74281007145E+01  0.72627353329E+03  0.73809531560E+03  0.12509257398E+03 0.  0.
          5    1    3    3  502    0  0.21373587237E+02 -0.41443219361E+02  0.17151112124E+03  0.17778612930E+03  0.41800000000E+01 0. -1.
         -5    1    3    3    0  502 -0.61474971350E+02  0.48871320075E+02  0.55476241204E+03  0.56030918629E+03  0.41800000000E+01 0. -1.
        -11    1    1    2    0    0  0.52638955144E+02 -0.34854314285E+02  0.11932441155E+03  0.13499628889E+03  0.00000000000E+00 0.  1.
         11    1    1    2    0    0 -0.12537571032E+02  0.27426213571E+02  0.13643430380E+03  0.13972725980E+03  0.00000000000E+00 0. -1.
</event>
<event>
 7    1  0.2719869E-009  0.8346601E+02  0.7561462E-02  0.1319494E+00
          1   -1    0    0  501    0  0.00000000000E+00  0.00000000000E+00  0.12440180320E+03  0.12440180320E+03  0.00000000000E+00 0. -1.
         -1   -1    0    0    0  501 -0.00000000000E+00 -0.00000000000E+00 -0.14496966023E+03  0.14496966023E+03  0.00000000000E+00 0.  1.
         25    2    1    2    0    0  0.78055869196E+01 -0.75854911656E+00  0.64542223661E+02  0.14097874997E+03  0.12509119363E+03 0.  0.
          5    1    3    3  502    0  0.35288318487E+02  0.22841980697E+02  0.88003804222E+02  0.97617434208E+02  0.41800000000E+01 0.  1.
         -5    1    3    3    0  502 -0.27482731567E+02 -0.23600529814E+02 -0.23461580561E+02  0.43361315758E+02  0.41800000000E+01 0.  1.
        -11    1    1    2    0    0 -0.22445440794E+02 -0.39474196890E+02 -0.18122282638E+02  0.48891994852E+02  0.00000000000E+00 0.  1.
         11    1    1    2    0    0  0.14639853874E+02  0.40232746007E+02 -0.66987798051E+02  0.79500718616E+02  0.00000000000E+00 0. -1.
</event>
<event>
 7    1  0.2719869E-009  0.1400104E+03  0.7561462E-02  0.1213315E+00
          1   -1    0    0  501    0  0.00000000000E+00  0.00000000000E+00  0.90729664583E+03  0.90729664583E+03  0.00000000000E+00 0. -1.
         -1   -1    0    0    0  501 -0.00000000000E+00 -0.00000000000E+00 -0.35616047524E+02  0.35616047524E+02  0.00000000000E+00 0.  1.
         25    2    1    2    0    0  0.24272603274E+02 -0.10975984953E+03  0.22936220642E+03  0.28441471193E+03  0.12509325637E+03 0.  0.
          5    1    3    3  502    0  0.52886213875E+02 -0.85801865902E+02  0.75409766629E+02  0.12594847007E+03  0.41800000000E+01 0. -1.
         -5    1    3    3    0  502 -0.28613610601E+02 -0.23957983623E+02  0.15395243979E+03  0.15846624186E+03  0.41800000000E+01 0. -1.
        -11    1    1    2    0    0 -0.34207090034E+02  0.29661284266E+01  0.10160233216E+03  0.10724717631E+03  0.00000000000E+00 0.  1.
         11    1    1    2    0    0  0.99344867604E+01  0.10679372110E+03  0.54071605973E+03  0.55125080512E+03  0.00000000000E+00 0. -1.
</event>
<event>
 7    1  0.2719869E-009  0.8620003E+02  0.7561462E-02  0.1312324E+00
         -2   -1    0    0    0  501 -0.00000000000E+00  0.00000000000E+00  0.22732003876E+02  0.22732003876E+02  0.00000000000E+00 0.  1.
          2   -1    0    0  501    0  0.00000000000E+00 -0.00000000000E+00 -0.53286669624E+03  0.53286669624E+03  0.00000000000E+00 0. -1.
         25    2    1    2    0    0  0.13141231450E+02  0.18370820710E+02 -0.26792405797E+03  0.29654721601E+03  0.12508705555E+03 0.  0.
          5    1    3    3  502    0 -0.23764638257E+02  0.40705387473E+02 -0.33076337292E+02  0.57733898963E+02  0.41800000000E+01 0. -1.
         -5    1    3    3    0  502  0.36905869707E+02 -0.22334566763E+02 -0.23484772067E+03  0.23881331704E+03  0.41800000000E+01 0. -1.
        -11    1    1    2    0    0  0.33195955402E+02 -0.98478727495E+01 -0.47863924137E+02  0.59075437253E+02  0.00000000000E+00 0. -1.
         11    1    1    2    0    0 -0.46337186853E+02 -0.85229479608E+01 -0.19434671027E+03  0.19997604686E+03  0.00000000000E+00 0.  1.
</event>
<event>
 7    1  0.2719869E-009  0.1504732E+03  0.7561462E-02  0.1199893E+00
          1   -1    0    0  501    0  0.00000000000E+00  0.00000000000E+00  0.12282007815E+03  0.12282007815E+03  0.00000000000E+00 0. -1.
         -1   -1    0    0    0  501 -0.00000000000E+00 -0.00000000000E+00 -0.27532702599E+03  0.27532702599E+03  0.00000000000E+00 0.  1.
         25    2    1    2    0    0 -0.50261865973E+01  0.11771498441E+03 -0.17695692289E+03  0.24665755718E+03  0.12507644802E+03 0.  0.
          5    1    3    3  502    0 -0.32212823022E+02  0.13178107564E+03 -0.16470591546E+03  0.21342312164E+03  0.41800000000E+01 0.  1.
         -5    1    3    3    0  502  0.27186636425E+02 -0.14066091227E+02 -0.12251007425E+02  0.33234435536E+02  0.41800000000E+01 0.  1.
        -11    1    1    2    0    0 -0.28704415711E+02 -0.36860417905E+02 -0.22763212241E+02  0.51969199733E+02  0.00000000000E+00 0.  1.
         11    1    1    2    0    0  0.33730602308E+02 -0.80854566509E+02  0.47213187297E+02  0.99520347227E+02  0.00000000000E+00 0. -1.
</event>
<event>
 7    1  0.2719869E-009  0.2123419E+03  0.7561462E-02  0.1139725E+00
          1   -1    0    0  501    0  0.00000000000E+00  0.00000000000E+00  0.31147262617E+03  0.31147262617E+03  0.00000000000E+00 0.  1.
         -1   -1    0    0    0  501 -0.00000000000E+00 -0.00000000000E+00 -0.16001163213E+03  0.16001163213E+03  0.00000000000E+00 0. -1.
         25    2    1    2    0    0 -0.16377183317E+03  0.91550056590E+02  0.24840304534E+02  0.22686325999E+03  0.12508905549E+03 0.  0.
          5    1    3    3  502    0 -0.17955085283E+03  0.10108191192E+03  0.18473980139E+02  0.20691742800E+03  0.41800000000E+01 0.  1.
         -5    1    3    3    0  502  0.15779019658E+02 -0.95318553304E+01  0.63663243953E+01  0.19945831988E+02  0.41800000000E+01 0.  1.
        -11    1    1    2    0    0  0.69782664974E+02 -0.19107889147E+01  0.81068845607E+02  0.10698331259E+03  0.00000000000E+00 0.  1.
         11    1    1    2    0    0  0.93989168196E+02 -0.89639267676E+02  0.45551843895E+02  0.13763768572E+03  0.00000000000E+00 0. -1.
</event>
<event>
 7    1  0.2719869E-009  0.1432891E+03  0.7561462E-02  0.1208971E+00
          2   -1    0    0  501    0  0.00000000000E+00  0.00000000000E+00  0.52956552383E+03  0.52956552383E+03  0.00000000000E+00 0. -1.
         -2   -1    0    0    0  501 -0.00000000000E+00 -0.00000000000E+00 -0.65201081022E+02  0.65201081022E+02  0.00000000000E+00 0.  1.
         25    2    1    2    0    0  0.87737432892E+02 -0.99024285693E+02  0.12894747765E+03  0.22311094142E+03  0.12508946358E+03 0.  0.
          5    1    3    3  502    0 -0.32995025208E+01  0.95438093445E+01 -0.16645465419E+02  0.19912682710E+02  0.41800000000E+01 0.  1.
         -5    1    3    3    0  502  0.91036935413E+02 -0.10856809504E+03  0.14559294307E+03  0.20319825871E+03  0.41800000000E+01 0.  1.
        -11    1    1    2    0    0 -0.47279204997E+02  0.68448846956E+02  0.29588006949E+03  0.30735253927E+03  0.00000000000E+00 0. -1.
         11    1    1    2    0    0 -0.40458227895E+02  0.30575438737E+02  0.39536895670E+02  0.64303124167E+02  0.00000000000E+00 0.  1.
</event>
<event>
 7    1  0.2719869E-009  0.1018057E+03  0.7561462E-02  0.1276544E+00
          1   -1    0    0  501    0  0.00000000000E+00  0.00000000000E+00  0.62216590420E+02  0.62216590420E+02  0.00000000000E+00 0. -1.
         -1   -1    0    0    0  501 -0.00000000000E+00 -0.00000000000E+00 -0.25779570884E+03  0.25779570884E+03  0.00000000000E+00 0.  1.
         25    2    1    2    0    0 -0.13265389708E+02  0.46262678141E+02 -0.15804474514E+03  0.20722022697E+03  0.12508347231E+03 0.  0.
          5    1    3    3  502    0  0.11964344984E+02 -0.30962245590E+02 -0.49030921467E+01  0.33812999209E+02  0.41800000000E+01 0.  1.
         -5    1    3    3    0  502 -0.25229734692E+02  0.77224923731E+02 -0.15314165300E+03  0.17340722776E+03  0.41800000000E+01 0.  1.
        -11    1    1    2    0    0  0.29635510480E+02 -0.60334265311E+02 -0.53525809845E+02  0.85927291192E+02  0.00000000000E+00 0.  1.
         11    1    1    2    0    0 -0.16370120772E+02  0.14071587170E+02  0.15991436571E+02  0.26864781093E+02  0.00000000000E+00 0. -1.
</event>
<event>
 7    1  0.2719869E-009  0.9819903E+02  0.7561462E-02  0.1284129E+00
          2   -1    0    0  501    0  0.00000000000E+00  0.00000000000E+00  0.11526861497E+04  0.11526861497E+04  0.00000000000E+00 0. -1.
         -2   -1    0    0    0  501 -0.00000000000E+00 -0.00000000000E+00 -0.13591957545E+02  0.13591957545E+02  0.00000000000E+00 0.  1.
         25    2    1    2    0    0 -0.66344163098E+01 -0.16456037591E+02  0.93420595724E+03  0.94270946187E+03  0.12508214222E+03 0.  0.
          5    1    3    3  502    0 -0.12299708332E+01  0.53599218236E+02  0.49298468797E+03  0.49590902794E+03  0.41800000000E+01 0. -1.
         -5    1    3    3    0  502 -0.54044454766E+01 -0.70055255827E+02  0.44122126927E+03  0.44680043392E+03  0.41800000000E+01 0. -1.
        -11    1    1    2    0    0 -0.31724632424E+02  0.44179986341E+01  0.29212758480E+02  0.43351542907E+02  0.00000000000E+00 0.  1.
         11    1    1    2    0    0  0.38359048734E+02  0.12038038957E+02  0.17567547642E+03  0.18021710245E+03  0.00000000000E+00 0. -1.
</event>
<event>
 7    1  0.2719869E-009  0.1579548E+03  0.7561462E-02  0.1191025E+00
         -1   -1    0    0    0  501 -0.00000000000E+00  0.00000000000E+00  0.35799804117E+02  0.35799804117E+02  0.00000000000E+00 0.  1.
          1   -1    0    0  501    0  0.00000000000E+00 -0.00000000000E+00 -0.87479302953E+03  0.87479302953E+03  0.00000000000E+00 0. -1.
         25    2    1    2    0    0  0.11367813968E+03  0.78420947468E+02 -0.49440521247E+03  0.52835269362E+03  0.12508992882E+03 0.  0.
          5    1    3    3  502    0  0.28646390072E+02  0.87227177670E+02 -0.33553787260E+03  0.34789701427E+03  0.41800000000E+01 0. -1.
         -5    1    3    3    0  502  0.85031749608E+02 -0.88062302023E+01 -0.15886733988E+03  0.18045567935E+03  0.41800000000E+01 0. -1.
        -11    1    1    2    0    0 -0.66210573784E+02 -0.40075059669E+02 -0.29071516127E+03  0.30084074771E+03  0.00000000000E+00 0. -1.
         11    1    1    2    0    0 -0.47467565896E+02 -0.38345887799E+02 -0.53872851669E+02  0.81399392320E+02  0.00000000000E+00 0.  1.
</event>
<event>
 7    1  0.2719869E-009  0.1338591E+03  0.7561462E-02  0.1221839E+00
          2   -1    0    0  501    0  0.00000000000E+00  0.00000000000E+00  0.28699140568E+03  0.28699140568E+03  0.00000000000E+00 0.  1.
         -2   -1    0    0    0  501 -0.00000000000E+00 -0.00000000000E+00 -0.75107770917E+02  0.75107770917E+02  0.00000000000E+00 0. -1.
         25    2    1    2    0    0 -0.83048736636E+01 -0.90417675965E+02  0.68059420917E+02  0.16892926072E+03  0.12514265180E+03 0.  0.
          5    1    3    3  502    0  0.13958917027E+02  0.27502623453E+02  0.45039054492E+00  0.31127494486E+02  0.41800000000E+01 0. -1.
         -5    1    3    3    0  502 -0.22263790690E+02 -0.11792029942E+03  0.67609030372E+02  0.13780176624E+03  0.41800000000E+01 0. -1.
        -11    1    1    2    0    0 -0.32435200998E+02  0.45483870078E+02  0.28143998248E+02  0.62553252021E+02  0.00000000000E+00 0. -1.
         11    1    1    2    0    0  0.40740074661E+02  0.44933805887E+02  0.11568021559E+03  0.13061666385E+03  0.00000000000E+00 0.  1.
</event>
<event>
 7    1  0.2719869E-009  0.1196952E+03  0.7561462E-02  0.1243601E+00
         -3   -1    0    0    0  501 -0.00000000000E+00  0.00000000000E+00  0.21708713562E+03  0.21708713562E+03  0.00000000000E+00 0.  1.
          3   -1    0    0  501    0  0.00000000000E+00 -0.00000000000E+00 -0.89969288385E+02  0.89969288385E+02  0.00000000000E+00 0. -1.
         25    2    1    2    0    0  0.58515667046E+02  0.19972685012E+02  0.18268523006E+02  0.14072294973E+03  0.12508484405E+03 0.  0.
          5    1    3    3  502    0  0.74633871938E+02 -0.13881649225E+02 -0.28001291213E+02  0.81021353576E+02  0.41800000000E+01 0.  1.
         -5    1    3    3    0  502 -0.16118204892E+02  0.33854334237E+02  0.46269814219E+02  0.59701596155E+02  0.41800000000E+01 0.  1.
        -11    1    1    2    0    0 -0.24820063879E+02 -0.64894524915E+02  0.64061912253E+02  0.94505362475E+02  0.00000000000E+00 0.  1.
         11    1    1    2    0    0 -0.33695603167E+02  0.44921839903E+02  0.44787411976E+02  0.71828111799E+02  0.00000000000E+00 0. -1.
</event>
<event>
 7    1  0.2719869E-009  0.1376014E+03  0.7561462E-02  0.1216593E+00
         -1   -1    0    0    0  501 -0.00000000000E+00  0.00000000000E+00  0.19470423097E+03  0.19470423097E+03  0.00000000000E+00 0.  1.
          1   -1    0    0  501    0  0.00000000000E+00 -0.00000000000E+00 -0.11761825188E+03  0.11761825188E+03  0.00000000000E+00 0. -1.
         25    2    1    2    0    0 -0.38160848490E+02  0.98718185924E+02  0.56400537102E+02  0.17329163936E+03  0.12508973218E+03 0.  0.
          5    1    3    3  502    0  0.38671474146E+02  0.71096748727E+02  0.18230760682E+02  0.83066621619E+02  0.41800000000E+01 0.  1.
         -5    1    3    3    0  502 -0.76832322636E+02  0.27621437196E+02  0.38169776420E+02  0.90225017741E+02  0.41800000000E+01 0.  1.
        -11    1    1    2    0    0  0.45747464920E+02 -0.79134478407E+02 -0.19705397773E+02  0.93506143759E+02  0.00000000000E+00 0. -1.
         11    1    1    2    0    0 -0.75866164293E+01 -0.19583707516E+02  0.40390839765E+02  0.45524699734E+02  0.00000000000E+00 0.  1.
</event>
<event>
 7    1  0.2719869E-009  0.1212594E+03  0.7561462E-02  0.1241034E+00
         -2   -1    0    0    0  501 -0.00000000000E+00  0.00000000000E+00  0.18077852440E+03  0.18077852440E+03  0.00000000000E+00 0. -1.
          2   -1    0    0  501    0  0.00000000000E+00 -0.00000000000E+00 -0.98590396807E+02  0.98590396807E+02  0.00000000000E+00 0.  1.
         25    2    1    2    0    0  0.37176249818E+02 -0.66618899428E+02  0.64062807677E+02  0.15989879917E+03  0.12507370362E+03 0.  0.
          5    1    3    3  502    0 -0.40539760858E+02  0.45892873405E+01  0.17429871259E+02  0.44562389756E+02  0.41800000000E+01 0.  1.
         -5    1    3    3    0  502  0.77716010676E+02 -0.71208186769E+02  0.46632936418E+02  0.11533640942E+03  0.41800000000E+01 0.  1.
        -11    1    1    2    0    0 -0.19148000221E+02  0.74074121922E+02  0.43072856686E+02  0.87800298599E+02  0.00000000000E+00 0. -1.
         11    1    1    2    0    0 -0.18028249597E+02 -0.74552224941E+01 -0.24947536766E+02  0.31669823439E+02  0.00000000000E+00 0.  1.
</event>
<event>
 7    1  0.2719869E-009  0.1009387E+03  0.7561462E-02  0.1278334E+00
         -1   -1    0    0    0  501 -0.00000000000E+00  0.00000000000E+00  0.50991129367E+03  0.50991129367E+03  0.00000000000E+00 0.  1.
          1   -1    0    0  501    0  0.00000000000E+00 -0.00000000000E+00 -0.23743205833E+02  0.23743205833E+02  0.00000000000E+00 0. -1.
         25    2    1    2    0    0 -0.12393135616E+01  0.33395571211E+01  0.32416805029E+03  0.34747579352E+03  0.12506723678E+03 0.  0.
          5    1    3    3  502    0 -0.20356201805E+02 -0.49594460055E+02  0.24128024517E+03  0.24719954395E+03  0.41800000000E+01 0.  1.
         -5    1    3    3    0  502  0.19116888243E+02  0.52934017176E+02  0.82887805120E+02  0.10027624957E+03  0.41800000000E+01 0.  1.
        -11    1    1    2    0    0 -0.20651902297E+02  0.38929587564E+02  0.81828768621E+02  0.92940632828E+02  0.00000000000E+00 0.  1.
         11    1    1    2    0    0  0.21891215858E+02 -0.42269144685E+02  0.80171268926E+02  0.93238073153E+02  0.00000000000E+00 0. -1.
</event>
<event>
 7    1  0.2719869E-009  0.8525643E+02  0.7561462E-02  0.1314763E+00
         -2   -1    0    0    0  501 -0.00000000000E+00  0.00000000000E+00  0.23476471950E+03  0.23476471950E+03  0.00000000000E+00 0.  1.
          2   -1    0    0  501    0  0.00000000000E+00 -0.00000000000E+00 -0.55506186274E+02  0.55506186274E+02  0.00000000000E+00 0. -1.
         25    2    1    2    0    0 -0.87498679091E+01 -0.26159702669E+02  0.12848211425E+03  0.18142935799E+03  0.12509223807E+03 0.  0.
          5    1    3    3  502    0 -0.51268457157E+02  0.19173946583E+02  0.97417411924E+02  0.11182003163E+03  0.41800000000E+01 0.  1.
         -5    1    3    3    0  502  0.42518589248E+02 -0.45333649252E+02  0.31064702324E+02  0.69609326362E+02  0.41800000000E+01 0.  1.
        -11    1    1    2    0    0 -0.18382642756E+02  0.53972132432E+01 -0.21560186107E+02  0.28842556933E+02  0.00000000000E+00 0. -1.
         11    1    1    2    0    0  0.27132510665E+02  0.20762489426E+02  0.72336605082E+02  0.79998990849E+02  0.00000000000E+00 0.  1.
</event>
<event>
 7    1  0.2719869E-009  0.1878879E+03  0.7561462E-02  0.1160380E+00
         -2   -1    0    0    0  501 -0.00000000000E+00  0.00000000000E+00  0.35305824465E+02  0.35305824465E+02  0.00000000000E+00 0.  1.
          2   -1    0    0  501    0  0.00000000000E+00 -0.00000000000E+00 -0.11147550527E+04  0.11147550527E+04  0.00000000000E+00 0. -1.
         25    2    1    2    0    0 -0.64691658954E+02  0.14472467111E+03 -0.70019347683E+03  0.72872974492E+03  0.12508355195E+03 0.  0.
          5    1    3    3  502    0  0.35867394769E+02  0.47390691007E+02 -0.16155041134E+03  0.17218697804E+03  0.41800000000E+01 0.  1.
         -5    1    3    3    0  502 -0.10055905372E+03  0.97333980100E+02 -0.53864306549E+03  0.55654276688E+03  0.41800000000E+01 0.  1.
        -11    1    1    2    0    0 -0.17122157807E+02 -0.38236817799E+02 -0.46989688787E+02  0.62954375350E+02  0.00000000000E+00 0.  1.
         11    1    1    2    0    0  0.81813816761E+02 -0.10648785331E+03 -0.33226606261E+03  0.35837675689E+03  0.00000000000E+00 0. -1.
</event>
<event>
 7    1  0.2719869E-009  0.1880437E+03  0.7561462E-02  0.1160238E+00
         -1   -1    0    0    0  501 -0.00000000000E+00  0.00000000000E+00  0.66000081430E+03  0.66000081430E+03  0.00000000000E+00 0.  1.
          1   -1    0    0  501    0  0.00000000000E+00 -0.00000000000E+00 -0.58230971188E+02  0.58230971188E+02  0.00000000000E+00 0. -1.
         25    2    1    2    0    0  0.13012036340E+03 -0.88949767486E+02  0.38325808585E+03  0.43287266653E+03  0.12509442416E+03 0.  0.
          5    1    3    3  502    0  0.93763690606E+02  0.79713720487E+01  0.22258082031E+03  0.24169167636E+03  0.41800000000E+01 0. -1.
         -5    1    3    3    0  502  0.36356672794E+02 -0.96921139534E+02  0.16067726553E+03  0.19118099018E+03  0.41800000000E+01 0. -1.
        -11    1    1    2    0    0 -0.87394037848E+02  0.92754615802E+01  0.14162952291E+03  0.16668135408E+03  0.00000000000E+00 0.  1.
         11    1    1    2    0    0 -0.42726325552E+02  0.79674305905E+02  0.76882234361E+02  0.11867776488E+03  0.00000000000E+00 0. -1.
</event>
<event>
 7    1  0.2719869E-009  0.2224254E+03  0.7561462E-02  0.1132088E+00
         -1   -1    0    0    0  501 -0.00000000000E+00  0.00000000000E+00  0.37537439664E+03  0.37537439664E+03  0.00000000000E+00 0.  1.
          1   -1    0    0  501    0  0.00000000000E+00 -0.00000000000E+00 -0.14145186508E+03  0.14145186508E+03  0.00000000000E+00 0. -1.
         25    2    1    2    0    0  0.94844983803E+01  0.19836497940E+03  0.18188133203E+03  0.29692996621E+03  0.12509182680E+03 0.  0.
          5    1    3    3  502    0  0.66769751021E+02  0.11976233673E+03  0.10076301364E+03  0.17021126363E+03  0.41800000000E+01 0. -1.
         -5    1    3    3    0  502 -0.57285252641E+02  0.78602642672E+02  0.81118318385E+02  0.12671870258E+03  0.41800000000E+01 0. -1.
        -11    1    1    2    0    0 -0.39536768923E+02 -0.12225747238E+03  0.12740105282E+02  0.12912147743E+03  0.00000000000E+00 0.  1.
         11    1    1    2    0    0  0.30052270543E+02 -0.76107507013E+02  0.39301094242E+02  0.90774818079E+02  0.00000000000E+00 0. -1.
</event>
<event>
 6    1  0.3085542E-009  0.1054057E+03  0.7561462E-02  0.1269322E+00
         -4   -1    0    0    0  501 -0.00000000000E+00  0.00000000000E+00  0.17405364921E+03  0.17405364921E+03  0.00000000000E+00 0.  1.
          4   -1    0    0  501    0  0.00000000000E+00 -0.00000000000E+00 -0.70621635715E+02  0.70621635715E+02  0.00000000000E+00 0. -1.
          5    1    1    2  502    0 -0.26245779648E+02 -0.50723453300E+02  0.25308160402E+02  0.62607388118E+02  0.41800000000E+01 0.  1.
         -5    1    1    2    0  502  0.24208348167E+02  0.61092299831E+02  0.59942456841E+02  0.89044279724E+02  0.41800000000E+01 0.  1.
        -11    1    1    2    0    0  0.31131265067E+02  0.26396764842E+02 -0.42736149035E+01  0.41039111140E+02  0.00000000000E+00 0. -1.
         11    1    1    2    0    0 -0.29093833586E+02 -0.36765611373E+02  0.22455011161E+02  0.51984505947E+02  0.00000000000E+00 0.  1.
</event>
<event>
 7    1  0.2719869E-009  0.8563708E+02  0.7561462E-02  0.1313775E+00
          1   -1    0    0  501    0  0.00000000000E+00  0.00000000000E+00  0.15733210846E+03  0.15733210846E+03  0.00000000000E+00 0. -1.
         -1   -1    0    0    0  501 -0.00000000000E+00 -0.00000000000E+00 -0.76013955115E+02  0.76013955115E+02  0.00000000000E+00 0.  1.
         25    2    1    2    0    0  0.18115807602E+02 -0.17259531392E+02  0.50017664803E+02  0.13702656010E+03  0.12509371476E+03 0.  0.
          5    1    3    3  502    0  0.43517148758E+02 -0.52109721499E+02  0.62039377142E+02  0.92062598414E+02  0.41800000000E+01 0.  1.
         -5    1    3    3    0  502 -0.25401341156E+02  0.34850190107E+02 -0.12021712339E+02  0.44963961687E+02  0.41800000000E+01 0.  1.
        -11    1    1    2    0    0  0.18492716276E+02 -0.19325760977E+01 -0.22041826046E+02  0.28836738739E+02  0.00000000000E+00 0.  1.
         11    1    1    2    0    0 -0.36608523878E+02  0.19192107490E+02  0.53342314586E+02  0.67482764731E+02  0.00000000000E+00 0. -1.
</event>
<event>
 7    1  0.2719869E-009  0.1375864E+03  0.7561462E-02  0.1216614E+00
         -3   -1    0    0    0  501 -0.00000000000E+00  0.00000000000E+00  0.37394817049E+03  0.37394817049E+03  0.00000000000E+00 0.  1.
          3   -1    0    0  501    0  0.00000000000E+00 -0.00000000000E+00 -0.61334933739E+02  0.61334933739E+02  0.00000000000E+00 0. -1.
         25    2    1    2    0    0 -0.42611382775E+02  0.96434140561E+02  0.17772077893E+03  0.24155172516E+03  0.12508911726E+03 0.  0.
          5    1    3    3  502    0  0.11349006070E+02 -0.17654763348E+02 -0.24457057826E+01  0.21539370568E+02  0.41800000000E+01 0.  1.
         -5    1    3    3    0  502 -0.53960388845E+02  0.11408890391E+03  0.18016648471E+03  0.22001235459E+03  0.41800000000E+01 0.  1.
        -11    1    1    2    0    0  0.24400580980E+02 -0.10469473277E+03  0.13640891599E+03  0.17367719419E+03  0.00000000000E+00 0.  1.
         11    1    1    2    0    0  0.18210801795E+02  0.82605922061E+01 -0.15164581690E+01  0.20054184874E+02  0.00000000000E+00 0. -1.
</event>
<event>
 7    1  0.2719869E-009  0.1132077E+03  0.7561462E-02  0.1254742E+00
          2   -1    0    0  501    0  0.00000000000E+00  0.00000000000E+00  0.46986941775E+03  0.46986941775E+03  0.00000000000E+00 0. -1.
         -2   -1    0    0    0  501 -0.00000000000E+00 -0.00000000000E+00 -0.34438970287E+02  0.34438970287E+02  0.00000000000E+00 0.  1.
         25    2    1    2    0    0  0.57966026205E+02 -0.25830479803E+02  0.20044039866E+03  0.24464607415E+03  0.12509226314E+03 0.  0.
          5    1    3    3  502    0  0.64455587717E+02 -0.59664336363E+02  0.78532028647E+02  0.11789447716E+03  0.41800000000E+01 0.  1.
         -5    1    3    3    0  502 -0.64895615119E+01  0.33833856560E+02  0.12190837002E+03  0.12675159699E+03  0.41800000000E+01 0.  1.
        -11    1    1    2    0    0 -0.62795782615E+02 -0.13437463967E+02  0.98751288363E+02  0.11779513023E+03  0.00000000000E+00 0.  1.
         11    1    1    2    0    0  0.48297564103E+01  0.39267943770E+02  0.13623876043E+03  0.14186718366E+03  0.00000000000E+00 0. -1.
</event>
<event>
 7    1  0.2719869E-009  0.2138115E+03  0.7561462E-02  0.1138583E+00
         -2   -1    0    0    0  501 -0.00000000000E+00  0.00000000000E+00  0.42253098526E+03  0.42253098526E+03  0.00000000000E+00 0.  1.
          2   -1    0    0  501    0  0.00000000000E+00 -0.00000000000E+00 -0.12692616882E+03  0.12692616882E+03  0.00000000000E+00 0. -1.
         25    2    1    2    0    0  0.15710372757E+03 -0.11957185564E+03  0.22008165450E+03  0.32103237631E+03  0.12508733795E+03 0.  0.
          5    1    3    3  502    0 -0.10337152468E+02 -0.20292953957E+02  0.74228541855E+02  0.77756089970E+02  0.41800000000E+01 0. -1.
         -5    1    3    3    0  502  0.16744088004E+03 -0.99278901685E+02  0.14585311264E+03  0.24327628634E+03  0.41800000000E+01 0. -1.
        -11    1    1    2    0    0 -0.10287046828E+03  0.11653649736E+03  0.78268147212E+02  0.17403732740E+03  0.00000000000E+00 0.  1.
         11    1    1    2    0    0 -0.54233259294E+02  0.30353582797E+01 -0.27449852737E+01  0.54387450369E+02  0.00000000000E+00 0. -1.
</event>
<event>
 7    1  0.2719869E-009  0.1312157E+03  0.7561462E-02  0.1225663E+00
          1   -1    0    0  501    0  0.00000000000E+00  0.00000000000E+00  0.36962390772E+02  0.36962390772E+02  0.00000000000E+00 0. -1.
         -1   -1    0    0    0  501 -0.00000000000E+00 -0.00000000000E+00 -0.66233302379E+03  0.66233302379E+03  0.00000000000E+00 0.  1.
         25    2    1    2    0    0  0.10042596973E+03  0.44738046513E+02 -0.35177442203E+03  0.38921431749E+03  0.12512263079E+03 0.  0.
          5    1    3    3  502    0  0.14666684734E+02  0.44035155783E+02 -0.25756373832E+03  0.26174559840E+03  0.41800000000E+01 0. -1.
         -5    1    3    3    0  502  0.85759284999E+02  0.70289072997E+00 -0.94210683717E+02  0.12746871909E+03  0.41800000000E+01 0. -1.
        -11    1    1    2    0    0 -0.28614466670E+02 -0.50374105603E+02 -0.19520516935E+03  0.20362071692E+03  0.00000000000E+00 0.  1.
         11    1    1    2    0    0 -0.71811503063E+02  0.56360590894E+01 -0.78391041631E+02  0.10646038015E+03  0.00000000000E+00 0. -1.
</event>
<event>
 7    1  0.2719869E-009  0.1245828E+03  0.7561462E-02  0.1235723E+00
          1   -1    0    0  501    0  0.00000000000E+00  0.00000000000E+00  0.92105584292E+02  0.92105584292E+02  0.00000000000E+00 0. -1.
         -1   -1    0    0    0  501 -0.00000000000E+00 -0.00000000000E+00 -0.36970024458E+03  0.36970024458E+03  0.00000000000E+00 0.  1.
         25    2    1    2    0    0 -0.49756442663E+01 -0.54543107912E+02  0.14188680650E+02  0.13729251547E+03  0.12509279950E+03 0.  0.
          5    1    3    3  502    0  0.58557530225E+02 -0.30581828701E+02 -0.56328840720E+01  0.66433684045E+02  0.41800000000E+01 0. -1.
         -5    1    3    3    0  502 -0.63533174492E+02 -0.23961279211E+02  0.19821564722E+02  0.70858831422E+02  0.41800000000E+01 0. -1.
        -11    1    1    2    0    0 -0.39095845262E+02 -0.65192491133E+01 -0.20849334281E+03  0.21222737741E+03  0.00000000000E+00 0.  1.
         11    1    1    2    0    0  0.44071489528E+02  0.61062357025E+02 -0.83289998129E+02  0.11228593600E+03  0.00000000000E+00 0. -1.
</event>
<event>
 7    1  0.2719869E-009  0.2479861E+03  0.7561462E-02  0.1114584E+00
         -2   -1    0    0    0  501 -0.00000000000E+00  0.00000000000E+00  0.55711169068E+02  0.55711169068E+02  0.00000000000E+00 0.  1.
          2   -1    0    0  501    0  0.00000000000E+00 -0.00000000000E+00 -0.15595995930E+04  0.15595995930E+04  0.00000000000E+00 0. -1.
         25    2    1    2    0    0  0.10442702495E+03 -0.21609711114E+03 -0.11285206144E+04  0.11605212470E+04  0.12509125725E+03 0.  0.
          5    1    3    3  502    0  0.14778086366E+02 -0.45126523187E+02 -0.71007420287E+02  0.85523804098E+02  0.41800000000E+01 0.  1.
         -5    1    3    3    0  502  0.89648938583E+02 -0.17097058796E+03 -0.10575131941E+04  0.10749974429E+04  0.41800000000E+01 0.  1.
        -11    1    1    2    0    0 -0.92287340666E+02  0.91279872374E+02 -0.16582651891E+03  0.21058823026E+03  0.00000000000E+00 0.  1.
         11    1    1    2    0    0 -0.12139684283E+02  0.12481723877E+03 -0.20954129066E+03  0.24420128484E+03  0.00000000000E+00 0. -1.
</event>
<event>
 7    1  0.2719869E-009  0.3066537E+03  0.7561462E-02  0.1081961E+00
         -2   -1    0    0    0  501 -0.00000000000E+00  0.00000000000E+00  0.10169480301E+04  0.10169480301E+04  0.00000000000E+00 0.  1.
          2   -1    0    0  501    0  0.00000000000E+00 -0.00000000000E+00 -0.10004495187E+03  0.10004495187E+03  0.00000000000E+00 0. -1.
         25    2    1    2    0    0 -0.12220759694E+03  0.26077319301E+03  0.32189899287E+03  0.44967052831E+03  0.12508903819E+03 0.  0.
          5    1    3    3  502    0  0.10669925795E+02 -0.66042911085E+01  0.47085170799E+01  0.14039462618E+02  0.41800000000E+01 0.  1.
         -5    1    3    3    0  502 -0.13287752274E+03  0.26737748412E+03  0.31719047579E+03  0.43563106569E+03  0.41800000000E+01 0.  1.
        -11    1    1    2    0    0  0.10104032710E+03 -0.11054400598E+03  0.31770636756E+03  0.35123562027E+03  0.00000000000E+00 0. -1.
         11    1    1    2    0    0  0.21167269840E+02 -0.15022918703E+03  0.27729771783E+03  0.31608683342E+03  0.00000000000E+00 0.  1.
</event>
<event>
 7    1  0.2719869E-009  0.1736090E+03  0.7561462E-02  0.1174136E+00
          1   -1    0    0  501    0  0.00000000000E+00  0.00000000000E+00  0.11503469222E+04  0.11503469222E+04  0.00000000000E+00 0. -1.
         -1   -1    0    0    0  501 -0.00000000000E+00 -0.00000000000E+00 -0.34664416988E+02  0.34664416988E+02  0.00000000000E+00 0.  1.
         25    2    1    2    0    0 -0.73728388036E+01  0.13880983273E+03  0.31116912636E+03  0.36303789780E+03  0.12509101337E+03 0.  0.
          5    1    3    3  502    0 -0.57224803085E+02  0.46301218021E+02  0.18267000173E+03  0.19698802707E+03  0.41800000000E+01 0. -1.
         -5    1    3    3    0  502  0.49851964282E+02  0.92508614711E+02  0.12849912463E+03  0.16604987073E+03  0.41800000000E+01 0. -1.
        -11    1    1    2    0    0 -0.43885254577E+02 -0.61085576783E+02  0.33976318028E+03  0.34798905433E+03  0.00000000000E+00 0.  1.
         11    1    1    2    0    0  0.51258093381E+02 -0.77724255950E+02  0.46475019859E+03  0.47398438708E+03  0.00000000000E+00 0. -1.
</event>
<event>
 7    1  0.4267118E-009  0.1230891E+03  0.7561462E-02  0.1238086E+00
         -2   -1    0    0    0  501 -0.00000000000E+00  0.00000000000E+00  0.20339560833E+02  0.20339560833E+02  0.00000000000E+00 0.  1.
          2   -1    0    0  501    0  0.00000000000E+00 -0.00000000000E+00 -0.10868148249E+04  0.10868148249E+04  0.00000000000E+00 0. -1.
         25    2    1    2    0    0 -0.81161506572E+02 -0.36147293439E+02 -0.75548909773E+03  0.77091193020E+03  0.12509040877E+03 0.  0.
          5    1    3    3  502    0  0.68445868451E+01 -0.47952894711E+02 -0.45386339052E+03  0.45646005097E+03  0.41800000000E+01 0. -1.
         -5    1    3    3    0  502 -0.88006093417E+02  0.11805601272E+02 -0.30162570721E+03  0.31445187923E+03  0.41800000000E+01 0. -1.
        -11    1    1    2    0    0  0.48905723187E+02  0.53131083385E+02 -0.10740833338E+03  0.12942655007E+03  0.00000000000E+00 0.  1.
         11    1    1    2    0    0  0.32255783385E+02 -0.16983789946E+02 -0.20357783296E+03  0.20681590547E+03  0.00000000000E+00 0. -1.
</event>
<event>
 7    1  0.2719869E-009  0.1026382E+03  0.7561462E-02  0.1274844E+00
         -1   -1    0    0    0  501 -0.00000000000E+00  0.00000000000E+00  0.87311233154E+02  0.87311233154E+02  0.00000000000E+00 0.  1.
          1   -1    0    0  501    0  0.00000000000E+00 -0.00000000000E+00 -0.18200728872E+03  0.18200728872E+03  0.00000000000E+00 0. -1.
         25    2    1    2    0    0  0.23708107996E+02  0.32557475815E+02  0.17853916851E+01  0.13142862693E+03  0.12509289643E+03 0.  0.
          5    1    3    3  502    0  0.15847794896E+02 -0.35956078161E+02  0.36778518675E+02  0.53982626795E+02  0.41800000000E+01 0.  1.
         -5    1    3    3    0  502  0.78603131002E+01  0.68513553976E+02 -0.34993126990E+02  0.77446000135E+02  0.41800000000E+01 0.  1.
        -11    1    1    2    0    0  0.78413076925E+01  0.27627447343E+02 -0.41560528089E+02  0.50517714200E+02  0.00000000000E+00 0. -1.
         11    1    1    2    0    0 -0.31549415689E+02 -0.60184923157E+02 -0.54920919158E+02  0.87372180738E+02  0.00000000000E+00 0.  1.
</event>
<event>
 7    1  0.2719869E-009  0.8311629E+02  0.7561462E-02  0.1320433E+00
         -1   -1    0    0    0  501 -0.00000000000E+00  0.00000000000E+00  0.21158652640E+03  0.21158652640E+03  0.00000000000E+00 0.  1.
          1   -1    0    0  501    0  0.00000000000E+00 -0.00000000000E+00 -0.62980880798E+02  0.62980880798E+02  0.00000000000E+00 0. -1.
         25    2    1    2    0    0  0.32890373139E+02  0.12119359890E+02  0.10701576866E+03  0.16830930105E+03  0.12508793126E+03 0.  0.
          5    1    3    3  502    0  0.67367903978E+02  0.17392227401E+02  0.17091142077E+02  0.71767009119E+02  0.41800000000E+01 0.  1.
         -5    1    3    3    0  502 -0.34477530839E+02 -0.52728675115E+01  0.89924626588E+02  0.96542291932E+02  0.41800000000E+01 0.  1.
        -11    1    1    2    0    0 -0.11091317300E+02  0.19832170426E+02 -0.22129209482E+02  0.31718042429E+02  0.00000000000E+00 0. -1.
         11    1    1    2    0    0 -0.21799055839E+02 -0.31951530315E+02  0.63719086420E+02  0.74540063719E+02  0.00000000000E+00 0.  1.
</event>
<event>
 7    1  0.2719869E-009  0.2499414E+03  0.7561462E-02  0.1113342E+00
          2   -1    0    0  501    0  0.00000000000E+00  0.00000000000E+00  0.35402223281E+03  0.35402223281E+03  0.00000000000E+00 0. -1.
         -2   -1    0    0    0  501 -0.00000000000E+00 -0.00000000000E+00 -0.19974367469E+03  0.19974367469E+03  0.00000000000E+00 0.  1.
         25    2    1    2    0    0  0.20579611074E+03  0.11197139996E+03  0.16106056245E+02  0.26607874013E+03  0.12509539279E+03 0.  0.
          5    1    3    3  502    0  0.14854460522E+03  0.33686988042E+02 -0.35044194227E+02  0.15635178557E+03  0.41800000000E+01 0. -1.
         -5    1    3    3    0  502  0.57251505522E+02  0.78284411914E+02  0.51150250472E+02  0.10972695456E+03  0.41800000000E+01 0. -1.
        -11    1    1    2    0    0 -0.13255698251E+03 -0.11729476975E+03  0.11329560281E+03  0.21015544304E+03  0.00000000000E+00 0. -1.
         11    1    1    2    0    0 -0.73239128232E+02  0.53233697990E+01  0.24876899061E+02  0.77531724327E+02  0.00000000000E+00 0.  1.
</event>
<event>
 7    1  0.2719869E-009  0.1367598E+03  0.7561462E-02  0.1217757E+00
          3   -1    0    0  501    0  0.00000000000E+00  0.00000000000E+00  0.69806074550E+03  0.69806074550E+03  0.00000000000E+00 0. -1.
         -3   -1    0    0    0  501 -0.00000000000E+00 -0.00000000000E+00 -0.40787313756E+02  0.40787313756E+02  0.00000000000E+00 0.  1.
         25    2    1    2    0    0 -0.11360011343E+02 -0.12060044322E+03  0.41113953542E+03  0.44649370011E+03  0.12508952751E+03 0.  0.
          5    1    3    3  502    0 -0.44635315830E+02 -0.95213716058E+02  0.37960602365E+03  0.39392406468E+03  0.41800000000E+01 0.  1.
         -5    1    3    3    0  502  0.33275304487E+02 -0.25386727164E+02  0.31533511770E+02  0.52569635431E+02  0.41800000000E+01 0.  1.
        -11    1    1    2    0    0 -0.59218256083E+01  0.95840195589E+02  0.24384806830E+03  0.26207306524E+03  0.00000000000E+00 0. -1.
         11    1    1    2    0    0  0.17281836951E+02  0.24760247633E+02  0.22858280330E+01  0.30281293913E+02  0.00000000000E+00 0.  1.
</event>
<event>
 7    1  0.4051939E-009  0.6787079E+02  0.7561462E-02  0.1367487E+00
          1   -1    0    0  501    0  0.00000000000E+00  0.00000000000E+00  0.14349743912E+03  0.14349743912E+03  0.00000000000E+00 0. -1.
         -1   -1    0    0    0  501 -0.00000000000E+00 -0.00000000000E+00 -0.12847331371E+03  0.12847331371E+03  0.00000000000E+00 0.  1.
         25    2    1    2    0    0  0.11027470456E+02  0.49939594751E+02  0.70837126246E+02  0.15259744157E+03  0.12511000156E+03 0.  0.
          5    1    3    3  502    0  0.37438041240E+02  0.42004714358E+02  0.98371864998E+02  0.11340414095E+03  0.41800000000E+01 0. -1.
         -5    1    3    3    0  502 -0.26410570784E+02  0.79348803929E+01 -0.27534738753E+02  0.39193300629E+02  0.41800000000E+01 0. -1.
        -11    1    1    2    0    0 -0.12475233615E+01 -0.17532306593E+02 -0.77303748556E+02  0.79276778629E+02  0.00000000000E+00 0.  1.
         11    1    1    2    0    0 -0.97799470946E+01 -0.32407288158E+02  0.21490747726E+02  0.40096532627E+02  0.00000000000E+00 0. -1.
</event>
<event>
 7    1  0.2719869E-009  0.1028975E+03  0.7561462E-02  0.1274318E+00
          3   -1    0    0  501    0  0.00000000000E+00  0.00000000000E+00  0.38190157656E+02  0.38190157656E+02  0.00000000000E+00 0. -1.
         -3   -1    0    0    0  501 -0.00000000000E+00 -0.00000000000E+00 -0.59360099359E+03  0.59360099359E+03  0.00000000000E+00 0.  1.
         25    2    1    2    0    0  0.71952156144E+01  0.70956665987E+02 -0.46499965071E+03  0.48679053020E+03  0.12511484944E+03 0.  0.
          5    1    3    3  502    0 -0.37281642297E+02  0.42145494718E+02 -0.39440205729E+03  0.39841764365E+03  0.41800000000E+01 0. -1.
         -5    1    3    3    0  502  0.44476857912E+02  0.28811171269E+02 -0.70597593424E+02  0.88372886549E+02  0.41800000000E+01 0. -1.
        -11    1    1    2    0    0  0.28875157765E+02 -0.33072134967E+02 -0.41256497422E+01  0.44097186226E+02  0.00000000000E+00 0. -1.
         11    1    1    2    0    0 -0.36070373380E+02 -0.37884531021E+02 -0.86285535481E+02  0.10090343483E+03  0.00000000000E+00 0.  1.
</event>
<event>
 7    1  0.2719869E-009  0.6341266E+02  0.7561462E-02  0.1384044E+00
          2   -1    0    0  501    0  0.00000000000E+00  0.00000000000E+00  0.22474205719E+03  0.22474205719E+03  0.00000000000E+00 0. -1.
         -2   -1    0    0    0  501 -0.00000000000E+00 -0.00000000000E+00 -0.63910440674E+02  0.63910440674E+02  0.00000000000E+00 0.  1.
         25    2    1    2    0    0 -0.37720986427E+02 -0.16963197559E+02  0.12939195550E+03  0.18466265169E+03  0.12508954350E+03 0.  0.
          5    1    3    3  502    0 -0.93224336441E+01  0.99478096410E+01  0.14248352081E+03  0.14319529597E+03  0.41800000000E+01 0.  1.
         -5    1    3    3    0  502 -0.28398552783E+02 -0.26911007200E+02 -0.13091565303E+02  0.41467355724E+02  0.41800000000E+01 0.  1.
        -11    1    1    2    0    0  0.28756116990E+02  0.39561000715E+02  0.52553303028E+02  0.71790227058E+02  0.00000000000E+00 0. -1.
         11    1    1    2    0    0  0.89648694376E+01 -0.22597803157E+02 -0.21113642019E+02  0.32199619110E+02  0.00000000000E+00 0.  1.
</event>
<event>
 7    1  0.2719869E-009  0.1060467E+03  0.7561462E-02  0.1268071E+00
          1   -1    0    0  501    0  0.00000000000E+00  0.00000000000E+00  0.25258778455E+02  0.25258778455E+02  0.00000000000E+00 0. -1.
         -1   -1    0    0    0  501 -0.00000000000E+00 -0.00000000000E+00 -0.52081226249E+03  0.52081226249E+03  0.00000000000E+00 0.  1.
         25    2    1    2    0    0 -0.19149216024E+02 -0.25216970614E+02 -0.22860659432E+03  0.26250932044E+03  0.12509028846E+03 0.  0.
          5    1    3    3  502    0 -0.71932067535E+01 -0.69929033922E+02 -0.78904418530E+02  0.10576006653E+03  0.41800000000E+01 0. -1.
         -5    1    3    3    0  502 -0.11956009270E+02  0.44712063308E+02 -0.14970217579E+03  0.15674925391E+03  0.41800000000E+01 0. -1.
        -11    1    1    2    0    0 -0.36319093270E+02  0.10730967955E+02 -0.11971271786E+03  0.12556020479E+03  0.00000000000E+00 0.  1.
         11    1    1    2    0    0  0.55468309294E+02  0.14486002659E+02 -0.14723417184E+03  0.15800151571E+03  0.00000000000E+00 0. -1.
</event>
<event>
 7    1  0.2719869E-009  0.3316872E+03  0.7561462E-02  0.1070393E+00
          1   -1    0    0  501    0  0.00000000000E+00  0.00000000000E+00  0.42292480001E+03  0.42292480001E+03  0.00000000000E+00 0. -1.
         -1   -1    0    0    0  501 -0.00000000000E+00 -0.00000000000E+00 -0.27405103880E+03  0.27405103880E+03  0.00000000000E+00 0.  1.
         25    2    1    2    0    0 -0.22241275306E+03 -0.22259862118E+03  0.48047199243E+01  0.33865707199E+03  0.12509175913E+03 0.  0.
          5    1    3    3  502    0 -0.23672391847E+03 -0.21987084009E+03  0.78231216477E+01  0.32320283651E+03  0.41800000000E+01 0. -1.
         -5    1    3    3    0  502  0.14311165414E+02 -0.27277810886E+01 -0.30184017233E+01  0.15454235476E+02  0.41800000000E+01 0. -1.
        -11    1    1    2    0    0  0.92854089545E+02  0.15050427766E+03  0.10221388004E+03  0.20425742781E+03  0.00000000000E+00 0. -1.
         11    1    1    2    0    0  0.12955866351E+03  0.72094343512E+02  0.41855161249E+02  0.15406133902E+03  0.00000000000E+00 0.  1.
</event>
<event>
 6    1  0.2719869E-009  0.1273878E+03  0.7561462E-02  0.1231384E+00
         -2   -1    0    0    0  501 -0.00000000000E+00  0.00000000000E+00  0.17238915310E+03  0.17238915310E+03  0.00000000000E+00 0.  1.
          2   -1    0    0  501    0  0.00000000000E+00 -0.00000000000E+00 -0.12423441308E+03  0.12423441308E+03  0.00000000000E+00 0. -1.
          5    1    1    2  502    0  0.42098145628E+02 -0.28997542081E+02 -0.96770608055E+01  0.52194149269E+02  0.41800000000E+01 0.  1.
         -5    1    1    2    0  502 -0.86409079592E+02 -0.59123323721E+02  0.26186816413E+02  0.10800610259E+03  0.41800000000E+01 0.  1.
        -11    1    1    2    0    0  0.24270120033E+02  0.44172960278E+02 -0.29579023509E+02  0.58439779071E+02  0.00000000000E+00 0. -1.
         11    1    1    2    0    0  0.20040813931E+02  0.43947905525E+02  0.61224007927E+02  0.77983535248E+02  0.00000000000E+00 0.  1.
</event>
<event>
 7    1  0.2719869E-009  0.1817588E+03  0.7561462E-02  0.1166112E+00
          1   -1    0    0  501    0  0.00000000000E+00  0.00000000000E+00  0.59380490983E+03  0.59380490983E+03  0.00000000000E+00 0. -1.
         -1   -1    0    0    0  501 -0.00000000000E+00 -0.00000000000E+00 -0.72158410436E+02  0.72158410436E+02  0.00000000000E+00 0.  1.
         25    2    1    2    0    0  0.12678127385E+03 -0.11044979611E+03  0.18658801933E+03  0.28060218443E+03  0.12509935287E+03 0.  0.
          5    1    3    3  502    0  0.21669441447E+02  0.11267132939E+02  0.89127242319E+02  0.92507571046E+02  0.41800000000E+01 0.  1.
         -5    1    3    3    0  502  0.10511183241E+03 -0.12171692905E+03  0.97460777011E+02  0.18809461338E+03  0.41800000000E+01 0.  1.
        -11    1    1    2    0    0 -0.87519534692E+02  0.10731279959E+03  0.30764348586E+03  0.33737252452E+03  0.00000000000E+00 0. -1.
         11    1    1    2    0    0 -0.39261739161E+02  0.31369965206E+01  0.27414994205E+02  0.47988611320E+02  0.00000000000E+00 0.  1.
</event>
<event>
 7    1  0.2719869E-009  0.2469819E+03  0.7561462E-02  0.1115227E+00
          2   -1    0    0  501    0  0.00000000000E+00  0.00000000000E+00  0.18300414853E+04  0.18300414853E+04  0.00000000000E+00 0. -1.
         -2   -1    0    0    0  501 -0.00000000000E+00 -0.00000000000E+00 -0.40408173421E+02  0.40408173421E+02  0.00000000000E+00 0.  1.
         25    2    1    2    0    0 -0.24072680819E+03 -0.12004766647E+02  0.11396954349E+04  0.11715995594E+04  0.12508530124E+03 0.  0.
          5    1    3    3  502    0 -0.13654072992E+03  0.16059400520E+02  0.37718385778E+03  0.40148027379E+03  0.41800000000E+01 0. -1.
         -5    1    3    3    0  502 -0.10418607826E+03 -0.28064167167E+02  0.76251157711E+03  0.77011928557E+03  0.41800000000E+01 0. -1.
        -11    1    1    2    0    0  0.14843973916E+03 -0.22048575731E+02  0.47511941203E+03  0.49825590969E+03  0.00000000000E+00 0. -1.
         11    1    1    2    0    0  0.92287069029E+02  0.34053342378E+02  0.17481846493E+03  0.20059418964E+03  0.00000000000E+00 0.  1.
</event>
<event>
 7    1  0.3710519E-009  0.1023208E+03  0.7561462E-02  0.1275490E+00
         -2   -1    0    0    0  501 -0.00000000000E+00  0.00000000000E+00  0.43298460274E+02  0.43298460274E+02  0.00000000000E+00 0.  1.
          2   -1    0    0  501    0  0.00000000000E+00 -0.00000000000E+00 -0.33769835168E+03  0.33769835168E+03  0.00000000000E+00 0. -1.
         25    2    1    2    0    0 -0.44581017230E+02 -0.19366693597E+02 -0.13178113249E+03  0.18808563170E+03  0.12508957613E+03 0.  0.
          5    1    3    3  502    0  0.41607652649E+02  0.53898530042E+01 -0.59003825969E+02  0.72520143087E+02  0.41800000000E+01 0. -1.
         -5    1    3    3    0  502 -0.86188669879E+02 -0.24756546601E+02 -0.72777306520E+02  0.11556548862E+03  0.41800000000E+01 0. -1.
        -11    1    1    2    0    0  0.48927887786E+02 -0.38578053120E+01 -0.28556847577E+02  0.56783046841E+02  0.00000000000E+00 0.  1.
         11    1    1    2    0    0 -0.43468705559E+01  0.23224498909E+02 -0.13406191134E+03  0.13612813340E+03  0.00000000000E+00 0. -1.
</event>
<event>
 6    1  0.2719869E-009  0.1537486E+03  0.7561462E-02  0.1195941E+00
          2   -1    0    0  501    0  0.00000000000E+00  0.00000000000E+00  0.87092138090E+03  0.87092138090E+03  0.00000000000E+00 0. -1.
         -2   -1    0    0    0  501 -0.00000000000E+00 -0.00000000000E+00 -0.77577208687E+02  0.77577208687E+02  0.00000000000E+00 0.  1.
          5    1    1    2  502    0 -0.11305979051E+03  0.90470974014E+02  0.63056990798E+03  0.64699566816E+03  0.41800000000E+01 0. -1.
         -5    1    1    2    0  502  0.32320786587E+02  0.81592959496E+01  0.12654749673E+03  0.13093108373E+03  0.41800000000E+01 0. -1.
        -11    1    1    2    0    0  0.12009322038E+02 -0.28103986695E+02 -0.36899728541E+02  0.47912919451E+02  0.00000000000E+00 0.  1.
         11    1    1    2    0    0  0.68729681882E+02 -0.70526283268E+02  0.73126496040E+02  0.12265891825E+03  0.00000000000E+00 0. -1.
</event>
<event>
 7    1  0.2719869E-009  0.8507045E+02  0.7561462E-02  0.1315248E+00
         -1   -1    0    0    0  501 -0.00000000000E+00  0.00000000000E+00  0.78180522090E+03  0.78180522090E+03  0.00000000000E+00 0.  1.
          1   -1    0    0  501    0  0.00000000000E+00 -0.00000000000E+00 -0.20012828034E+02  0.20012828034E+02  0.00000000000E+00 0. -1.
         25    2    1    2    0    0  0.32454780597E+02  0.44295898548E+02  0.54294026197E+03  0.55986343398E+03  0.12508995654E+03 0.  0.
          5    1    3    3  502    0 -0.73978158833E+01  0.36543239622E+02  0.38438330823E+02  0.53713254588E+02  0.41800000000E+01 0. -1.
         -5    1    3    3    0  502  0.39852596481E+02  0.77526589256E+01  0.50450193115E+03  0.50615017939E+03  0.41800000000E+01 0. -1.
        -11    1    1    2    0    0 -0.20658083061E+02  0.18610964904E+02  0.12696448866E+03  0.12997348111E+03  0.00000000000E+00 0. -1.
         11    1    1    2    0    0 -0.11796697536E+02 -0.62906863452E+02  0.91887642236E+02  0.11198113385E+03  0.00000000000E+00 0.  1.
</event>
<event>
 7    1  0.2719869E-009  0.2346547E+03  0.7561462E-02  0.1123406E+00
          1   -1    0    0  501    0  0.00000000000E+00  0.00000000000E+00  0.40437571773E+03  0.40437571773E+03  0.00000000000E+00 0. -1.
         -1   -1    0    0    0  501 -0.00000000000E+00 -0.00000000000E+00 -0.15202393963E+03  0.15202393963E+03  0.00000000000E+00 0.  1.
         25    2    1    2    0    0 -0.53832191469E+02 -0.21429619988E+03  0.97321063378E+02  0.27191794946E+03  0.12508883141E+03 0.  0.
          5    1    3    3  502    0  0.17969585826E+02 -0.29455185603E+02 -0.21346298242E+02  0.40787875923E+02  0.41800000000E+01 0.  1.
         -5    1    3    3    0  502 -0.71801777295E+02 -0.18484101428E+03  0.11866736162E+03  0.23113007354E+03  0.41800000000E+01 0.  1.
        -11    1    1    2    0    0  0.14290609367E+02 -0.36165149879E+01  0.11234905752E+01  0.14783873911E+02  0.00000000000E+00 0.  1.
         11    1    1    2    0    0  0.39541582102E+02  0.21791271487E+03  0.15390722414E+03  0.26969783399E+03  0.00000000000E+00 0. -1.
</event>
<event>
 7    1  0.2719869E-009  0.1116143E+03  0.7561462E-02  0.1257609E+00
          2   -1    0    0  501    0  0.00000000000E+00  0.00000000000E+00  0.17332244009E+03  0.17332244009E+03  0.00000000000E+00 0.  1.
         -2   -1    0    0    0  501 -0.00000000000E+00 -0.00000000000E+00 -0.75432161793E+02  0.75432161793E+02  0.00000000000E+00 0. -1.
         25    2    1    2    0    0 -0.23129503909E+02  0.11750126248E+02  0.81278294457E+02  0.15141602342E+03  0.12509041363E+03 0.  0.
          5    1    3    3  502    0 -0.15296151206E+02  0.68421237571E+02  0.41017390920E+02  0.81334720448E+02  0.41800000000E+01 0. -1.
         -5    1    3    3    0  502 -0.78333527028E+01 -0.56671111323E+02  0.40260903537E+02  0.70081302975E+02  0.41800000000E+01 0. -1.
        -11    1    1    2    0    0  0.39809995905E+02 -0.43991778381E+02  0.13895929143E+02  0.60936107406E+02  0.00000000000E+00 0.  1.
         11    1    1    2    0    0 -0.16680491997E+02  0.32241652133E+02  0.27160546948E+01  0.36402471051E+02  0.00000000000E+00 0. -1.
</event>
<event>
 7    1  0.2719869E-009  0.1101457E+03  0.7561462E-02  0.1260300E+00
          1   -1    0    0  501    0  0.00000000000E+00  0.00000000000E+00  0.11311441105E+03  0.11311441105E+03  0.00000000000E+00 0. -1.
         -1   -1    0    0    0  501 -0.00000000000E+00 -0.00000000000E+00 -0.14073314728E+03  0.14073314728E+03  0.00000000000E+00 0.  1.
         25    2    1    2    0    0  0.30994656777E+02  0.55946562178E+02 -0.18500885808E+01  0.14050545262E+03  0.12509065840E+03 0.  0.
          5    1    3    3  502    0  0.67476483526E+02  0.71375948879E+02 -0.12942320631E+02  0.99159356445E+02  0.41800000000E+01 0. -1.
         -5    1    3    3    0  502 -0.36481826749E+02 -0.15429386700E+02  0.11092232050E+02  0.41346096173E+02  0.41800000000E+01 0. -1.
        -11    1    1    2    0    0  0.34419229243E+01 -0.46244739385E+02 -0.51478486906E+02  0.69285332996E+02  0.00000000000E+00 0.  1.
         11    1    1    2    0    0 -0.34436579701E+02 -0.97018227933E+01  0.25709839259E+02  0.44056772711E+02  0.00000000000E+00 0. -1.
</event>
<event>
 7    1  0.2719869E-009  0.8131068E+02  0.7561462E-02  0.1325373E+00
          3   -1    0    0  501    0  0.00000000000E+00  0.00000000000E+00  0.35415673620E+02  0.35415673620E+02  0.00000000000E+00 0. -1.
         -3   -1    0    0    0  501 -0.00000000000E+00 -0.00000000000E+00 -0.45370359416E+03  0.45370359416E+03  0.00000000000E+00 0.  1.
         25    2    1    2    0    0 -0.31448373668E+02  0.11721798528E+02 -0.12363228772E+03  0.17905048609E+03  0.12509089989E+03 0.  0.
          5    1    3    3  502    0 -0.45451098666E+02 -0.10631488675E+02 -0.14006247516E+03  0.14769495682E+03  0.41800000000E+01 0. -1.
         -5    1    3    3    0  502  0.14002724999E+02  0.22353287203E+02  0.16430187444E+02  0.31355529267E+02  0.41800000000E+01 0. -1.
        -11    1    1    2    0    0  0.35298591131E+01  0.34700566312E+02 -0.17885201506E+03  0.18222138321E+03  0.00000000000E+00 0. -1.
         11    1    1    2    0    0  0.27918514554E+02 -0.46422364840E+02 -0.11580361776E+03  0.12784739848E+03  0.00000000000E+00 0.  1.
</event>
<event>
 7    1  0.2719869E-009  0.1003883E+03  0.7561462E-02  0.1279481E+00
         -1   -1    0    0    0  501 -0.00000000000E+00  0.00000000000E+00  0.81818260551E+02  0.81818260551E+02  0.00000000000E+00 0.  1.
          1   -1    0    0  501    0  0.00000000000E+00 -0.00000000000E+00 -0.18697451343E+03  0.18697451343E+03  0.00000000000E+00 0. -1.
         25    2    1    2    0    0 -0.10733624183E+02 -0.59152167754E+02 -0.68041595143E+02  0.15456755769E+03  0.12508909457E+03 0.  0.
          5    1    3    3  502    0 -0.17155208094E+02 -0.96883240651E+02 -0.37327170333E+02  0.10531596996E+03  0.41800000000E+01 0.  1.
         -5    1    3    3    0  502  0.64215839115E+01  0.37731072897E+02 -0.30714424811E+02  0.49251587724E+02  0.41800000000E+01 0.  1.
        -11    1    1    2    0    0  0.15278786550E+02  0.24685357246E+02  0.28049020239E+02  0.40367755910E+02  0.00000000000E+00 0.  1.
         11    1    1    2    0    0 -0.45451623669E+01  0.34466810507E+02 -0.65163677974E+02  0.73857460385E+02  0.00000000000E+00 0. -1.
</event>
<event>
 7    1  0.2719869E-009  0.1115487E+03  0.7561462E-02  0.1257729E+00
         -3   -1    0    0    0  501 -0.00000000000E+00  0.00000000000E+00  0.49758714601E+02  0.49758714601E+02  0.00000000000E+00 0.  1.
          3   -1    0    0  501    0  0.00000000000E+00 -0.00000000000E+00 -0.45751400756E+03  0.45751400756E+03  0.00000000000E+00 0. -1.
         25    2    1    2    0    0  0.93588401938E+02  0.32698715995E+02 -0.27407134263E+03  0.31716029254E+03  0.12509018870E+03 0.  0.
          5    1    3    3  502    0  0.61871530271E+01 -0.49223034795E+01 -0.18972509090E+03  0.18993575875E+03  0.41800000000E+01 0. -1.
         -5    1    3    3    0  502  0.87401248911E+02  0.37621019475E+02 -0.84346251727E+02  0.12722453379E+03  0.41800000000E+01 0. -1.
        -11    1    1    2    0    0 -0.66051871124E+02 -0.53008341474E+02 -0.46864118142E+02  0.96793489006E+02  0.00000000000E+00 0.  1.
         11    1    1    2    0    0 -0.27536530815E+02  0.20309625478E+02 -0.86819832194E+02  0.93318940621E+02  0.00000000000E+00 0. -1.
</event>
<event>
 7    1  0.2719869E-009  0.1100511E+03  0.7561462E-02  0.1260475E+00
         -2   -1    0    0    0  501 -0.00000000000E+00  0.00000000000E+00  0.31659730300E+03  0.31659730300E+03  0.00000000000E+00 0. -1.
          2   -1    0    0  501    0  0.00000000000E+00 -0.00000000000E+00 -0.65906371808E+02  0.65906371808E+02  0.00000000000E+00 0.  1.
         25    2    1    2    0    0  0.97829587741E+01 -0.55771284707E+02  0.23848782283E+03  0.27518890956E+03  0.12508537815E+03 0.  0.
          5    1    3    3  502    0  0.58754380552E+02 -0.47777249984E+02  0.19443697491E+03  0.20870542029E+03  0.41800000000E+01 0.  1.
         -5    1    3    3    0  502 -0.48971421777E+02 -0.79940347233E+01  0.44050847926E+02  0.66483489266E+02  0.41800000000E+01 0.  1.
        -11    1    1    2    0    0 -0.38578438892E+02  0.91214392409E+01  0.29959201671E+02  0.49689539804E+02  0.00000000000E+00 0. -1.
         11    1    1    2    0    0  0.28795480118E+02  0.46649845466E+02 -0.17756093312E+02  0.57625225440E+02  0.00000000000E+00 0.  1.
</event>
<event>
 7    1  0.2719869E-009  0.7944535E+02  0.7561462E-02  0.1330633E+00
         -1   -1    0    0    0  501 -0.00000000000E+00  0.00000000000E+00  0.54834129457E+02  0.54834129457E+02  0.00000000000E+00 0.  1.
          1   -1    0    0  501    0  0.00000000000E+00 -0.00000000000E+00 -0.34643109374E+03  0.34643109374E+03  0.00000000000E+00 0. -1.
         25    2    1    2    0    0  0.36027090257E+02 -0.12934416684E+02 -0.26879237765E+03  0.29892328615E+03  0.12506213798E+03 0.  0.
          5    1    3    3  502    0 -0.12568021981E+02 -0.89175636985E+01 -0.24314817866E+03  0.24367188451E+03  0.41800000000E+01 0. -1.
         -5    1    3    3    0  502  0.48595112238E+02 -0.40168529852E+01 -0.25644198991E+02  0.55251401641E+02  0.41800000000E+01 0. -1.
        -11    1    1    2    0    0 -0.46414795360E+02  0.42322813111E+02 -0.31093798768E+02  0.70088358946E+02  0.00000000000E+00 0.  1.
         11    1    1    2    0    0  0.10387705102E+02 -0.29388396427E+02  0.82892121368E+01  0.32253578092E+02  0.00000000000E+00 0. -1.
</event>
<event>
 7    1  0.2719869E-009  0.1057688E+03  0.7561462E-02  0.1268612E+00
         -2   -1    0    0    0  501 -0.00000000000E+00  0.00000000000E+00  0.99114876454E+02  0.99114876454E+02  0.00000000000E+00 0.  1.
          2   -1    0    0  501    0  0.00000000000E+00 -0.00000000000E+00 -0.26101777334E+03  0.26101777334E+03  0.00000000000E+00 0. -1.
         25    2    1    2    0    0 -0.40115011330E+02 -0.84158409011E+02 -0.21457407589E+01  0.15602672971E+03  0.12509150346E+03 0.  0.
          5    1    3    3  502    0 -0.47931144698E+02 -0.52614145932E+02 -0.57572750026E+02  0.91639167008E+02  0.41800000000E+01 0.  1.
         -5    1    3    3    0  502  0.78161333676E+01 -0.31544263078E+02  0.55427009268E+02  0.64387562699E+02  0.41800000000E+01 0.  1.
        -11    1    1    2    0    0  0.53434450106E+02  0.65038456430E+02 -0.64512847114E+02  0.10605257524E+03  0.00000000000E+00 0.  1.
         11    1    1    2    0    0 -0.13319438776E+02  0.19119952581E+02 -0.95244309017E+02  0.98053344849E+02  0.00000000000E+00 0. -1.
</event>
<event>
 7    1  0.2719869E-009  0.1260150E+03  0.7561462E-02  0.1233491E+00
          2   -1    0    0  501    0  0.00000000000E+00  0.00000000000E+00  0.87563644501E+03  0.87563644501E+03  0.00000000000E+00 0. -1.
         -2   -1    0    0    0  501 -0.00000000000E+00 -0.00000000000E+00 -0.30624324722E+02  0.30624324722E+02  0.00000000000E+00 0.  1.
         25    2    1    2    0    0 -0.78596354566E+02 -0.31650700249E+02  0.69566189707E+03  0.71187938636E+03  0.12509049490E+03 0.  0.
          5    1    3    3  502    0 -0.74658990808E+02 -0.64083185760E+02  0.63730826477E+03  0.64487201548E+03  0.41800000000E+01 0.  1.
         -5    1    3    3    0  502 -0.39373637581E+01  0.32432485511E+02  0.58353632296E+02  0.67007370878E+02  0.41800000000E+01 0.  1.
        -11    1    1    2    0    0  0.71809143402E+02 -0.15094806779E+02  0.11318935611E+03  0.13489342684E+03  0.00000000000E+00 0.  1.
         11    1    1    2    0    0  0.67872111635E+01  0.46745507028E+02  0.36160867120E+02  0.59487956542E+02  0.00000000000E+00 0. -1.
</event>
<event>
 7    1  0.2719869E-009  0.1315929E+03  0.7561462E-02  0.1225111E+00
          2   -1    0    0  501    0  0.00000000000E+00  0.00000000000E+00  0.72853193940E+03  0.72853193940E+03  0.00000000000E+00 0. -1.
         -2   -1    0    0    0  501 -0.00000000000E+00 -0.00000000000E+00 -0.29818883753E+02  0.29818883753E+02  0.00000000000E+00 0.  1.
         25    2    1    2    0    0  0.95530453419E+02  0.21188929744E+02  0.36500949624E+03  0.39806410104E+03  0.12509219768E+03 0.  0.
          5    1    3    3  502    0  0.91902694519E+02  0.45438326133E+02  0.35772007370E+03  0.37214495868E+03  0.41800000000E+01 0. -1.
         -5    1    3    3    0  502  0.36277589003E+01 -0.24249396390E+02  0.72894225349E+01  0.25919142362E+02  0.41800000000E+01 0. -1.
        -11    1    1    2    0    0 -0.82549265785E+02  0.26171302446E+02  0.20560757698E+03  0.22310041252E+03  0.00000000000E+00 0. -1.
         11    1    1    2    0    0 -0.12981187635E+02 -0.47360232190E+02  0.12809598243E+03  0.13718630959E+03  0.00000000000E+00 0.  1.
</event>
<event>
 7    1  0.2719869E-009  0.9569453E+02  0.7561462E-02  0.1289619E+00
         -4   -1    0    0    0  501 -0.00000000000E+00  0.00000000000E+00  0.41942733370E+03  0.41942733370E+03  0.00000000000E+00 0.  1.
          4   -1    0    0  501    0  0.00000000000E+00 -0.00000000000E+00 -0.33783490622E+02  0.33783490622E+02  0.00000000000E+00 0. -1.
         25    2    1    2    0    0  0.14742245661E+02  0.15631829827E+02  0.29990805120E+03  0.32566087345E+03  0.12509387439E+03 0.  0.
          5    1    3    3  502    0  0.30123918481E+02 -0.49923193799E+02  0.15978024472E+03  0.17013810492E+03  0.41800000000E+01 0.  1.
         -5    1    3    3    0  502 -0.15381672820E+02  0.65555023626E+02  0.14012780647E+03  0.15552276852E+03  0.41800000000E+01 0.  1.
        -11    1    1    2    0    0  0.13052352310E+02  0.17747525473E+02  0.80899076505E+02  0.83845090140E+02  0.00000000000E+00 0.  1.
         11    1    1    2    0    0 -0.27794597971E+02 -0.33379355301E+02  0.48367153809E+01  0.43704860740E+02  0.00000000000E+00 0. -1.
</event>
<event>
 7    1  0.2719869E-009  0.1605633E+03  0.7561462E-02  0.1188062E+00
          3   -1    0    0  501    0  0.00000000000E+00  0.00000000000E+00  0.36674932383E+03  0.36674932383E+03  0.00000000000E+00 0. -1.
         -3   -1    0    0    0  501 -0.00000000000E+00 -0.00000000000E+00 -0.94305797930E+02  0.94305797930E+02  0.00000000000E+00 0.  1.
         25    2    1    2    0    0  0.68872859530E+02  0.99006547260E+02  0.31881378109E+02  0.17666225704E+03  0.12508942246E+03 0.  0.
          5    1    3    3  502    0 -0.21925416066E+02  0.76757592106E+02  0.19383206453E+02  0.82253467453E+02  0.41800000000E+01 0.  1.
         -5    1    3    3    0  502  0.90798275596E+02  0.22248955154E+02  0.12498171656E+02  0.94408789588E+02  0.41800000000E+01 0.  1.
        -11    1    1    2    0    0 -0.75410711636E+02 -0.11085862654E+03  0.19341967917E+03  0.23534566662E+03  0.00000000000E+00 0.  1.
         11    1    1    2    0    0  0.65378521051E+01  0.11852079280E+02  0.47142468628E+02  0.49047198103E+02  0.00000000000E+00 0. -1.
</event>
<event>
 7    1  0.2719869E-009  0.1765169E+03  0.7561462E-02  0.1171217E+00
          1   -1    0    0  501    0  0.00000000000E+00  0.00000000000E+00  0.65214348149E+03  0.65214348149E+03  0.00000000000E+00 0. -1.
         -1   -1    0    0    0  501 -0.00000000000E+00 -0.00000000000E+00 -0.53782025302E+02  0.53782025302E+02  0.00000000000E+00 0.  1.
         25    2    1    2    0    0 -0.13400945948E+03  0.38154183947E-01  0.28831175140E+03  0.34165744947E+03  0.12509040768E+03 0.  0.
          5    1    3    3  502    0 -0.14660779201E+03 -0.12241146484E+02  0.18317531386E+03  0.23497735711E+03  0.41800000000E+01 0. -1.
         -5    1    3    3    0  502  0.12598332528E+02  0.12279300668E+02  0.10513643754E+03  0.10668009236E+03  0.41800000000E+01 0. -1.
        -11    1    1    2    0    0  0.41729133297E+02 -0.63353285675E+02  0.16006522504E+03  0.17713225465E+03  0.00000000000E+00 0.  1.
         11    1    1    2    0    0  0.92280326182E+02  0.63315131491E+02  0.14998447974E+03  0.18713580267E+03  0.00000000000E+00 0. -1.
</event>
<event>
 7    1  0.2719869E-009  0.2315761E+03  0.7561462E-02  0.1125535E+00
         -2   -1    0    0    0  501 -0.00000000000E+00  0.00000000000E+00  0.15831655583E+03  0.15831655583E+03  0.00000000000E+00 0.  1.
          2   -1    0    0  501    0  0.00000000000E+00 -0.00000000000E+00 -0.39303589345E+03  0.39303589345E+03  0.00000000000E+00 0. -1.
         25    2    1    2    0    0 -0.19126576704E+03  0.83522164838E+02 -0.18621598131E+03  0.30640036060E+03  0.12508494561E+03 0.  0.
          5    1    3    3  502    0 -0.18390705807E+03  0.26806811536E+02 -0.13895851243E+03  0.23209341164E+03  0.41800000000E+01 0. -1.
         -5    1    3    3    0  502 -0.73587089732E+01  0.56715353302E+02 -0.47257468884E+02  0.74306948957E+02  0.41800000000E+01 0. -1.
        -11    1    1    2    0    0  0.13749437362E+03 -0.23782334335E+02  0.17919852275E+02  0.14068199355E+03  0.00000000000E+00 0.  1.
         11    1    1    2    0    0  0.53771393424E+02 -0.59739830503E+02 -0.66423208580E+02  0.10427009513E+03  0.00000000000E+00 0. -1.
</event>
<event>
 7    1  0.2719869E-009  0.2026062E+03  0.7561462E-02  0.1147559E+00
         -1   -1    0    0    0  501 -0.00000000000E+00  0.00000000000E+00  0.99939416934E+02  0.99939416934E+02  0.00000000000E+00 0.  1.
          1   -1    0    0  501    0  0.00000000000E+00 -0.00000000000E+00 -0.52394530650E+03  0.52394530650E+03  0.00000000000E+00 0. -1.
         25    2    1    2    0    0  0.79648057942E+02  0.17469592147E+03 -0.13630812365E+03  0.26662526035E+03  0.12508655713E+03 0.  0.
          5    1    3    3  502    0  0.76012560499E+02  0.73746363216E+02 -0.12413293377E+02  0.10671456177E+03  0.41800000000E+01 0.  1.
         -5    1    3    3    0  502  0.36354974425E+01  0.10094955825E+03 -0.12389483027E+03  0.15991069858E+03  0.41800000000E+01 0.  1.
        -11    1    1    2    0    0 -0.51881011700E+02 -0.15661805686E+03 -0.17816166930E+03  0.24282181845E+03  0.00000000000E+00 0.  1.
         11    1    1    2    0    0 -0.27767046242E+02 -0.18077864611E+02 -0.10953609662E+03  0.11443764463E+03  0.00000000000E+00 0. -1.
</event>
<event>
 7    1  0.2719869E-009  0.1509122E+03  0.7561462E-02  0.1199357E+00
         -2   -1    0    0    0  501 -0.00000000000E+00  0.00000000000E+00  0.26065170484E+02  0.26065170484E+02  0.00000000000E+00 0.  1.
          2   -1    0    0  501    0  0.00000000000E+00 -0.00000000000E+00 -0.11625240282E+04  0.11625240282E+04  0.00000000000E+00 0. -1.
         25    2    1    2    0    0 -0.46470790628E+02 -0.12421199185E+03 -0.70984531824E+03  0.73288200478E+03  0.12508998283E+03 0.  0.
          5    1    3    3  502    0  0.10718754037E+02 -0.50893540244E+02 -0.50726467693E+03  0.50994114267E+03  0.41800000000E+01 0. -1.
         -5    1    3    3    0  502 -0.57189544665E+02 -0.73318451608E+02 -0.20258064131E+03  0.22294086211E+03  0.41800000000E+01 0. -1.
        -11    1    1    2    0    0  0.67908145375E+02  0.66683198287E+02 -0.30453330850E+03  0.31905908720E+03  0.00000000000E+00 0. -1.
         11    1    1    2    0    0 -0.21437354747E+02  0.57528793565E+02 -0.12208023093E+03  0.13664810666E+03  0.00000000000E+00 0.  1.
</event>
<event>
 7    1  0.2719869E-009  0.9946577E+02  0.7561462E-02  0.1281423E+00
         -4   -1    0    0    0  501 -0.00000000000E+00  0.00000000000E+00  0.24096366476E+03  0.24096366476E+03  0.00000000000E+00 0.  1.
          4   -1    0    0  501    0  0.00000000000E+00 -0.00000000000E+00 -0.76978902159E+02  0.76978902159E+02  0.00000000000E+00 0. -1.
         25    2    1    2    0    0 -0.81147056374E+02 -0.57148943751E+00  0.75750091397E+02  0.16724314337E+03  0.12508805418E+03 0.  0.
          5    1    3    3  502    0 -0.41597797257E+02 -0.84982703906E+01 -0.31206249716E+02  0.52857352919E+02  0.41800000000E+01 0. -1.
         -5    1    3    3    0  502 -0.39549259118E+02  0.79267809531E+01  0.10695634111E+03  0.11438579045E+03  0.41800000000E+01 0. -1.
        -11    1    1    2    0    0  0.90283371765E+02  0.21564026390E+02  0.87847382908E+02  0.12780163197E+03  0.00000000000E+00 0.  1.
         11    1    1    2    0    0 -0.91363153907E+01 -0.20992536952E+02  0.38728829213E+00  0.22897791571E+02  0.00000000000E+00 0. -1.
</event>
<event>
 7    1  0.2719869E-009  0.8902253E+02  0.7561462E-02  0.1305236E+00
          3   -1    0    0  501    0  0.00000000000E+00  0.00000000000E+00  0.34648191331E+02  0.34648191331E+02  0.00000000000E+00 0. -1.
         -3   -1    0    0    0  501 -0.00000000000E+00 -0.00000000000E+00 -0.43109012745E+03  0.43109012745E+03  0.00000000000E+00 0.  1.
         25    2    1    2    0    0 -0.17791602485E+02  0.17723654086E+02 -0.12788250185E+03  0.18064241689E+03  0.12508828669E+03 0.  0.
          5    1    3    3  502    0  0.14416554906E+02  0.40206701087E+02 -0.13396886481E+03  0.14067531769E+03  0.41800000000E+01 0. -1.
         -5    1    3    3    0  502 -0.32208157391E+02 -0.22483047001E+02  0.60863629587E+01  0.39967099207E+02  0.41800000000E+01 0. -1.
        -11    1    1    2    0    0 -0.14083320988E+02 -0.48991847355E+02 -0.13821927806E+03  0.14731975381E+03  0.00000000000E+00 0.  1.
         11    1    1    2    0    0  0.31874923473E+02  0.31268193269E+02 -0.13034015621E+03  0.13777614807E+03  0.00000000000E+00 0. -1.
</event>
<event>
 7    1  0.2719869E-009  0.1835550E+03  0.7561462E-02  0.1164406E+00
          1   -1    0    0  501    0  0.00000000000E+00  0.00000000000E+00  0.45483322575E+02  0.45483322575E+02  0.00000000000E+00 0. -1.
         -1   -1    0    0    0  501 -0.00000000000E+00 -0.00000000000E+00 -0.12748602517E+04  0.12748602517E+04  0.00000000000E+00 0.  1.
         25    2    1    2    0    0 -0.16240809360E+03  0.28858813126E+02 -0.10110635610E+04  0.10320394090E+04  0.12508635965E+03 0.  0.
          5    1    3    3  502    0  0.17196396295E+02  0.90861196829E+01 -0.44806033167E+02  0.49023735318E+02  0.41800000000E+01 0.  1.
         -5    1    3    3    0  502 -0.17960448989E+03  0.19772693443E+02 -0.96625752783E+03  0.98301567367E+03  0.41800000000E+01 0.  1.
        -11    1    1    2    0    0  0.57821050415E+02 -0.21297942386E+02 -0.15255936280E+03  0.16453338688E+03  0.00000000000E+00 0.  1.
         11    1    1    2    0    0  0.10458704318E+03 -0.75608707405E+01 -0.65754005310E+02  0.12377077838E+03  0.00000000000E+00 0. -1.
</event>
<event>
 7    1  0.2719869E-009  0.1631516E+03  0.7561462E-02  0.1185184E+00
          2   -1    0    0  501    0  0.00000000000E+00  0.00000000000E+00  0.75182302199E+03  0.75182302199E+03  0.00000000000E+00 0. -1.
         -2   -1    0    0    0  501 -0.00000000000E+00 -0.00000000000E+00 -0.49788521294E+02  0.49788521294E+02  0.00000000000E+00 0.  1.
         25    2    1    2    0    0  0.11719892816E+03  0.98862164959E+02  0.27833217383E+03  0.34150711831E+03  0.12509594894E+03 0.  0.
          5    1    3    3  502    0  0.92703558593E+02  0.89502904913E+02  0.28612749429E+03  0.31383297333E+03  0.41800000000E+01 0. -1.
         -5    1    3    3    0  502  0.24495369569E+02  0.93592600464E+01 -0.77953204575E+01  0.27674144973E+02  0.41800000000E+01 0. -1.
        -11    1    1    2    0    0 -0.76292618983E+02 -0.10465147809E+03  0.37214647454E+03  0.39403742727E+03  0.00000000000E+00 0. -1.
         11    1    1    2    0    0 -0.40906309178E+02  0.57893131278E+01  0.51555852325E+02  0.66066997707E+02  0.00000000000E+00 0.  1.
</event>
<event>
 7    1  0.2719869E-009  0.1062359E+03  0.7561462E-02  0.1267704E+00
         -1   -1    0    0    0  501 -0.00000000000E+00  0.00000000000E+00  0.90491629383E+02  0.90491629383E+02  0.00000000000E+00 0.  1.
          1   -1    0    0  501    0  0.00000000000E+00 -0.00000000000E+00 -0.17597549943E+03  0.17597549943E+03  0.00000000000E+00 0. -1.
         25    2    1    2    0    0  0.20335661825E+01 -0.57134268491E+02 -0.89132237428E+02  0.16389508899E+03  0.12509430211E+03 0.  0.
          5    1    3    3  502    0 -0.58907044460E+02 -0.96088203226E+01 -0.33407893306E+02  0.68526849119E+02  0.41800000000E+01 0. -1.
         -5    1    3    3    0  502  0.60940610642E+02 -0.47525448169E+02 -0.55724344122E+02  0.95368239875E+02  0.41800000000E+01 0. -1.
        -11    1    1    2    0    0  0.10382360319E+02  0.61281860380E+02  0.33044377655E+02  0.70393115516E+02  0.00000000000E+00 0.  1.
         11    1    1    2    0    0 -0.12415926501E+02 -0.41475918886E+01 -0.29396010269E+02  0.32178924300E+02  0.00000000000E+00 0. -1.
</event>
<event>
 7    1  0.2719869E-009  0.1035944E+03  0.7561462E-02  0.1272914E+00
         -2   -1    0    0    0  501 -0.00000000000E+00  0.00000000000E+00  0.21107226275E+02  0.21107226275E+02  0.00000000000E+00 0. -1.
          2   -1    0    0  501    0  0.00000000000E+00 -0.00000000000E+00 -0.12746615856E+04  0.12746615856E+04  0.00000000000E+00 0.  1.
         25    2    1    2    0    0  0.70716507729E+02  0.61135753229E+02 -0.10090081375E+04  0.10210207798E+04  0.12509039366E+03 0.  0.
          5    1    3    3  502    0  0.59180879618E+02  0.69807794669E+02 -0.99848082163E+03  0.10026748866E+04  0.41800000000E+01 0. -1.
         -5    1    3    3    0  502  0.11535628111E+02 -0.86720414395E+01 -0.10527315830E+02  0.18345893198E+02  0.41800000000E+01 0. -1.
        -11    1    1    2    0    0 -0.27041697380E+02 -0.47741600906E+02 -0.21114374869E+03  0.21815635784E+03  0.00000000000E+00 0.  1.
         11    1    1    2    0    0 -0.43674810349E+02 -0.13394152323E+02 -0.33402473165E+02  0.56591674202E+02  0.00000000000E+00 0. -1.
</event>
<event>
 7    1  0.2719869E-009  0.1156931E+03  0.7561462E-02  0.1250376E+00
          2   -1    0    0  501    0  0.00000000000E+00  0.00000000000E+00  0.28322323697E+03  0.28322323697E+03  0.00000000000E+00 0. -1.
         -2   -1    0    0    0  501 -0.00000000000E+00 -0.00000000000E+00 -0.69166797833E+02  0.69166797833E+02  0.00000000000E+00 0.  1.
         25    2    1    2    0    0 -0.82656301728E+02  0.20151845590E+02  0.15763490340E+03  0.21848223371E+03  0.12509021777E+03 0.  0.
          5    1    3    3  502    0 -0.39695338408E+02 -0.49965856577E+02  0.97174803763E+02  0.11633022652E+03  0.41800000000E+01 0.  1.
         -5    1    3    3    0  502 -0.42960963319E+02  0.70117702167E+02  0.60460099635E+02  0.10215200720E+03  0.41800000000E+01 0.  1.
        -11    1    1    2    0    0  0.48112333335E+02 -0.10813137433E+02 -0.17056914796E+02  0.52179104078E+02  0.00000000000E+00 0.  1.
         11    1    1    2    0    0  0.34543968393E+02 -0.93387081565E+01  0.73478450536E+02  0.81728697014E+02  0.00000000000E+00 0. -1.
</event>
<event>
 7    1  0.2719869E-009  0.1057397E+03  0.7561462E-02  0.1268669E+00
          2   -1    0    0  501    0  0.00000000000E+00  0.00000000000E+00  0.22055637188E+03  0.22055637188E+03  0.00000000000E+00 0. -1.
         -2   -1    0    0    0  501 -0.00000000000E+00 -0.00000000000E+00 -0.10054494028E+03  0.10054494028E+03  0.00000000000E+00 0.  1.
         25    2    1    2    0    0  0.14810534141E+02 -0.50894945682E+02  0.15890561880E+03  0.20906132708E+03  0.12508395331E+03 0.  0.
          5    1    3    3  502    0 -0.11963965412E+02 -0.83870553337E+02  0.68288081035E+02  0.10889508987E+03  0.41800000000E+01 0. -1.
         -5    1    3    3    0  502  0.26774499553E+02  0.32975607654E+02  0.90617537765E+02  0.10016623721E+03  0.41800000000E+01 0. -1.
        -11    1    1    2    0    0 -0.40770722032E+02  0.32868376710E+02 -0.55525468997E+02  0.76326009131E+02  0.00000000000E+00 0.  1.
         11    1    1    2    0    0  0.25960187890E+02  0.18026568972E+02  0.16631281794E+02  0.35713975952E+02  0.00000000000E+00 0. -1.
</event>
<event>
 7    1  0.2719869E-009  0.1396253E+03  0.7561462E-02  0.1213834E+00
         -1   -1    0    0    0  501 -0.00000000000E+00  0.00000000000E+00  0.24062038036E+03  0.24062038036E+03  0.00000000000E+00 0.  1.
          1   -1    0    0  501    0  0.00000000000E+00 -0.00000000000E+00 -0.11000251553E+03  0.11000251553E+03  0.00000000000E+00 0. -1.
         25    2    1    2    0    0  0.80343065346E+02 -0.91469545218E+02  0.76406954504E+02  0.19054241622E+03  0.12508678519E+03 0.  0.
          5    1    3    3  502    0  0.80960194732E+02 -0.94071127266E+02  0.10694174069E+02  0.12464256045E+03  0.41800000000E+01 0.  1.
         -5    1    3    3    0  502 -0.61712938664E+00  0.26015820476E+01  0.65712780434E+02  0.65899855768E+02  0.41800000000E+01 0.  1.
        -11    1    1    2    0    0 -0.59687680832E+02  0.35508611385E+01  0.28115475315E+02  0.66073503086E+02  0.00000000000E+00 0.  1.
         11    1    1    2    0    0 -0.20655384514E+02  0.87918684080E+02  0.26095435006E+02  0.94006976591E+02  0.00000000000E+00 0. -1.
</event>
<event>
 7    1  0.2719869E-009  0.1148033E+03  0.7561462E-02  0.1251925E+00
         -1   -1    0    0    0  501 -0.00000000000E+00  0.00000000000E+00  0.64082389926E+02  0.64082389926E+02  0.00000000000E+00 0.  1.
          1   -1    0    0  501    0  0.00000000000E+00 -0.00000000000E+00 -0.27160982752E+03  0.27160982752E+03  0.00000000000E+00 0. -1.
         25    2    1    2    0    0  0.64111789865E+02  0.31910875181E+02 -0.83159205310E+02  0.16640672605E+03  0.12508844668E+03 0.  0.
          5    1    3    3  502    0 -0.33374488154E+02  0.19556017425E+02 -0.21174051001E+01  0.38964728685E+02  0.41800000000E+01 0. -1.
         -5    1    3    3    0  502  0.97486278019E+02  0.12354857755E+02 -0.81041800210E+02  0.12744199737E+03  0.41800000000E+01 0. -1.
        -11    1    1    2    0    0 -0.58078532806E+02 -0.47882170306E+02 -0.44136510724E+02  0.87257376679E+02  0.00000000000E+00 0.  1.
         11    1    1    2    0    0 -0.60332570594E+01  0.15971295126E+02 -0.80231721564E+02  0.82028114716E+02  0.00000000000E+00 0. -1.
</event>
<event>
 7    1  0.2719869E-009  0.7162810E+02  0.7561462E-02  0.1354643E+00
          2   -1    0    0  501    0  0.00000000000E+00  0.00000000000E+00  0.10282061492E+03  0.10282061492E+03  0.00000000000E+00 0. -1.
         -2   -1    0    0    0  501 -0.00000000000E+00 -0.00000000000E+00 -0.13266777912E+03  0.13266777912E+03  0.00000000000E+00 0.  1.
         25    2    1    2    0    0  0.36229067783E+02  0.12270805155E+01  0.75052233216E+01  0.13044985023E+03  0.12508710553E+03 0.  0.
          5    1    3    3  502    0  0.46052634509E+02 -0.90406015554E+01  0.59780405686E+02  0.76116666544E+02  0.41800000000E+01 0.  1.
         -5    1    3    3    0  502 -0.98235667259E+01  0.10267682071E+02 -0.52275182365E+02  0.54333183687E+02  0.41800000000E+01 0.  1.
        -11    1    1    2    0    0 -0.30696713383E+02 -0.35315726801E+02 -0.49795425126E+02  0.68330616384E+02  0.00000000000E+00 0.  1.
         11    1    1    2    0    0 -0.55323544003E+01  0.34088646286E+02  0.12443037607E+02  0.36707927423E+02  0.00000000000E+00 0. -1.
</event>
<event>
 7    1  0.2719869E-009  0.1185508E+03  0.7561462E-02  0.1245507E+00
          1   -1    0    0  501    0  0.00000000000E+00  0.00000000000E+00  0.52589579683E+03  0.52589579683E+03  0.00000000000E+00 0. -1.
         -1   -1    0    0    0  501 -0.00000000000E+00 -0.00000000000E+00 -0.39319370066E+02  0.39319370066E+02  0.00000000000E+00 0.  1.
         25    2    1    2    0    0 -0.12518158733E+02  0.89179299437E+02  0.31240017307E+03  0.34835718715E+03  0.12509680234E+03 0.  0.
          5    1    3    3  502    0 -0.58602649632E+02  0.67554036602E+02  0.26085664193E+03  0.27579245538E+03  0.41800000000E+01 0. -1.
         -5    1    3    3    0  502  0.46084490899E+02  0.21625262834E+02  0.51543531143E+02  0.72564731769E+02  0.41800000000E+01 0. -1.
        -11    1    1    2    0    0  0.10353521582E+02 -0.37083952943E+01 -0.93232986157E+01  0.14417749543E+02  0.00000000000E+00 0.  1.
         11    1    1    2    0    0  0.21646371514E+01 -0.85470904142E+02  0.18349955231E+03  0.20244023021E+03  0.00000000000E+00 0. -1.
</event>
<event>
 7    1  0.2719869E-009  0.1573505E+03  0.7561462E-02  0.1191721E+00
          2   -1    0    0  501    0  0.00000000000E+00  0.00000000000E+00  0.50728400752E+03  0.50728400752E+03  0.00000000000E+00 0. -1.
         -2   -1    0    0    0  501 -0.00000000000E+00 -0.00000000000E+00 -0.61539921013E+02  0.61539921013E+02  0.00000000000E+00 0.  1.
         25    2    1    2    0    0  0.12464655745E+03 -0.53876243353E+02  0.18810781695E+03  0.26357538152E+03  0.12509203438E+03 0.  0.
          5    1    3    3  502    0  0.84071607753E+02  0.10228788527E+02  0.16267786552E+03  0.18345087538E+03  0.41800000000E+01 0.  1.
         -5    1    3    3    0  502  0.40574949700E+02 -0.64105031880E+02  0.25429951423E+02  0.80124506144E+02  0.41800000000E+01 0.  1.
        -11    1    1    2    0    0 -0.38841223640E+02  0.55930574550E+02  0.64031735271E+02  0.93471562227E+02  0.00000000000E+00 0.  1.
         11    1    1    2    0    0 -0.85805333813E+02 -0.20543311974E+01  0.19360453429E+03  0.21177698478E+03  0.00000000000E+00 0. -1.
</event>
<event>
 7    1  0.2719869E-009  0.8890851E+02  0.7561462E-02  0.1305517E+00
         -2   -1    0    0    0  501 -0.00000000000E+00  0.00000000000E+00  0.27989301646E+02  0.27989301646E+02  0.00000000000E+00 0.  1.
          2   -1    0    0  501    0  0.00000000000E+00 -0.00000000000E+00 -0.60761824334E+03  0.60761824334E+03  0.00000000000E+00 0. -1.
         25    2    1    2    0    0  0.67884463121E+02 -0.20362692830E+01 -0.40910946606E+03  0.43316427865E+03  0.12509312671E+03 0.  0.
          5    1    3    3  502    0  0.57018503684E+02 -0.10388621499E+01 -0.41579070177E+03  0.41970414470E+03  0.41800000000E+01 0.  1.
         -5    1    3    3    0  502  0.10865959437E+02 -0.99740713305E+00  0.66812357063E+01  0.13460133953E+02  0.41800000000E+01 0.  1.
        -11    1    1    2    0    0 -0.48034097995E+02 -0.39971193491E+02 -0.92257519115E+02  0.11142899404E+03  0.00000000000E+00 0.  1.
         11    1    1    2    0    0 -0.19850365127E+02  0.42007462774E+02 -0.78261956517E+02  0.91014272300E+02  0.00000000000E+00 0. -1.
</event>
<event>
 7    1  0.2719869E-009  0.2755007E+03  0.7561462E-02  0.1098172E+00
          2   -1    0    0  501    0  0.00000000000E+00  0.00000000000E+00  0.65903675193E+03  0.65903675193E+03  0.00000000000E+00 0. -1.
         -2   -1    0    0    0  501 -0.00000000000E+00 -0.00000000000E+00 -0.12486038901E+03  0.12486038901E+03  0.00000000000E+00 0.  1.
         25    2    1    2    0    0  0.23156416057E+03  0.11757839073E+03  0.20008434959E+03  0.35088948114E+03  0.12507214955E+03 0.  0.
          5    1    3    3  502    0  0.22052284819E+03  0.13535928047E+03  0.15667746054E+03  0.30251902490E+03  0.41800000000E+01 0.  1.
         -5    1    3    3    0  502  0.11041312377E+02 -0.17780889745E+02  0.43406889051E+02  0.48370456233E+02  0.41800000000E+01 0.  1.
        -11    1    1    2    0    0 -0.18850262714E+03 -0.57734375554E+02  0.20546670301E+03  0.28475088166E+03  0.00000000000E+00 0.  1.
         11    1    1    2    0    0 -0.43061533435E+02 -0.59844015175E+02  0.12862531031E+03  0.14825677814E+03  0.00000000000E+00 0. -1.
</event>
<event>
 7    1  0.2719869E-009  0.1025003E+03  0.7561462E-02  0.1275124E+00
          1   -1    0    0  501    0  0.00000000000E+00  0.00000000000E+00  0.34381238718E+02  0.34381238718E+02  0.00000000000E+00 0. -1.
         -1   -1    0    0    0  501 -0.00000000000E+00 -0.00000000000E+00 -0.81535958650E+03  0.81535958650E+03  0.00000000000E+00 0.  1.
         25    2    1    2    0    0  0.22285354035E+02 -0.41840675650E+02 -0.71971971081E+03  0.73204595886E+03  0.12509014595E+03 0.  0.
          5    1    3    3  502    0  0.67292786649E+02 -0.53607662177E+02 -0.50629771217E+03  0.51357272739E+03  0.41800000000E+01 0. -1.
         -5    1    3    3    0  502 -0.45007432614E+02  0.11766986528E+02 -0.21342199864E+03  0.21847323147E+03  0.41800000000E+01 0. -1.
        -11    1    1    2    0    0  0.18228813852E+02  0.14278205548E+02 -0.64556110246E+02  0.68583147917E+02  0.00000000000E+00 0.  1.
         11    1    1    2    0    0 -0.40514167887E+02  0.27562470101E+02  0.32974732781E+01  0.49111718435E+02  0.00000000000E+00 0. -1.
</event>
<event>
 7    1  0.2719869E-009  0.1012699E+03  0.7561462E-02  0.1277648E+00
         -2   -1    0    0    0  501 -0.00000000000E+00  0.00000000000E+00  0.58324684994E+02  0.58324684994E+02  0.00000000000E+00 0.  1.
          2   -1    0    0  501    0  0.00000000000E+00 -0.00000000000E+00 -0.29319017180E+03  0.29319017180E+03  0.00000000000E+00 0. -1.
         25    2    1    2    0    0 -0.69848597819E+02 -0.14925784925E+02 -0.10520555978E+03  0.17837316087E+03  0.12508864471E+03 0.  0.
          5    1    3    3  502    0 -0.62344607929E+02 -0.58869121548E+02 -0.10223655814E+03  0.13349984955E+03  0.41800000000E+01 0. -1.
         -5    1    3    3    0  502 -0.75039898909E+01  0.43943336623E+02 -0.29690016422E+01  0.44873311318E+02  0.41800000000E+01 0. -1.
        -11    1    1    2    0    0  0.21329234381E+02  0.64379914156E+00  0.10754542955E+02  0.23895834590E+02  0.00000000000E+00 0.  1.
         11    1    1    2    0    0  0.48519363439E+02  0.14281985784E+02 -0.14041446998E+03  0.14924586133E+03  0.00000000000E+00 0. -1.
</event>
<event>
 7    1  0.2719869E-009  0.1059202E+03  0.7561462E-02  0.1268317E+00
          1   -1    0    0  501    0  0.00000000000E+00  0.00000000000E+00  0.51697962734E+03  0.51697962734E+03  0.00000000000E+00 0. -1.
         -1   -1    0    0    0  501 -0.00000000000E+00 -0.00000000000E+00 -0.26317765410E+02  0.26317765410E+02  0.00000000000E+00 0.  1.
         25    2    1    2    0    0 -0.11223440734E+02 -0.21103553545E+02  0.36681761059E+03  0.38829584345E+03  0.12508867659E+03 0.  0.
          5    1    3    3  502    0 -0.46439621563E+02 -0.55964483242E+02  0.26726544553E+03  0.27701435452E+03  0.41800000000E+01 0. -1.
         -5    1    3    3    0  502  0.35216180829E+02  0.34860929697E+02  0.99552165055E+02  0.11128148893E+03  0.41800000000E+01 0. -1.
        -11    1    1    2    0    0 -0.34602028746E+02 -0.72872695298E+01  0.71974729747E+02  0.80192059537E+02  0.00000000000E+00 0. -1.
         11    1    1    2    0    0  0.45825469480E+02  0.28390823075E+02  0.51869521600E+02  0.74809489765E+02  0.00000000000E+00 0.  1.
</event>
<event>
 7    1  0.2719869E-009  0.1038284E+03  0.7561462E-02  0.1272445E+00
          2   -1    0    0  501    0  0.00000000000E+00  0.00000000000E+00  0.17327122811E+03  0.17327122811E+03  0.00000000000E+00 0. -1.
         -2   -1    0    0    0  501 -0.00000000000E+00 -0.00000000000E+00 -0.87225950416E+02  0.87225950416E+02  0.00000000000E+00 0.  1.
         25    2    1    2    0    0  0.27910264899E+02 -0.68686279298E+01 -0.50237232811E+01  0.12844287216E+03  0.12508466204E+03 0.  0.
          5    1    3    3  502    0  0.63191994134E+02  0.35777041479E+02 -0.53770828419E+01  0.72935658216E+02  0.41800000000E+01 0. -1.
         -5    1    3    3    0  502 -0.35281729235E+02 -0.42645669408E+02  0.35335956078E+00  0.55507213946E+02  0.41800000000E+01 0. -1.
        -11    1    1    2    0    0 -0.48489412826E+02 -0.13628414288E+02  0.89824301281E+02  0.10298233797E+03  0.00000000000E+00 0. -1.
         11    1    1    2    0    0  0.20579147928E+02  0.20497042218E+02  0.12446996930E+01  0.29071968396E+02  0.00000000000E+00 0.  1.
</event>
<event>
 7    1  0.2719869E-009  0.9962878E+02  0.7561462E-02  0.1281079E+00
          1   -1    0    0  501    0  0.00000000000E+00  0.00000000000E+00  0.43951418882E+03  0.43951418882E+03  0.00000000000E+00 0. -1.
         -1   -1    0    0    0  501 -0.00000000000E+00 -0.00000000000E+00 -0.11768893957E+03  0.11768893957E+03  0.00000000000E+00 0.  1.
         25    2    1    2    0    0  0.19923020712E+02  0.56912482445E+02 -0.66247279919E+02  0.15386119847E+03  0.12509439989E+03 0.  0.
          5    1    3    3  502    0 -0.22824651471E+02  0.39073255239E+02  0.24692033972E+02  0.51718980379E+02  0.41800000000E+01 0.  1.
         -5    1    3    3    0  502  0.42747672184E+02  0.17839227207E+02 -0.90939313892E+02  0.10214221809E+03  0.41800000000E+01 0.  1.
        -11    1    1    2    0    0  0.27609984171E+02  0.61972692809E+01  0.67798645819E+02  0.73466820724E+02  0.00000000000E+00 0.  1.
         11    1    1    2    0    0 -0.47533004884E+02 -0.63109751726E+02  0.32027388335E+03  0.32987510920E+03  0.00000000000E+00 0. -1.
</event>
<event>
 7    1  0.2719869E-009  0.1457867E+03  0.7561462E-02  0.1205748E+00
         -2   -1    0    0    0  501 -0.00000000000E+00  0.00000000000E+00  0.28077622345E+02  0.28077622345E+02  0.00000000000E+00 0.  1.
          2   -1    0    0  501    0  0.00000000000E+00 -0.00000000000E+00 -0.82210444457E+03  0.82210444457E+03  0.00000000000E+00 0. -1.
         25    2    1    2    0    0  0.86693503912E+02  0.60110138373E+02 -0.40071471704E+03  0.43283707617E+03  0.12508660082E+03 0.  0.
          5    1    3    3  502    0  0.44974439960E+02 -0.28925236461E+02 -0.22633404007E+03  0.23260253578E+03  0.41800000000E+01 0.  1.
         -5    1    3    3    0  502  0.41719063953E+02  0.89035374834E+02 -0.17438067696E+03  0.20023454039E+03  0.41800000000E+01 0.  1.
        -11    1    1    2    0    0 -0.10215688123E+03 -0.31331419433E+02 -0.30613357584E+03  0.32424597527E+03  0.00000000000E+00 0.  1.
         11    1    1    2    0    0  0.15463377314E+02 -0.28778718941E+02 -0.87178529353E+02  0.93099015473E+02  0.00000000000E+00 0. -1.
</event>
<event>
 7    1  0.2719869E-009  0.2312838E+03  0.7561462E-02  0.1125739E+00
         -1   -1    0    0    0  501 -0.00000000000E+00  0.00000000000E+00  0.12134862875E+04  0.12134862875E+04  0.00000000000E+00 0.  1.
          1   -1    0    0  501    0  0.00000000000E+00 -0.00000000000E+00 -0.48978935969E+02  0.48978935969E+02  0.00000000000E+00 0. -1.
         25    2    1    2    0    0  0.12598311489E+03 -0.17185093647E+03  0.72071525258E+03  0.76189378081E+03  0.12508864187E+03 0.  0.
          5    1    3    3  502    0  0.10759445583E+03 -0.56540426438E+02  0.26731745545E+03  0.29368261974E+03  0.41800000000E+01 0.  1.
         -5    1    3    3    0  502  0.18388659058E+02 -0.11531051003E+03  0.45339779713E+03  0.46821116107E+03  0.41800000000E+01 0.  1.
        -11    1    1    2    0    0 -0.54512546973E+02  0.13075727987E+03  0.33771429989E+03  0.36622401938E+03  0.00000000000E+00 0.  1.
         11    1    1    2    0    0 -0.71470567917E+02  0.41093656599E+02  0.10607779907E+03  0.13434742329E+03  0.00000000000E+00 0. -1.
</event>
<event>
 7    1  0.2719869E-009  0.1135954E+03  0.7561462E-02  0.1254053E+00
          1   -1    0    0  501    0  0.00000000000E+00  0.00000000000E+00  0.38449610133E+03  0.38449610133E+03  0.00000000000E+00 0.  1.
         -1   -1    0    0    0  501 -0.00000000000E+00 -0.00000000000E+00 -0.42023207618E+02  0.42023207618E+02  0.00000000000E+00 0. -1.
         25    2    1    2    0    0 -0.77307263021E+01 -0.60050815813E+02  0.16216079244E+03  0.21356399271E+03  0.12509033445E+03 0.  0.
          5    1    3    3  502    0 -0.24858628484E+02  0.27616074490E+02  0.93884684072E+02  0.10105644603E+03  0.41800000000E+01 0.  1.
         -5    1    3    3    0  502  0.17127902182E+02 -0.87666890302E+02  0.68276108364E+02  0.11250754669E+03  0.41800000000E+01 0.  1.
        -11    1    1    2    0    0 -0.30840592696E+02  0.52776142214E+02  0.15403459043E+03  0.16571999998E+03  0.00000000000E+00 0.  1.
         11    1    1    2    0    0  0.38571318998E+02  0.72746735983E+01  0.26277510849E+02  0.47235316254E+02  0.00000000000E+00 0. -1.
</event>
<event>
 7    1  0.2719869E-009  0.1412766E+03  0.7561462E-02  0.1211621E+00
         -2   -1    0    0    0  501 -0.00000000000E+00  0.00000000000E+00  0.24873830949E+02  0.24873830949E+02  0.00000000000E+00 0.  1.
          2   -1    0    0  501    0  0.00000000000E+00 -0.00000000000E+00 -0.10667236875E+04  0.10667236875E+04  0.00000000000E+00 0. -1.
         25    2    1    2    0    0  0.48055438507E+02  0.11105896151E+03 -0.56325411916E+03  0.58953001308E+03  0.12508803089E+03 0.  0.
          5    1    3    3  502    0  0.27500979827E+02  0.10560975117E+03 -0.55607860856E+03  0.56670152173E+03  0.41800000000E+01 0. -1.
         -5    1    3    3    0  502  0.20554458680E+02  0.54492103437E+01 -0.71755105994E+01  0.22828491351E+02  0.41800000000E+01 0. -1.
        -11    1    1    2    0    0 -0.66270162993E+02 -0.38036615949E+02 -0.23489711800E+03  0.24701249908E+03  0.00000000000E+00 0.  1.
         11    1    1    2    0    0  0.18214724486E+02 -0.73022345566E+02 -0.24369861940E+03  0.25505500630E+03  0.00000000000E+00 0. -1.
</event>
<event>
 7    1  0.2719869E-009  0.1330286E+03  0.7561462E-02  0.1223030E+00
          1   -1    0    0  501    0  0.00000000000E+00  0.00000000000E+00  0.11915431520E+03  0.11915431520E+03  0.00000000000E+00 0. -1.
         -1   -1    0    0    0  501 -0.00000000000E+00 -0.00000000000E+00 -0.16162329270E+03  0.16162329270E+03  0.00000000000E+00 0.  1.
         25    2    1    2    0    0 -0.65202658789E+02 -0.57525733597E+02 -0.22373655468E+02  0.15397695402E+03  0.12509086766E+03 0.  0.
          5    1    3    3  502    0  0.67446401780E+01 -0.69044781784E+02  0.16292922732E+02  0.71383498050E+02  0.41800000000E+01 0. -1.
         -5    1    3    3    0  502 -0.71947298967E+02  0.11519048187E+02 -0.38666578200E+02  0.82593455972E+02  0.41800000000E+01 0. -1.
        -11    1    1    2    0    0  0.16834252770E+02  0.71318165641E+02 -0.21872724365E+02  0.76472798353E+02  0.00000000000E+00 0.  1.
         11    1    1    2    0    0  0.48368406019E+02 -0.13792432044E+02  0.17774023362E+01  0.50327855524E+02  0.00000000000E+00 0. -1.
</event>
<event>
 7    1  0.2719869E-009  0.1151965E+03  0.7561462E-02  0.1251238E+00
         -2   -1    0    0    0  501 -0.00000000000E+00  0.00000000000E+00  0.10791008722E+03  0.10791008722E+03  0.00000000000E+00 0.  1.
          2   -1    0    0  501    0  0.00000000000E+00 -0.00000000000E+00 -0.19859174423E+03  0.19859174423E+03  0.00000000000E+00 0. -1.
         25    2    1    2    0    0 -0.12251792516E+02  0.76565850269E+02 -0.11155988484E+03  0.18467391666E+03  0.12508561765E+03 0.  0.
          5    1    3    3  502    0 -0.47041055577E+02  0.65046842581E+02 -0.12221598544E+03  0.14628114074E+03  0.41800000000E+01 0. -1.
         -5    1    3    3    0  502  0.34789263061E+02  0.11519007688E+02  0.10656100607E+02  0.38392775917E+02  0.41800000000E+01 0. -1.
        -11    1    1    2    0    0  0.30715325473E+02  0.35408567614E+01  0.24638320626E+02  0.39534993724E+02  0.00000000000E+00 0.  1.
         11    1    1    2    0    0 -0.18463532957E+02 -0.80106707030E+02 -0.37600927959E+01  0.82292921071E+02  0.00000000000E+00 0. -1.
</event>
<event>
 7    1  0.2719869E-009  0.1938944E+03  0.7561462E-02  0.1154995E+00
          2   -1    0    0  501    0  0.00000000000E+00  0.00000000000E+00  0.66733637213E+02  0.66733637213E+02  0.00000000000E+00 0. -1.
         -2   -1    0    0    0  501 -0.00000000000E+00 -0.00000000000E+00 -0.70202213303E+03  0.70202213303E+03  0.00000000000E+00 0.  1.
         25    2    1    2    0    0  0.55527870086E+02 -0.15386402964E+03 -0.16996183989E+03  0.26699217132E+03  0.12506121921E+03 0.  0.
          5    1    3    3  502    0  0.49888855785E+02 -0.17366243771E+03 -0.16643127074E+03  0.24569163698E+03  0.41800000000E+01 0. -1.
         -5    1    3    3    0  502  0.56390143014E+01  0.19798408069E+02 -0.35305691538E+01  0.21300534334E+02  0.41800000000E+01 0. -1.
        -11    1    1    2    0    0  0.23664843696E+02  0.51071112792E+02 -0.17312549911E+03  0.18204593330E+03  0.00000000000E+00 0.  1.
         11    1    1    2    0    0 -0.79192713782E+02  0.10279291685E+03 -0.29220115682E+03  0.31971766563E+03  0.00000000000E+00 0. -1.
</event>
<event>
 6    1  0.2719869E-009  0.1014869E+03  0.7561462E-02  0.1277200E+00
          2   -1    0    0  501    0  0.00000000000E+00  0.00000000000E+00  0.44131571633E+02  0.44131571633E+02  0.00000000000E+00 0. -1.
         -2   -1    0    0    0  501 -0.00000000000E+00 -0.00000000000E+00 -0.31022099285E+03  0.31022099285E+03  0.00000000000E+00 0.  1.
          5    1    1    2  502    0 -0.71793896301E+02  0.82661070964E+01 -0.17380511887E+03  0.18827741186E+03  0.41800000000E+01 0. -1.
         -5    1    1    2    0  502  0.38083504205E+02 -0.44620329541E+00 -0.15352197857E+02  0.41276079864E+02  0.41800000000E+01 0. -1.
        -11    1    1    2    0    0 -0.16299708595E+02 -0.32607065559E+02 -0.52392462377E+02  0.63826885703E+02  0.00000000000E+00 0.  1.
         11    1    1    2    0    0  0.50010100690E+02  0.24787161758E+02 -0.24539642116E+02  0.60972187054E+02  0.00000000000E+00 0. -1.
</event>
<event>
 7    1  0.2719869E-009  0.1206770E+03  0.7561462E-02  0.1241984E+00
         -2   -1    0    0    0  501 -0.00000000000E+00  0.00000000000E+00  0.16545070899E+02  0.16545070899E+02  0.00000000000E+00 0.  1.
          2   -1    0    0  501    0  0.00000000000E+00 -0.00000000000E+00 -0.12871797363E+04  0.12871797363E+04  0.00000000000E+00 0. -1.
         25    2    1    2    0    0 -0.48018734163E+02 -0.50916167448E+02 -0.99243603794E+03  0.10027338255E+04  0.12509028949E+03 0.  0.
          5    1    3    3  502    0  0.31321129364E+02 -0.33191025014E+02 -0.16320954998E+03  0.16952134641E+03  0.41800000000E+01 0. -1.
         -5    1    3    3    0  502 -0.79339863527E+02 -0.17725142435E+02 -0.82922648796E+03  0.83321247911E+03  0.41800000000E+01 0. -1.
        -11    1    1    2    0    0  0.40287552528E+02  0.77008439938E+02 -0.19600207105E+03  0.21440661969E+03  0.00000000000E+00 0.  1.
         11    1    1    2    0    0  0.77311816354E+01 -0.26092272490E+02 -0.82196556383E+02  0.86584361950E+02  0.00000000000E+00 0. -1.
</event>
<event>
 7    1  0.2938687E-009  0.1153330E+03  0.7561462E-02  0.1251001E+00
          2   -1    0    0  501    0  0.00000000000E+00  0.00000000000E+00  0.54333944333E+03  0.54333944333E+03  0.00000000000E+00 0.  1.
         -2   -1    0    0    0  501 -0.00000000000E+00 -0.00000000000E+00 -0.30179645843E+02  0.30179645843E+02  0.00000000000E+00 0. -1.
         25    2    1    2    0    0  0.32781002974E+02 -0.55661947977E+02  0.23431559804E+03  0.27335708065E+03  0.12508975758E+03 0.  0.
          5    1    3    3  502    0  0.54836460377E+02  0.21468372463E+02  0.11873493924E+03  0.13260236272E+03  0.41800000000E+01 0. -1.
         -5    1    3    3    0  502 -0.22055457404E+02 -0.77130320440E+02  0.11558065880E+03  0.14075471793E+03  0.41800000000E+01 0. -1.
        -11    1    1    2    0    0 -0.51123146978E+02  0.51342221624E+02  0.26961246404E+03  0.27917822380E+03  0.00000000000E+00 0.  1.
         11    1    1    2    0    0  0.18342144005E+02  0.43197263533E+01  0.92317354094E+01  0.20983784719E+02  0.00000000000E+00 0. -1.
</event>
<event>
 7    1  0.2719869E-009  0.1108889E+03  0.7561462E-02  0.1258933E+00
          1   -1    0    0  501    0  0.00000000000E+00  0.00000000000E+00  0.60883312265E+02  0.60883312265E+02  0.00000000000E+00 0. -1.
         -1   -1    0    0    0  501 -0.00000000000E+00 -0.00000000000E+00 -0.23399937742E+03  0.23399937742E+03  0.00000000000E+00 0.  1.
         25    2    1    2    0    0  0.14456061996E+02 -0.41055044095E+02 -0.12786422090E+03  0.18409878832E+03  0.12509440635E+03 0.  0.
          5    1    3    3  502    0 -0.38669726283E+02 -0.62498152793E+02 -0.84880984105E+02  0.11235488728E+03  0.41800000000E+01 0. -1.
         -5    1    3    3    0  502  0.53125788279E+02  0.21443108698E+02 -0.42983236800E+02  0.71743901042E+02  0.41800000000E+01 0. -1.
        -11    1    1    2    0    0  0.23977973395E+02 -0.10700257072E+02 -0.37607594225E+02  0.45866870974E+02  0.00000000000E+00 0.  1.
         11    1    1    2    0    0 -0.38434035391E+02  0.51755301168E+02 -0.76442500224E+01  0.64917030384E+02  0.00000000000E+00 0. -1.
</event>
<event>
 7    1  0.2719869E-009  0.1200300E+03  0.7561462E-02  0.1243048E+00
         -2   -1    0    0    0  501 -0.00000000000E+00  0.00000000000E+00  0.38209408082E+02  0.38209408082E+02  0.00000000000E+00 0.  1.
          2   -1    0    0  501    0  0.00000000000E+00 -0.00000000000E+00 -0.49927853912E+03  0.49927853912E+03  0.00000000000E+00 0. -1.
         25    2    1    2    0    0 -0.58182694498E+02 -0.45843536796E+02 -0.32939625512E+03  0.36005005248E+03  0.12508913461E+03 0.  0.
          5    1    3    3  502    0 -0.12592853797E+01  0.29401721358E+02 -0.18591134753E+03  0.18827253798E+03  0.41800000000E+01 0. -1.
         -5    1    3    3    0  502 -0.56923409118E+02 -0.75245258154E+02 -0.14348490760E+03  0.17177751450E+03  0.41800000000E+01 0. -1.
        -11    1    1    2    0    0 -0.21027437682E+02 -0.51991010606E+01 -0.42502508425E+02  0.47703742094E+02  0.00000000000E+00 0.  1.
         11    1    1    2    0    0  0.79210132179E+02  0.51042637857E+02 -0.89170367489E+02  0.12973415263E+03  0.00000000000E+00 0. -1.
</event>
<event>
 7    1  0.2719869E-009  0.1298176E+03  0.7561462E-02  0.1227727E+00
         -2   -1    0    0    0  501 -0.00000000000E+00  0.00000000000E+00  0.26873986969E+02  0.26873986969E+02  0.00000000000E+00 0. -1.
          2   -1    0    0  501    0  0.00000000000E+00 -0.00000000000E+00 -0.74955798524E+03  0.74955798524E+03  0.00000000000E+00 0.  1.
         25    2    1    2    0    0  0.24917565602E+02 -0.87091863295E+02 -0.35004259745E+03  0.38260150983E+03  0.12509283579E+03 0.  0.
          5    1    3    3  502    0  0.60795385372E+02 -0.84744630986E+00 -0.13803766882E+03  0.15089290063E+03  0.41800000000E+01 0.  1.
         -5    1    3    3    0  502 -0.35877819770E+02 -0.86244416985E+02 -0.21200492863E+03  0.23170860920E+03  0.41800000000E+01 0.  1.
        -11    1    1    2    0    0 -0.39845444320E+02  0.42934334272E+02 -0.31143609984E+03  0.31689660897E+03  0.00000000000E+00 0.  1.
         11    1    1    2    0    0  0.14927878717E+02  0.44157529023E+02 -0.61205300972E+02  0.76933853403E+02  0.00000000000E+00 0. -1.
</event>
<event>
 7    1  0.2719869E-009  0.8558725E+02  0.7561462E-02  0.1313904E+00
          1   -1    0    0  501    0  0.00000000000E+00  0.00000000000E+00  0.10653151431E+03  0.10653151431E+03  0.00000000000E+00 0. -1.
         -1   -1    0    0    0  501 -0.00000000000E+00 -0.00000000000E+00 -0.84322098674E+02  0.84322098674E+02  0.00000000000E+00 0.  1.
         25    2    1    2    0    0  0.19523857210E+01 -0.12094631873E+02  0.47268659353E+02  0.13428306909E+03  0.12509006578E+03 0.  0.
          5    1    3    3  502    0  0.29819882476E+02 -0.59088511516E+02  0.78478904553E+01  0.66781280076E+02  0.41800000000E+01 0.  1.
         -5    1    3    3    0  502 -0.27867496755E+02  0.46993879643E+02  0.39420768898E+02  0.67501789011E+02  0.41800000000E+01 0.  1.
        -11    1    1    2    0    0  0.19706693120E+02  0.18953195805E+02 -0.91393112529E+01  0.28828881267E+02  0.00000000000E+00 0.  1.
         11    1    1    2    0    0 -0.21659078841E+02 -0.68585639312E+01 -0.15919932468E+02  0.27741662625E+02  0.00000000000E+00 0. -1.
</event>
<event>
 7    1  0.2719869E-009  0.1099127E+03  0.7561462E-02  0.1260732E+00
         -2   -1    0    0    0  501 -0.00000000000E+00  0.00000000000E+00  0.52551916727E+02  0.52551916727E+02  0.00000000000E+00 0.  1.
          2   -1    0    0  501    0  0.00000000000E+00 -0.00000000000E+00 -0.27555254902E+03  0.27555254902E+03  0.00000000000E+00 0. -1.
         25    2    1    2    0    0  0.21190310040E+02 -0.17260808690E+02 -0.18965360221E+03  0.22882989097E+03  0.12509062880E+03 0.  0.
          5    1    3    3  502    0  0.49018614034E+02 -0.58502852148E+02 -0.96157897774E+02  0.12283819412E+03  0.41800000000E+01 0. -1.
         -5    1    3    3    0  502 -0.27828303994E+02  0.41242043458E+02 -0.93495704435E+02  0.10599169684E+03  0.41800000000E+01 0. -1.
        -11    1    1    2    0    0  0.12173593541E+02 -0.31844142469E+02 -0.10646326246E+02  0.35715403565E+02  0.00000000000E+00 0. -1.
         11    1    1    2    0    0 -0.33363903581E+02  0.49104951159E+02 -0.22700703835E+02  0.63559171212E+02  0.00000000000E+00 0.  1.
</event>
<event>
 7    1  0.2719869E-009  0.1846912E+03  0.7561462E-02  0.1163339E+00
         -2   -1    0    0    0  501 -0.00000000000E+00  0.00000000000E+00  0.33083381162E+02  0.33083381162E+02  0.00000000000E+00 0.  1.
          2   -1    0    0  501    0  0.00000000000E+00 -0.00000000000E+00 -0.13991432671E+04  0.13991432671E+04  0.00000000000E+00 0. -1.
         25    2    1    2    0    0 -0.77030232798E+02  0.14182719063E+03 -0.95985995237E+03  0.98133952533E+03  0.12509007575E+03 0.  0.
          5    1    3    3  502    0  0.18140141342E+02  0.66560994591E+02 -0.53589907643E+03  0.54033760118E+03  0.41800000000E+01 0.  1.
         -5    1    3    3    0  502 -0.95170374140E+02  0.75266196037E+02 -0.42396087594E+03  0.44100192415E+03  0.41800000000E+01 0.  1.
        -11    1    1    2    0    0  0.70031130880E+02 -0.48303166141E+02 -0.28625338636E+03  0.29862778899E+03  0.00000000000E+00 0. -1.
         11    1    1    2    0    0  0.69991019180E+01 -0.93524024488E+02 -0.11994654718E+03  0.15225933391E+03  0.00000000000E+00 0.  1.
</event>
<event>
 7    1  0.2719869E-009  0.1348320E+03  0.7561462E-02  0.1220457E+00
          2   -1    0    0  501    0  0.00000000000E+00  0.00000000000E+00  0.31066049229E+03  0.31066049229E+03  0.00000000000E+00 0.  1.
         -2   -1    0    0    0  501 -0.00000000000E+00 -0.00000000000E+00 -0.84405594419E+02  0.84405594419E+02  0.00000000000E+00 0. -1.
         25    2    1    2    0    0  0.23274101046E+02 -0.97028760727E+02  0.39518781933E+02  0.16481815272E+03  0.12508806959E+03 0.  0.
          5    1    3    3  502    0  0.27604458342E+02 -0.11613891454E+03 -0.11817763965E+01  0.11945343271E+03  0.41800000000E+01 0. -1.
         -5    1    3    3    0  502 -0.43303572954E+01  0.19110153816E+02  0.40700558330E+02  0.45364720009E+02  0.41800000000E+01 0. -1.
        -11    1    1    2    0    0  0.31698482916E+02  0.32243208135E+02  0.94987981068E+02  0.10520045075E+03  0.00000000000E+00 0.  1.
         11    1    1    2    0    0 -0.54972583962E+02  0.64785552592E+02  0.91748134869E+02  0.12504748324E+03  0.00000000000E+00 0. -1.
</event>
<event>
 7    1  0.2719869E-009  0.1363550E+03  0.7561462E-02  0.1218319E+00
         -1   -1    0    0    0  501 -0.00000000000E+00  0.00000000000E+00  0.93256926757E+02  0.93256926757E+02  0.00000000000E+00 0.  1.
          1   -1    0    0  501    0  0.00000000000E+00 -0.00000000000E+00 -0.20543367458E+03  0.20543367458E+03  0.00000000000E+00 0. -1.
         25    2    1    2    0    0  0.84003480695E+02 -0.32230551031E+02 -0.76595239996E+02  0.17207948083E+03  0.12509645776E+03 0.  0.
          5    1    3    3  502    0  0.21671658581E+02 -0.74823221694E+02 -0.45621151296E+02  0.90371107860E+02  0.41800000000E+01 0. -1.
         -5    1    3    3    0  502  0.62331822114E+02  0.42592670662E+02 -0.30974088700E+02  0.81708372967E+02  0.41800000000E+01 0. -1.
        -11    1    1    2    0    0 -0.28739160309E+02  0.52805408848E+02 -0.30524140289E+02  0.67424577709E+02  0.00000000000E+00 0. -1.
         11    1    1    2    0    0 -0.55264320386E+02 -0.20574857817E+02 -0.50573675343E+01  0.59186542797E+02  0.00000000000E+00 0.  1.
</event>
<event>
 7    1  0.2719869E-009  0.1146863E+03  0.7561462E-02  0.1252130E+00
         -2   -1    0    0    0  501 -0.00000000000E+00  0.00000000000E+00  0.14676976626E+02  0.14676976626E+02  0.00000000000E+00 0.  1.
          2   -1    0    0  501    0  0.00000000000E+00 -0.00000000000E+00 -0.93888355505E+03  0.93888355505E+03  0.00000000000E+00 0. -1.
         25    2    1    2    0    0  0.21923594863E+02  0.40815617173E+02 -0.50604020285E+03  0.52332387090E+03  0.12507848869E+03 0.  0.
          5    1    3    3  502    0 -0.29300071415E+02 -0.29871835618E+02 -0.22888505894E+03  0.23271584251E+03  0.41800000000E+01 0.  1.
         -5    1    3    3    0  502  0.51223666278E+02  0.70687452791E+02 -0.27715514391E+03  0.29060802839E+03  0.41800000000E+01 0.  1.
        -11    1    1    2    0    0  0.30752005745E+02  0.36808332196E+01 -0.10010448720E+03  0.10478617632E+03  0.00000000000E+00 0. -1.
         11    1    1    2    0    0 -0.52675600608E+02 -0.44496450393E+02 -0.31806188837E+03  0.32545048445E+03  0.00000000000E+00 0.  1.
</event>
<event>
 7    1  0.2719869E-009  0.3192614E+03  0.7561462E-02  0.1075990E+00
          2   -1    0    0  501    0  0.00000000000E+00  0.00000000000E+00  0.40425333186E+03  0.40425333186E+03  0.00000000000E+00 0. -1.
         -2   -1    0    0    0  501 -0.00000000000E+00 -0.00000000000E+00 -0.26327607282E+03  0.26327607282E+03  0.00000000000E+00 0.  1.
         25    2    1    2    0    0 -0.16104353321E+03 -0.26108282190E+03  0.51493209517E+02  0.33525851078E+03  0.12508980354E+03 0.  0.
          5    1    3    3  502    0 -0.93653322930E+01 -0.11059709325E+03  0.49354075497E+02  0.12154309381E+03  0.41800000000E+01 0. -1.
         -5    1    3    3    0  502 -0.15167820091E+03 -0.15048572865E+03  0.21391340198E+01  0.21371541697E+03  0.41800000000E+01 0. -1.
        -11    1    1    2    0    0  0.26808563713E+02  0.10265033176E+03 -0.16172163668E+00  0.10609342983E+03  0.00000000000E+00 0.  1.
         11    1    1    2    0    0  0.13423496949E+03  0.15843249013E+03  0.89645771157E+02  0.22617746407E+03  0.00000000000E+00 0. -1.
</event>
<event>
 7    1  0.2719869E-009  0.1132972E+03  0.7561462E-02  0.1254583E+00
          1   -1    0    0  501    0  0.00000000000E+00  0.00000000000E+00  0.92187915795E+02  0.92187915795E+02  0.00000000000E+00 0. -1.
         -1   -1    0    0    0  501 -0.00000000000E+00 -0.00000000000E+00 -0.16504277412E+03  0.16504277412E+03  0.00000000000E+00 0.  1.
         25    2    1    2    0    0  0.18478546429E+02  0.52379960772E+01  0.14081197627E+00  0.12654975375E+03  0.12508368025E+03 0.  0.
          5    1    3    3  502    0 -0.43840609754E+02 -0.22975746194E+02 -0.22279079113E+02  0.54440001312E+02  0.41800000000E+01 0.  1.
         -5    1    3    3    0  502  0.62319156182E+02  0.28213742271E+02  0.22419891089E+02  0.72109752438E+02  0.41800000000E+01 0.  1.
        -11    1    1    2    0    0  0.36788894282E+02  0.25861611076E+02 -0.29535506177E+02  0.53801410716E+02  0.00000000000E+00 0.  1.
         11    1    1    2    0    0 -0.55267440710E+02 -0.31099607153E+02 -0.43460164127E+02  0.76879525452E+02  0.00000000000E+00 0. -1.
</event>
<event>
 7    1  0.2719869E-009  0.1314330E+03  0.7561462E-02  0.1225345E+00
         -1   -1    0    0    0  501 -0.00000000000E+00  0.00000000000E+00  0.63060813260E+02  0.63060813260E+02  0.00000000000E+00 0.  1.
          1   -1    0    0  501    0  0.00000000000E+00 -0.00000000000E+00 -0.27458885806E+03  0.27458885806E+03  0.00000000000E+00 0. -1.
         25    2    1    2    0    0 -0.34257276026E+02  0.65640973270E+02 -0.11185325943E+03  0.18341832540E+03  0.12509529214E+03 0.  0.
          5    1    3    3  502    0  0.44676711445E+02  0.39258912941E+01 -0.32722893352E+02  0.55674781700E+02  0.41800000000E+01 0.  1.
         -5    1    3    3    0  502 -0.78933987471E+02  0.61715081976E+02 -0.79130366078E+02  0.12774354370E+03  0.41800000000E+01 0.  1.
        -11    1    1    2    0    0  0.63341709675E+02 -0.61273904703E+02 -0.78112676454E+02  0.11776355041E+03  0.00000000000E+00 0.  1.
         11    1    1    2    0    0 -0.29084433650E+02 -0.43670685667E+01 -0.21562108918E+02  0.36467795513E+02  0.00000000000E+00 0. -1.
</event>
<event>
 7    1  0.3340889E-009  0.1187870E+03  0.7561462E-02  0.1245112E+00
         -1   -1    0    0    0  501 -0.00000000000E+00  0.00000000000E+00  0.20318557986E+02  0.20318557986E+02  0.00000000000E+00 0.  1.
          1   -1    0    0  501    0  0.00000000000E+00 -0.00000000000E+00 -0.88479114856E+03  0.88479114856E+03  0.00000000000E+00 0. -1.
         25    2    1    2    0    0  0.12103204866E+02 -0.64272442972E+02 -0.62513556037E+03  0.64087369870E+03  0.12508874589E+03 0.  0.
          5    1    3    3  502    0 -0.52044523085E+02 -0.24738031882E+02 -0.38052053696E+03  0.38488174035E+03  0.41800000000E+01 0. -1.
         -5    1    3    3    0  502  0.64147727951E+02 -0.39534411091E+02 -0.24461502341E+03  0.25599195835E+03  0.41800000000E+01 0. -1.
        -11    1    1    2    0    0 -0.35867215490E+02  0.66068751489E-01 -0.41309404751E+02  0.54707663384E+02  0.00000000000E+00 0.  1.
         11    1    1    2    0    0  0.23764010625E+02  0.64206374221E+02 -0.19802762545E+03  0.20952834446E+03  0.00000000000E+00 0. -1.
</event>
<event>
 7    1  0.2719869E-009  0.1350047E+03  0.7561462E-02  0.1220213E+00
          1   -1    0    0  501    0  0.00000000000E+00  0.00000000000E+00  0.45669304817E+03  0.45669304817E+03  0.00000000000E+00 0. -1.
         -1   -1    0    0    0  501 -0.00000000000E+00 -0.00000000000E+00 -0.54796118176E+02  0.54796118176E+02  0.00000000000E+00 0.  1.
         25    2    1    2    0    0  0.96263870890E+02  0.40708230837E+02  0.13150061599E+03  0.20943684209E+03  0.12508991135E+03 0.  0.
          5    1    3    3  502    0  0.70563161738E+01  0.45246110454E+02  0.10739300635E+03  0.11682350929E+03  0.41800000000E+01 0. -1.
         -5    1    3    3    0  502  0.89207554716E+02 -0.45378796169E+01  0.24107609636E+02  0.92613332800E+02  0.41800000000E+01 0. -1.
        -11    1    1    2    0    0 -0.10531077812E+03 -0.54138809412E+02  0.23661709840E+03  0.26459218040E+03  0.00000000000E+00 0. -1.
         11    1    1    2    0    0  0.90469072252E+01  0.13430578575E+02  0.33779215605E+02  0.37460143861E+02  0.00000000000E+00 0.  1.
</event>
<event>
 7    1  0.3536469E-009  0.1273939E+03  0.7561462E-02  0.1231375E+00
         -1   -1    0    0    0  501 -0.00000000000E+00  0.00000000000E+00  0.74533756265E+02  0.74533756265E+02  0.00000000000E+00 0.  1.
          1   -1    0    0  501    0  0.00000000000E+00 -0.00000000000E+00 -0.30975867888E+03  0.30975867888E+03  0.00000000000E+00 0. -1.
         25    2    1    2    0    0 -0.92314505173E+02 -0.10904416835E+02 -0.19125548562E+03  0.24671201037E+03  0.12508909269E+03 0.  0.
          5    1    3    3  502    0 -0.74291929301E+02  0.33906530343E+02 -0.46529336565E+02  0.94081853300E+02  0.41800000000E+01 0.  1.
         -5    1    3    3    0  502 -0.18022575871E+02 -0.44810947178E+02 -0.14472614905E+03  0.15263015707E+03  0.41800000000E+01 0.  1.
        -11    1    1    2    0    0  0.32075436401E+02  0.45043535257E+02  0.48275227841E+00  0.55299066344E+02  0.00000000000E+00 0.  1.
         11    1    1    2    0    0  0.60239068772E+02 -0.34139118422E+02 -0.44452189271E+02  0.82281358424E+02  0.00000000000E+00 0. -1.
</event>
<event>
 7    1  0.2719869E-009  0.9968172E+02  0.7561462E-02  0.1280967E+00
         -1   -1    0    0    0  501 -0.00000000000E+00  0.00000000000E+00  0.28379900787E+02  0.28379900787E+02  0.00000000000E+00 0.  1.
          1   -1    0    0  501    0  0.00000000000E+00 -0.00000000000E+00 -0.64911605281E+03  0.64911605281E+03  0.00000000000E+00 0. -1.
         25    2    1    2    0    0  0.63393935121E+02 -0.29071869880E+02 -0.41103777854E+03  0.43527445657E+03  0.12509129676E+03 0.  0.
          5    1    3    3  502    0  0.88597547517E+02 -0.13881551503E+02 -0.16851547858E+03  0.19093758619E+03  0.41800000000E+01 0.  1.
         -5    1    3    3    0  502 -0.25203612396E+02 -0.15190318377E+02 -0.24252229995E+03  0.24433687038E+03  0.41800000000E+01 0.  1.
        -11    1    1    2    0    0 -0.42288803338E+02 -0.19622951215E+01 -0.16539803226E+02  0.45450616945E+02  0.00000000000E+00 0.  1.
         11    1    1    2    0    0 -0.21105131783E+02  0.31034165002E+02 -0.19315857026E+03  0.19677088009E+03  0.00000000000E+00 0. -1.
</event>
<event>
 7    1  0.2719869E-009  0.9583497E+02  0.7561462E-02  0.1289307E+00
         -1   -1    0    0    0  501 -0.00000000000E+00  0.00000000000E+00  0.23102117464E+02  0.23102117464E+02  0.00000000000E+00 0.  1.
          1   -1    0    0  501    0  0.00000000000E+00 -0.00000000000E+00 -0.74502056039E+03  0.74502056039E+03  0.00000000000E+00 0. -1.
         25    2    1    2    0    0 -0.11952981118E+02 -0.52855835416E+01 -0.59730727014E+03  0.61040509462E+03  0.12509034106E+03 0.  0.
          5    1    3    3  502    0  0.24352140227E+02  0.43905799066E+02 -0.13574789723E+03  0.14479540713E+03  0.41800000000E+01 0.  1.
         -5    1    3    3    0  502 -0.36305121344E+02 -0.49191382608E+02 -0.46155937291E+03  0.46560968748E+03  0.41800000000E+01 0.  1.
        -11    1    1    2    0    0  0.10949772301E+02  0.41937212948E+02 -0.21703899046E+02  0.48473565756E+02  0.00000000000E+00 0.  1.
         11    1    1    2    0    0  0.10032088162E+01 -0.36651629406E+02 -0.10290727374E+03  0.10924401748E+03  0.00000000000E+00 0. -1.
</event>
<event>
 7    1  0.2719869E-009  0.8614148E+02  0.7561462E-02  0.1312474E+00
          1   -1    0    0  501    0  0.00000000000E+00  0.00000000000E+00  0.97899102408E+02  0.97899102408E+02  0.00000000000E+00 0. -1.
         -1   -1    0    0    0  501 -0.00000000000E+00 -0.00000000000E+00 -0.15077612874E+03  0.15077612874E+03  0.00000000000E+00 0.  1.
         25    2    1    2    0    0  0.34906136565E+01  0.52823166750E+02 -0.47036327145E+02  0.14374966928E+03  0.12509628299E+03 0.  0.
          5    1    3    3  502    0 -0.18930650194E+02  0.37198993820E+02 -0.86168823712E+02  0.95836700892E+02  0.41800000000E+01 0.  1.
         -5    1    3    3    0  502  0.22421263851E+02  0.15624172931E+02  0.39132496568E+02  0.47912968391E+02  0.41800000000E+01 0.  1.
        -11    1    1    2    0    0  0.30024314266E+02  0.98658478105E+01  0.77789514832E+01  0.32546988898E+02  0.00000000000E+00 0. -1.
         11    1    1    2    0    0 -0.33514927923E+02 -0.62689014561E+02 -0.13619650671E+02  0.72378572967E+02  0.00000000000E+00 0.  1.
</event>
<event>
 7    1  0.2719869E-009  0.1320566E+03  0.7561462E-02  0.1224436E+00
         -1   -1    0    0    0  501 -0.00000000000E+00  0.00000000000E+00  0.86014190341E+03  0.86014190341E+03  0.00000000000E+00 0.  1.
          1   -1    0    0  501    0  0.00000000000E+00 -0.00000000000E+00 -0.22093433701E+02  0.22093433701E+02  0.00000000000E+00 0. -1.
         25    2    1    2    0    0  0.82733241109E+02  0.96968960528E+01  0.41546597553E+03  0.44181224261E+03  0.12508901600E+03 0.  0.
          5    1    3    3  502    0 -0.14058181303E+02  0.40297248822E+02  0.73740954325E+02  0.85303584151E+02  0.41800000000E+01 0. -1.
         -5    1    3    3    0  502  0.96791422412E+02 -0.30600352770E+02  0.34172502120E+03  0.35650865846E+03  0.41800000000E+01 0. -1.
        -11    1    1    2    0    0 -0.91056016535E+02  0.16149686432E+02  0.26883216722E+03  0.28429341296E+03  0.00000000000E+00 0. -1.
         11    1    1    2    0    0  0.83227754262E+01 -0.25846582485E+02  0.15375032697E+03  0.15612968155E+03  0.00000000000E+00 0.  1.
</event>
<event>
 7    1  0.2719869E-009  0.2377743E+03  0.7561462E-02  0.1121284E+00
         -2   -1    0    0    0  501 -0.00000000000E+00  0.00000000000E+00  0.27017385888E+03  0.27017385888E+03  0.00000000000E+00 0.  1.
          2   -1    0    0  501    0  0.00000000000E+00 -0.00000000000E+00 -0.30063504329E+03  0.30063504329E+03  0.00000000000E+00 0. -1.
         25    2    1    2    0    0  0.21358178719E+03 -0.24303536881E+01 -0.16999162436E+03  0.30027767155E+03  0.12508573555E+03 0.  0.
          5    1    3    3  502    0  0.22808596689E+03  0.91888625666E+01 -0.15976513295E+03  0.27865752025E+03  0.41800000000E+01 0. -1.
         -5    1    3    3    0  502 -0.14504179705E+02 -0.11619216255E+02 -0.10226491415E+02  0.21620151293E+02  0.41800000000E+01 0. -1.
        -11    1    1    2    0    0 -0.20457978194E+03  0.22872298220E+02  0.13861998394E+03  0.24817640732E+03  0.00000000000E+00 0. -1.
         11    1    1    2    0    0 -0.90020052463E+01 -0.20441944532E+02  0.91045602669E+00  0.22354823302E+02  0.00000000000E+00 0.  1.
</event>
<event>
 7    1  0.2719869E-009  0.1109443E+03  0.7561462E-02  0.1258831E+00
          1   -1    0    0  501    0  0.00000000000E+00  0.00000000000E+00  0.21394069967E+03  0.21394069967E+03  0.00000000000E+00 0. -1.
         -1   -1    0    0    0  501 -0.00000000000E+00 -0.00000000000E+00 -0.63476366774E+02  0.63476366774E+02  0.00000000000E+00 0.  1.
         25    2    1    2    0    0 -0.32501948141E+02  0.24483355911E+02  0.97834185935E+02  0.16393291658E+03  0.12508661739E+03 0.  0.
          5    1    3    3  502    0 -0.57369800571E+02  0.60431838178E+02  0.82735314606E+02  0.11749853517E+03  0.41800000000E+01 0. -1.
         -5    1    3    3    0  502  0.24867852429E+02 -0.35948482267E+02  0.15098871328E+02  0.46434381412E+02  0.41800000000E+01 0. -1.
        -11    1    1    2    0    0 -0.12331667263E+02 -0.43965959526E+02  0.62305736899E+01  0.46085742513E+02  0.00000000000E+00 0.  1.
         11    1    1    2    0    0  0.44833615404E+02  0.19482603615E+02  0.46399573269E+02  0.67398407351E+02  0.00000000000E+00 0. -1.
</event>
<event>
 7    1  0.2719869E-009  0.1242571E+03  0.7561462E-02  0.1236235E+00
         -1   -1    0    0    0  501 -0.00000000000E+00  0.00000000000E+00  0.74159466838E+03  0.74159466838E+03  0.00000000000E+00 0.  1.
          1   -1    0    0  501    0  0.00000000000E+00 -0.00000000000E+00 -0.36872907633E+02  0.36872907633E+02  0.00000000000E+00 0. -1.
         25    2    1    2    0    0  0.54999944184E+02 -0.85082984816E+02  0.54142967786E+03  0.56485111837E+03  0.12508629697E+03 0.  0.
          5    1    3    3  502    0  0.39231410096E+02 -0.11028293315E+03  0.30835216855E+03  0.32984839113E+03  0.41800000000E+01 0.  1.
         -5    1    3    3    0  502  0.15768534088E+02  0.25199948335E+02  0.23307750931E+03  0.23500272724E+03  0.41800000000E+01 0.  1.
        -11    1    1    2    0    0 -0.13177555959E+02  0.23098337502E+02 -0.71128019202E+01  0.27527679299E+02  0.00000000000E+00 0. -1.
         11    1    1    2    0    0 -0.41822388225E+02  0.61984647314E+02  0.17040488481E+03  0.18608877835E+03  0.00000000000E+00 0.  1.
</event>
<event>
 7    1  0.2719869E-009  0.1277034E+03  0.7561462E-02  0.1230904E+00
          2   -1    0    0  501    0  0.00000000000E+00  0.00000000000E+00  0.45640131900E+03  0.45640131900E+03  0.00000000000E+00 0. -1.
         -2   -1    0    0    0  501 -0.00000000000E+00 -0.00000000000E+00 -0.40554438486E+02  0.40554438486E+02  0.00000000000E+00 0.  1.
         25    2    1    2    0    0  0.68897258966E+02 -0.29499906415E+02  0.28541664906E+03  0.32051054466E+03  0.12508904390E+03 0.  0.
          5    1    3    3  502    0  0.82890878633E+02 -0.62827830614E+02  0.24460354818E+03  0.26583190599E+03  0.41800000000E+01 0.  1.
         -5    1    3    3    0  502 -0.13993619667E+02  0.33327924199E+02  0.40813100882E+02  0.54678638666E+02  0.41800000000E+01 0.  1.
        -11    1    1    2    0    0 -0.17430779205E+02  0.54850534158E+02  0.87746824696E+02  0.10493768820E+03  0.00000000000E+00 0. -1.
         11    1    1    2    0    0 -0.51466479761E+02 -0.25350627743E+02  0.42683406756E+02  0.71507524627E+02  0.00000000000E+00 0.  1.
</event>
<event>
 7    1  0.2719869E-009  0.9421457E+02  0.7561462E-02  0.1292955E+00
          1   -1    0    0  501    0  0.00000000000E+00  0.00000000000E+00  0.39970227673E+03  0.39970227673E+03  0.00000000000E+00 0. -1.
         -1   -1    0    0    0  501 -0.00000000000E+00 -0.00000000000E+00 -0.38501459556E+02  0.38501459556E+02  0.00000000000E+00 0.  1.
         25    2    1    2    0    0 -0.11297620183E+02 -0.24138170627E+02  0.29097339178E+03  0.31784188046E+03  0.12509060215E+03 0.  0.
          5    1    3    3  502    0  0.36608835036E+02 -0.31364472464E+02  0.24883539653E+03  0.25349647710E+03  0.41800000000E+01 0. -1.
         -5    1    3    3    0  502 -0.47906455220E+02  0.72263018364E+01  0.42137995253E+02  0.64345403363E+02  0.41800000000E+01 0. -1.
        -11    1    1    2    0    0 -0.77347973588E+01  0.54789646555E+02  0.62480445354E+02  0.83459801770E+02  0.00000000000E+00 0. -1.
         11    1    1    2    0    0  0.19032417542E+02 -0.30651475927E+02  0.77469800430E+01  0.36902054060E+02  0.00000000000E+00 0.  1.
</event>
<event>
 7    1  0.2719869E-009  0.2533668E+03  0.7561462E-02  0.1111195E+00
         -2   -1    0    0    0  501 -0.00000000000E+00  0.00000000000E+00  0.10509137294E+03  0.10509137294E+03  0.00000000000E+00 0.  1.
          2   -1    0    0  501    0  0.00000000000E+00 -0.00000000000E+00 -0.65388892461E+03  0.65388892461E+03  0.00000000000E+00 0. -1.
         25    2    1    2    0    0  0.23295738467E+03 -0.26878345278E+02 -0.21601134397E+03  0.34248249520E+03  0.12506706312E+03 0.  0.
          5    1    3    3  502    0  0.55998139934E+01  0.24450536731E+02 -0.11571362197E+01  0.25455805378E+02  0.41800000000E+01 0.  1.
         -5    1    3    3    0  502  0.22735757068E+03 -0.51328882009E+02 -0.21485420775E+03  0.31702668982E+03  0.41800000000E+01 0.  1.
        -11    1    1    2    0    0 -0.17065449248E+03  0.55735601538E+02 -0.21435426326E+03  0.27960179409E+03  0.00000000000E+00 0. -1.
         11    1    1    2    0    0 -0.62302892190E+02 -0.28857256260E+02 -0.11843194444E+03  0.13689600826E+03  0.00000000000E+00 0.  1.
</event>
<event>
 7    1  0.2719869E-009  0.1570906E+03  0.7561462E-02  0.1192021E+00
         -2   -1    0    0    0  501 -0.00000000000E+00  0.00000000000E+00  0.59372964506E+02  0.59372964506E+02  0.00000000000E+00 0. -1.
          2   -1    0    0  501    0  0.00000000000E+00 -0.00000000000E+00 -0.46938582430E+03  0.46938582430E+03  0.00000000000E+00 0.  1.
         25    2    1    2    0    0 -0.17171776357E+02 -0.12529619796E+03 -0.19692836095E+03  0.26537197384E+03  0.12508995974E+03 0.  0.
          5    1    3    3  502    0  0.20365216288E+01 -0.14042339011E+03 -0.12075674263E+03  0.18526343190E+03  0.41800000000E+01 0.  1.
         -5    1    3    3    0  502 -0.19208297985E+02  0.15127192148E+02 -0.76171618319E+02  0.80108541936E+02  0.41800000000E+01 0.  1.
        -11    1    1    2    0    0  0.47149159459E+02  0.54927284287E+02 -0.67716823871E+02  0.99124255518E+02  0.00000000000E+00 0. -1.
         11    1    1    2    0    0 -0.29977383102E+02  0.70368913675E+02 -0.14536767498E+03  0.16426255945E+03  0.00000000000E+00 0.  1.
</event>
<event>
 7    1  0.2719869E-009  0.1070343E+03  0.7561462E-02  0.1266163E+00
          2   -1    0    0  501    0  0.00000000000E+00  0.00000000000E+00  0.36482735787E+03  0.36482735787E+03  0.00000000000E+00 0.  1.
         -2   -1    0    0    0  501 -0.00000000000E+00 -0.00000000000E+00 -0.39558870370E+02  0.39558870370E+02  0.00000000000E+00 0. -1.
         25    2    1    2    0    0 -0.26988260408E+02 -0.24318440395E+02  0.12052986480E+03  0.17746541397E+03  0.12508705810E+03 0.  0.
          5    1    3    3  502    0 -0.25547442647E+02  0.44022890397E+02  0.87775428220E+02  0.10155139046E+03  0.41800000000E+01 0.  1.
         -5    1    3    3    0  502 -0.14408177611E+01 -0.68341330792E+02  0.32754436577E+02  0.75914023512E+02  0.41800000000E+01 0.  1.
        -11    1    1    2    0    0  0.58882530297E+02  0.20701126325E+02  0.16094157099E+03  0.17262061951E+03  0.00000000000E+00 0.  1.
         11    1    1    2    0    0 -0.31894269889E+02  0.36173140703E+01  0.43797051711E+02  0.54300194764E+02  0.00000000000E+00 0. -1.
</event>
<event>
 7    1  0.2719869E-009  0.1073300E+03  0.7561462E-02  0.1265596E+00
         -2   -1    0    0    0  501 -0.00000000000E+00  0.00000000000E+00  0.41626729325E+02  0.41626729325E+02  0.00000000000E+00 0.  1.
          2   -1    0    0  501    0  0.00000000000E+00 -0.00000000000E+00 -0.47401661277E+03  0.47401661277E+03  0.00000000000E+00 0. -1.
         25    2    1    2    0    0 -0.25736041951E+02 -0.56278354796E+02 -0.35320955545E+03  0.37978101430E+03  0.12508809572E+03 0.  0.
          5    1    3    3  502    0  0.13129493029E+02 -0.63090702467E+02 -0.32435182356E+03  0.33071800400E+03  0.41800000000E+01 0.  1.
         -5    1    3    3    0  502 -0.38865534980E+02  0.68123476703E+01 -0.28857731889E+02  0.49063010302E+02  0.41800000000E+01 0.  1.
        -11    1    1    2    0    0  0.44917793748E+02 -0.59274727508E+01 -0.32257029306E+02  0.55617075328E+02  0.00000000000E+00 0. -1.
         11    1    1    2    0    0 -0.19181751797E+02  0.62205827547E+02 -0.46923298688E+02  0.80245252461E+02  0.00000000000E+00 0.  1.
</event>
<event>
 7    1  0.2719869E-009  0.9696764E+02  0.7561462E-02  0.1286805E+00
         -1   -1    0    0    0  501 -0.00000000000E+00  0.00000000000E+00  0.53437384325E+03  0.53437384325E+03  0.00000000000E+00 0.  1.
          1   -1    0    0  501    0  0.00000000000E+00 -0.00000000000E+00 -0.34767710627E+02  0.34767710627E+02  0.00000000000E+00 0. -1.
         25    2    1    2    0    0 -0.13063397808E+01  0.70402289788E+00  0.43876255929E+03  0.45625171409E+03  0.12510332132E+03 0.  0.
          5    1    3    3  502    0 -0.62599295815E+02  0.46016697021E+01  0.24488540782E+03  0.25283627620E+03  0.41800000000E+01 0. -1.
         -5    1    3    3    0  502  0.61292956034E+02 -0.38976468042E+01  0.19387715147E+03  0.20341543789E+03  0.41800000000E+01 0. -1.
        -11    1    1    2    0    0  0.32651346193E+01 -0.34982632521E+02  0.69150765969E+02  0.77564644757E+02  0.00000000000E+00 0.  1.
         11    1    1    2    0    0 -0.19587948385E+01  0.34278609623E+02 -0.83071926279E+01  0.35325195035E+02  0.00000000000E+00 0. -1.
</event>
<event>
 7    1  0.2719869E-009  0.1045532E+03  0.7561462E-02  0.1271002E+00
          1   -1    0    0  501    0  0.00000000000E+00  0.00000000000E+00  0.30500575265E+03  0.30500575265E+03  0.00000000000E+00 0. -1.
         -1   -1    0    0    0  501 -0.00000000000E+00 -0.00000000000E+00 -0.76627679657E+02  0.76627679657E+02  0.00000000000E+00 0.  1.
         25    2    1    2    0    0 -0.56274857861E+02 -0.19037526591E+02  0.23633546097E+03  0.27391910828E+03  0.12509172925E+03 0.  0.
          5    1    3    3  502    0 -0.40387913819E+02  0.39770327221E+02  0.43282428039E+02  0.71440209175E+02  0.41800000000E+01 0.  1.
         -5    1    3    3    0  502 -0.15886944041E+02 -0.58807853812E+02  0.19305303293E+03  0.20247889911E+03  0.41800000000E+01 0.  1.
        -11    1    1    2    0    0  0.55629684373E+00  0.33613128367E+02 -0.30955393434E+02  0.45698886720E+02  0.00000000000E+00 0.  1.
         11    1    1    2    0    0  0.55718561017E+02 -0.14575601776E+02  0.22998005456E+02  0.62015437303E+02  0.00000000000E+00 0. -1.
</event>
<event>
 7    1  0.2719869E-009  0.2450174E+03  0.7561462E-02  0.1116495E+00
          1   -1    0    0  501    0  0.00000000000E+00  0.00000000000E+00  0.60612034676E+03  0.60612034676E+03  0.00000000000E+00 0. -1.
         -1   -1    0    0    0  501 -0.00000000000E+00 -0.00000000000E+00 -0.16071646014E+03  0.16071646014E+03  0.00000000000E+00 0.  1.
         25    2    1    2    0    0 -0.19901855239E+03 -0.10617402531E+03 -0.10450897457E+01  0.25793313210E+03  0.12508837107E+03 0.  0.
          5    1    3    3  502    0 -0.13399897048E+03 -0.12601515420E+03 -0.25112822114E+02  0.18569779055E+03  0.41800000000E+01 0.  1.
         -5    1    3    3    0  502 -0.65019581909E+02  0.19841128899E+02  0.24067732368E+02  0.72235341551E+02  0.41800000000E+01 0.  1.
        -11    1    1    2    0    0  0.39678400372E+02  0.60191178726E+02  0.19292276308E+03  0.20595277606E+03  0.00000000000E+00 0. -1.
         11    1    1    2    0    0  0.15934015202E+03  0.45982846580E+02  0.25352621329E+03  0.30295089874E+03  0.00000000000E+00 0.  1.
</event>
<event>
 7    1  0.2719869E-009  0.1195185E+03  0.7561462E-02  0.1243893E+00
         -2   -1    0    0    0  501 -0.00000000000E+00  0.00000000000E+00  0.12567543837E+03  0.12567543837E+03  0.00000000000E+00 0.  1.
          2   -1    0    0  501    0  0.00000000000E+00 -0.00000000000E+00 -0.17024166662E+03  0.17024166662E+03  0.00000000000E+00 0. -1.
         25    2    1    2    0    0  0.65076619252E+02 -0.48834386307E+02  0.30794355211E+02  0.15237189044E+03  0.12509651084E+03 0.  0.
          5    1    3    3  502    0  0.32724588179E+02  0.32966362723E+02 -0.19957458209E+02  0.50729205404E+02  0.41800000000E+01 0. -1.
         -5    1    3    3    0  502  0.32352031073E+02 -0.81800749030E+02  0.50751813420E+02  0.10164268504E+03  0.41800000000E+01 0. -1.
        -11    1    1    2    0    0 -0.67982977758E+02  0.14039858454E+02 -0.10944719790E+02  0.70275100722E+02  0.00000000000E+00 0. -1.
         11    1    1    2    0    0  0.29063585058E+01  0.34794527853E+02 -0.64415863669E+02  0.73270113829E+02  0.00000000000E+00 0.  1.
</event>
<event>
 7    1  0.2821373E-009  0.1130240E+03  0.7561462E-02  0.1255070E+00
         -1   -1    0    0    0  501 -0.00000000000E+00  0.00000000000E+00  0.27222660968E+02  0.27222660968E+02  0.00000000000E+00 0.  1.
          1   -1    0    0  501    0  0.00000000000E+00 -0.00000000000E+00 -0.59723647051E+03  0.59723647051E+03  0.00000000000E+00 0. -1.
         25    2    1    2    0    0 -0.64219137663E+02  0.17051467247E+02 -0.29553034991E+03  0.32772135969E+03  0.12509297224E+03 0.  0.
          5    1    3    3  502    0  0.35589786290E+02 -0.11303549852E+02 -0.70554567410E+02  0.79936365378E+02  0.41800000000E+01 0.  1.
         -5    1    3    3    0  502 -0.99808923953E+02  0.28355017099E+02 -0.22497578250E+03  0.24778499431E+03  0.41800000000E+01 0.  1.
        -11    1    1    2    0    0  0.25586044304E+02  0.18937152373E+02 -0.21761469593E+02  0.38559343381E+02  0.00000000000E+00 0.  1.
         11    1    1    2    0    0  0.38633093359E+02 -0.35988619620E+02 -0.25272199004E+03  0.25817842840E+03  0.00000000000E+00 0. -1.
</event>
<event>
 7    1  0.2719869E-009  0.9612629E+02  0.7561462E-02  0.1288659E+00
          1   -1    0    0  501    0  0.00000000000E+00  0.00000000000E+00  0.86965799562E+03  0.86965799562E+03  0.00000000000E+00 0. -1.
         -1   -1    0    0    0  501 -0.00000000000E+00 -0.00000000000E+00 -0.20189926150E+02  0.20189926150E+02  0.00000000000E+00 0.  1.
         25    2    1    2    0    0  0.55803368713E+02 -0.43949618585E+02  0.56786362404E+03  0.58580086304E+03  0.12509184903E+03 0.  0.
          5    1    3    3  502    0  0.33940088923E+02  0.24379656333E+02  0.41238022148E+03  0.41451322867E+03  0.41800000000E+01 0. -1.
         -5    1    3    3    0  502  0.21863279790E+02 -0.68329274918E+02  0.15548340256E+03  0.17128763437E+03  0.41800000000E+01 0. -1.
        -11    1    1    2    0    0 -0.18929063285E+02 -0.24909147496E+01  0.31523866000E+01  0.19350752812E+02  0.00000000000E+00 0.  1.
         11    1    1    2    0    0 -0.36874305428E+02  0.46440533335E+02  0.27845205883E+03  0.28469630592E+03  0.00000000000E+00 0. -1.
</event>
<event>
 7    1  0.2719869E-009  0.1323173E+03  0.7561462E-02  0.1224057E+00
          2   -1    0    0  501    0  0.00000000000E+00  0.00000000000E+00  0.31273658987E+03  0.31273658987E+03  0.00000000000E+00 0.  1.
         -2   -1    0    0    0  501 -0.00000000000E+00 -0.00000000000E+00 -0.66340052262E+02  0.66340052262E+02  0.00000000000E+00 0. -1.
         25    2    1    2    0    0  0.87552784417E+02 -0.37795395367E+01  0.10497816267E+03  0.18534196902E+03  0.12510577870E+03 0.  0.
          5    1    3    3  502    0  0.10970638282E+03 -0.34098031444E+02  0.79625832374E+02  0.13984245336E+03  0.41800000000E+01 0.  1.
         -5    1    3    3    0  502 -0.22153598405E+02  0.30318491907E+02  0.25352330299E+02  0.45499515661E+02  0.41800000000E+01 0.  1.
        -11    1    1    2    0    0 -0.74433871240E+02 -0.26407205036E+02  0.14005874098E+03  0.16079238972E+03  0.00000000000E+00 0.  1.
         11    1    1    2    0    0 -0.13118913177E+02  0.30186744572E+02  0.13596339531E+01  0.32942283395E+02  0.00000000000E+00 0. -1.
</event>
<event>
 7    1  0.2719869E-009  0.1816796E+03  0.7561462E-02  0.1166187E+00
         -1   -1    0    0    0  501 -0.00000000000E+00  0.00000000000E+00  0.14859859672E+03  0.14859859672E+03  0.00000000000E+00 0.  1.
          1   -1    0    0  501    0  0.00000000000E+00 -0.00000000000E+00 -0.40147693874E+03  0.40147693874E+03  0.00000000000E+00 0. -1.
         25    2    1    2    0    0  0.15314988358E+03 -0.82812229038E+02  0.18197427532E+02  0.21515417715E+03  0.12508965368E+03 0.  0.
          5    1    3    3  502    0  0.77066662963E+02 -0.82404341867E+02 -0.39458916097E+02  0.11960026989E+03  0.41800000000E+01 0.  1.
         -5    1    3    3    0  502  0.76083220618E+02 -0.40788717054E+00  0.57656343629E+02  0.95553907258E+02  0.41800000000E+01 0.  1.
        -11    1    1    2    0    0 -0.70649486203E+02  0.34098904516E+02 -0.47564768549E+02  0.91741443181E+02  0.00000000000E+00 0.  1.
         11    1    1    2    0    0 -0.82500397379E+02  0.48713324522E+02 -0.22351100100E+03  0.24317991513E+03  0.00000000000E+00 0. -1.
</event>
<event>
 7    1  0.2719869E-009  0.1158307E+03  0.7561462E-02  0.1250138E+00
         -2   -1    0    0    0  501 -0.00000000000E+00  0.00000000000E+00  0.43598626833E+02  0.43598626833E+02  0.00000000000E+00 0.  1.
          2   -1    0    0  501    0  0.00000000000E+00 -0.00000000000E+00 -0.59603362293E+03  0.59603362293E+03  0.00000000000E+00 0. -1.
         25    2    1    2    0    0  0.37169761696E+02 -0.10760975018E+03 -0.36696416805E+03  0.40406883045E+03  0.12508984607E+03 0.  0.
          5    1    3    3  502    0  0.38815303324E+01 -0.60660433405E+01 -0.23070080413E+03  0.23085102682E+03  0.41800000000E+01 0. -1.
         -5    1    3    3    0  502  0.33288231364E+02 -0.10154370684E+03 -0.13626336392E+03  0.17321780363E+03  0.41800000000E+01 0. -1.
        -11    1    1    2    0    0 -0.86597965145E+01  0.62021142560E+02 -0.16757563708E+03  0.17889440557E+03  0.00000000000E+00 0. -1.
         11    1    1    2    0    0 -0.28509965182E+02  0.45588607621E+02 -0.17895190968E+02  0.56669013748E+02  0.00000000000E+00 0.  1.
</event>
<event>
 7    1  0.2719869E-009  0.1022017E+03  0.7561462E-02  0.1275733E+00
          1   -1    0    0  501    0  0.00000000000E+00  0.00000000000E+00  0.50165906870E+03  0.50165906870E+03  0.00000000000E+00 0. -1.
         -1   -1    0    0    0  501 -0.00000000000E+00 -0.00000000000E+00 -0.23026908329E+02  0.23026908329E+02  0.00000000000E+00 0.  1.
         25    2    1    2    0    0  0.25422204393E+01  0.14988425996E+02  0.25602859590E+03  0.28535854312E+03  0.12509092857E+03 0.  0.
          5    1    3    3  502    0 -0.56933199516E+02  0.14125516570E+02  0.78509342310E+02  0.98092347589E+02  0.41800000000E+01 0. -1.
         -5    1    3    3    0  502  0.59475419955E+02  0.86290942664E+00  0.17751925359E+03  0.18726619553E+03  0.41800000000E+01 0. -1.
        -11    1    1    2    0    0 -0.60727897244E+01  0.35166972983E+02  0.11779989067E+03  0.12308699772E+03  0.00000000000E+00 0. -1.
         11    1    1    2    0    0  0.35305692850E+01 -0.50155398979E+02  0.10480367379E+03  0.11624043619E+03  0.00000000000E+00 0.  1.
</event>
<event>
 7    1  0.2719869E-009  0.1255101E+03  0.7561462E-02  0.1234274E+00
         -2   -1    0    0    0  501 -0.00000000000E+00  0.00000000000E+00  0.25442887496E+02  0.25442887496E+02  0.00000000000E+00 0. -1.
          2   -1    0    0  501    0  0.00000000000E+00 -0.00000000000E+00 -0.79506395075E+03  0.79506395075E+03  0.00000000000E+00 0.  1.
         25    2    1    2    0    0 -0.51478888564E+02  0.44049859807E+02 -0.24454757131E+03  0.28292167362E+03  0.12510272842E+03 0.  0.
          5    1    3    3  502    0  0.18330805504E+02 -0.29234044740E+02 -0.31032497020E+02  0.46595451212E+02  0.41800000000E+01 0. -1.
         -5    1    3    3    0  502 -0.69809694068E+02  0.73283904547E+02 -0.21351507429E+03  0.23632622241E+03  0.41800000000E+01 0. -1.
        -11    1    1    2    0    0  0.42142875221E+02 -0.73139763757E+02 -0.36648721222E+03  0.37608286813E+03  0.00000000000E+00 0.  1.
         11    1    1    2    0    0  0.93360133426E+01  0.29089903950E+02 -0.15858627972E+03  0.16150229649E+03  0.00000000000E+00 0. -1.
</event>
<event>
 7    1  0.2719869E-009  0.1416852E+03  0.7561462E-02  0.1211079E+00
         -2   -1    0    0    0  501 -0.00000000000E+00  0.00000000000E+00  0.85114618321E+02  0.85114618321E+02  0.00000000000E+00 0.  1.
          2   -1    0    0  501    0  0.00000000000E+00 -0.00000000000E+00 -0.30567467187E+03  0.30567467187E+03  0.00000000000E+00 0. -1.
         25    2    1    2    0    0 -0.11168623382E+03 -0.39642360810E+02 -0.12942035476E+03  0.21551171263E+03  0.12510131278E+03 0.  0.
          5    1    3    3  502    0 -0.31396060540E+02 -0.63518141608E+02 -0.10751308447E+03  0.12882857860E+03  0.41800000000E+01 0.  1.
         -5    1    3    3    0  502 -0.80290173283E+02  0.23875780798E+02 -0.21907270290E+02  0.86683134034E+02  0.41800000000E+01 0.  1.
        -11    1    1    2    0    0  0.33903192066E+02  0.37720366923E+02 -0.82701746164E+02  0.97014593395E+02  0.00000000000E+00 0. -1.
         11    1    1    2    0    0  0.77783041757E+02  0.19219938872E+01 -0.84379526200E+01  0.78262984161E+02  0.00000000000E+00 0.  1.
</event>
<event>
 7    1  0.2719869E-009  0.9390270E+02  0.7561462E-02  0.1293667E+00
          2   -1    0    0  501    0  0.00000000000E+00  0.00000000000E+00  0.24362789341E+03  0.24362789341E+03  0.00000000000E+00 0. -1.
         -2   -1    0    0    0  501 -0.00000000000E+00 -0.00000000000E+00 -0.19944141814E+03  0.19944141814E+03  0.00000000000E+00 0.  1.
         25    2    1    2    0    0  0.33033486622E+02  0.54681921970E+02  0.20534092109E+03  0.24878735684E+03  0.12509568826E+03 0.  0.
          5    1    3    3  502    0 -0.22846106182E+02  0.12833570481E+02  0.16687067476E+03  0.16896727374E+03  0.41800000000E+01 0.  1.
         -5    1    3    3    0  502  0.55879592804E+02  0.41848351489E+02  0.38470246327E+02  0.79820083104E+02  0.41800000000E+01 0.  1.
        -11    1    1    2    0    0 -0.10716436680E+02 -0.65612811449E+02 -0.58158642555E+02  0.88330689713E+02  0.00000000000E+00 0. -1.
         11    1    1    2    0    0 -0.22317049942E+02  0.10930889479E+02 -0.10299580327E+03  0.10595126500E+03  0.00000000000E+00 0.  1.
</event>
<event>
 7    1  0.2719869E-009  0.2993147E+03  0.7561462E-02  0.1085584E+00
          2   -1    0    0  501    0  0.00000000000E+00  0.00000000000E+00  0.22989990168E+03  0.22989990168E+03  0.00000000000E+00 0. -1.
         -2   -1    0    0    0  501 -0.00000000000E+00 -0.00000000000E+00 -0.45431901226E+03  0.45431901226E+03  0.00000000000E+00 0.  1.
         25    2    1    2    0    0 -0.24586000043E+03 -0.17001681373E+03 -0.51540748415E+02  0.32811200420E+03  0.12509269278E+03 0.  0.
          5    1    3    3  502    0 -0.49643475845E+02 -0.28069394084E+02 -0.63690348715E+02  0.85593799411E+02  0.41800000000E+01 0. -1.
         -5    1    3    3    0  502 -0.19621652459E+03 -0.14194741965E+03  0.12149600300E+02  0.24251820479E+03  0.41800000000E+01 0. -1.
        -11    1    1    2    0    0  0.10839179787E+03  0.66721258691E+02 -0.12315697671E+03  0.17711055621E+03  0.00000000000E+00 0.  1.
         11    1    1    2    0    0  0.13746820256E+03  0.10329555504E+03 -0.49721385459E+02  0.17899635353E+03  0.00000000000E+00 0. -1.
</event>
<event>
 7    1  0.2719869E-009  0.1364340E+03  0.7561462E-02  0.1218209E+00
         -2   -1    0    0    0  501 -0.00000000000E+00  0.00000000000E+00  0.50052154588E+02  0.50052154588E+02  0.00000000000E+00 0.  1.
          2   -1    0    0  501    0  0.00000000000E+00 -0.00000000000E+00 -0.45000465103E+03  0.45000465103E+03  0.00000000000E+00 0. -1.
         25    2    1    2    0    0 -0.80187831078E+02  0.55032168078E+02 -0.27055731602E+03  0.31354107807E+03  0.12509244026E+03 0.  0.
          5    1    3    3  502    0 -0.56901738090E+02  0.90505579360E+02 -0.14001858618E+03  0.17621505205E+03  0.41800000000E+01 0.  1.
         -5    1    3    3    0  502 -0.23286092988E+02 -0.35473411282E+02 -0.13053872984E+03  0.13732602602E+03  0.41800000000E+01 0.  1.
        -11    1    1    2    0    0  0.27797615827E+00  0.16193181387E+02  0.27781796491E+01  0.16432123306E+02  0.00000000000E+00 0.  1.
         11    1    1    2    0    0  0.79909854920E+02 -0.71225349465E+02 -0.13217336007E+03  0.17008360424E+03  0.00000000000E+00 0. -1.
</event>
<event>
 7    1  0.2719869E-009  0.1945940E+03  0.7561462E-02  0.1154382E+00
          4   -1    0    0  501    0  0.00000000000E+00  0.00000000000E+00  0.31221972844E+03  0.31221972844E+03  0.00000000000E+00 0. -1.
         -4   -1    0    0    0  501 -0.00000000000E+00 -0.00000000000E+00 -0.15139629805E+03  0.15139629805E+03  0.00000000000E+00 0.  1.
         25    2    1    2    0    0  0.17992503351E+03 -0.52097956727E+02  0.99622604180E+02  0.24629101691E+03  0.12508951582E+03 0.  0.
          5    1    3    3  502    0  0.66436161300E+02 -0.83525588516E+01  0.10485219114E+03  0.12447884621E+03  0.41800000000E+01 0.  1.
         -5    1    3    3    0  502  0.11348887220E+03 -0.43745397876E+02 -0.52295869597E+01  0.12181217069E+03  0.41800000000E+01 0.  1.
        -11    1    1    2    0    0 -0.15904520453E+03  0.17522316403E+02  0.72081507266E+02  0.17549402368E+03  0.00000000000E+00 0.  1.
         11    1    1    2    0    0 -0.20879828971E+02  0.34575640324E+02 -0.10880681054E+02  0.41830985906E+02  0.00000000000E+00 0. -1.
</event>
<event>
 7    1  0.2719869E-009  0.7840541E+02  0.7561462E-02  0.1333639E+00
         -2   -1    0    0    0  501 -0.00000000000E+00  0.00000000000E+00  0.18040766328E+02  0.18040766328E+02  0.00000000000E+00 0.  1.
          2   -1    0    0  501    0  0.00000000000E+00 -0.00000000000E+00 -0.16981325740E+04  0.16981325740E+04  0.00000000000E+00 0. -1.
         25    2    1    2    0    0 -0.31216885604E+02 -0.43408909290E+02 -0.15130801456E+04  0.15191829245E+04  0.12508558628E+03 0.  0.
          5    1    3    3  502    0 -0.10279771398E+02 -0.26108601291E+02 -0.14511800752E+04  0.14514573421E+04  0.41800000000E+01 0. -1.
         -5    1    3    3    0  502 -0.20937114206E+02 -0.17300308000E+02 -0.61900070352E+02  0.67725582447E+02  0.41800000000E+01 0. -1.
        -11    1    1    2    0    0 -0.15306426641E+01  0.62856502697E+02 -0.12721782460E+03  0.14190721509E+03  0.00000000000E+00 0. -1.
         11    1    1    2    0    0  0.32747528268E+02 -0.19447593407E+02 -0.39793837471E+02  0.55083200684E+02  0.00000000000E+00 0.  1.
</event>
<event>
 7    1  0.2993198E-009  0.1145788E+03  0.7561462E-02  0.1252318E+00
         -2   -1    0    0    0  501 -0.00000000000E+00  0.00000000000E+00  0.11756582988E+02  0.11756582988E+02  0.00000000000E+00 0.  1.
          2   -1    0    0  501    0  0.00000000000E+00 -0.00000000000E+00 -0.14315864906E+04  0.14315864906E+04  0.00000000000E+00 0. -1.
         25    2    1    2    0    0  0.44409648150E+02 -0.24318229612E+02 -0.10733755148E+04  0.10818255409E+04  0.12509161491E+03 0.  0.
          5    1    3    3  502    0  0.78541863157E+02 -0.46451824323E+02 -0.63327454968E+03  0.63982866763E+03  0.41800000000E+01 0.  1.
         -5    1    3    3    0  502 -0.34132215007E+02  0.22133594710E+02 -0.44010096511E+03  0.44199687330E+03  0.41800000000E+01 0.  1.
        -11    1    1    2    0    0 -0.25937161287E+01  0.48528842784E+02 -0.23607818427E+03  0.24102839051E+03  0.00000000000E+00 0. -1.
         11    1    1    2    0    0 -0.41815932021E+02 -0.24210613171E+02 -0.11037620859E+03  0.12048914218E+03  0.00000000000E+00 0.  1.
</event>
<event>
 7    1  0.2719869E-009  0.1265489E+03  0.7561462E-02  0.1232668E+00
         -2   -1    0    0    0  501 -0.00000000000E+00  0.00000000000E+00  0.31979152503E+03  0.31979152503E+03  0.00000000000E+00 0.  1.
          2   -1    0    0  501    0  0.00000000000E+00 -0.00000000000E+00 -0.49800918769E+03  0.49800918769E+03  0.00000000000E+00 0. -1.
         25    2    1    2    0    0 -0.39645361600E+02  0.87297009133E+02 -0.46986542191E+03  0.49559487092E+03  0.12509292100E+03 0.  0.
          5    1    3    3  502    0 -0.66014701715E+02  0.25952022269E+00 -0.21581595106E+03  0.22572550880E+03  0.41800000000E+01 0.  1.
         -5    1    3    3    0  502  0.26369340115E+02  0.87037488910E+02 -0.25404947085E+03  0.26986936212E+03  0.41800000000E+01 0.  1.
        -11    1    1    2    0    0  0.33655900415E+02 -0.76147820019E+02  0.29701214577E+03  0.30845976214E+03  0.00000000000E+00 0.  1.
         11    1    1    2    0    0  0.59894611853E+01 -0.11149189114E+02 -0.53643865205E+01  0.13746079657E+02  0.00000000000E+00 0. -1.
</event>
<event>
 7    1  0.2719869E-009  0.1196503E+03  0.7561462E-02  0.1243675E+00
          2   -1    0    0  501    0  0.00000000000E+00  0.00000000000E+00  0.49747860041E+03  0.49747860041E+03  0.00000000000E+00 0. -1.
         -2   -1    0    0    0  501 -0.00000000000E+00 -0.00000000000E+00 -0.36796885950E+02  0.36796885950E+02  0.00000000000E+00 0.  1.
         25    2    1    2    0    0  0.76335788518E+02  0.21781302829E+02  0.27064961058E+03  0.30854532041E+03  0.12508966897E+03 0.  0.
          5    1    3    3  502    0 -0.27297158022E+02  0.64572861520E+01  0.13034988011E+03  0.13339938165E+03  0.41800000000E+01 0. -1.
         -5    1    3    3    0  502  0.10363294654E+03  0.15324016677E+02  0.14029973047E+03  0.17514593876E+03  0.41800000000E+01 0. -1.
        -11    1    1    2    0    0 -0.74376474179E+02 -0.42247203412E+02  0.92227044751E+02  0.12578757447E+03  0.00000000000E+00 0.  1.
         11    1    1    2    0    0 -0.19593143391E+01  0.20465900583E+02  0.97805059128E+02  0.99942591473E+02  0.00000000000E+00 0. -1.
</event>
<event>
 7    1  0.2719869E-009  0.8136957E+02  0.7561462E-02  0.1325209E+00
         -3   -1    0    0    0  501 -0.00000000000E+00  0.00000000000E+00  0.27592677587E+03  0.27592677587E+03  0.00000000000E+00 0.  1.
          3   -1    0    0  501    0  0.00000000000E+00 -0.00000000000E+00 -0.44724592672E+02  0.44724592672E+02  0.00000000000E+00 0. -1.
         25    2    1    2    0    0 -0.10012180053E+02 -0.14332286990E+02  0.15089300158E+03  0.19677866734E+03  0.12508991883E+03 0.  0.
          5    1    3    3  502    0  0.52190016445E+02  0.10885336912E+02  0.96330245246E+02  0.11017838683E+03  0.41800000000E+01 0. -1.
         -5    1    3    3    0  502 -0.62202196498E+02 -0.25217623902E+02  0.54562756331E+02  0.86600280501E+02  0.41800000000E+01 0. -1.
        -11    1    1    2    0    0  0.16436312348E+02 -0.83518328858E+01  0.94549042336E+02  0.96329781910E+02  0.00000000000E+00 0.  1.
         11    1    1    2    0    0 -0.64241322952E+01  0.22684119876E+02 -0.14239860714E+02  0.27542919298E+02  0.00000000000E+00 0. -1.
</event>
<event>
 7    1  0.2719869E-009  0.3527476E+03  0.7561462E-02  0.1061493E+00
         -1   -1    0    0    0  501 -0.00000000000E+00  0.00000000000E+00  0.10813785037E+03  0.10813785037E+03  0.00000000000E+00 0.  1.
          1   -1    0    0  501    0  0.00000000000E+00 -0.00000000000E+00 -0.13188200374E+04  0.13188200374E+04  0.00000000000E+00 0. -1.
         25    2    1    2    0    0  0.27944088926E+03 -0.19414441880E+03 -0.38163197823E+03  0.52637390410E+03  0.12508898502E+03 0.  0.
          5    1    3    3  502    0  0.21641660334E+03 -0.86852966085E+02 -0.20659602346E+03  0.31157498813E+03  0.41800000000E+01 0.  1.
         -5    1    3    3    0  502  0.63024285917E+02 -0.10729145272E+03 -0.17503595477E+03  0.21479891598E+03  0.41800000000E+01 0.  1.
        -11    1    1    2    0    0 -0.19987970356E+03  0.17561832967E+03 -0.68693187217E+03  0.73666077037E+03  0.00000000000E+00 0. -1.
         11    1    1    2    0    0 -0.79561185700E+02  0.18526089133E+02 -0.14211833664E+03  0.16392321329E+03  0.00000000000E+00 0.  1.
</event>
<event>
 7    1  0.2719869E-009  0.1274212E+03  0.7561462E-02  0.1231333E+00
         -3   -1    0    0    0  501 -0.00000000000E+00  0.00000000000E+00  0.11480207985E+03  0.11480207985E+03  0.00000000000E+00 0.  1.
          3   -1    0    0  501    0  0.00000000000E+00 -0.00000000000E+00 -0.18805718951E+03  0.18805718951E+03  0.00000000000E+00 0. -1.
         25    2    1    2    0    0  0.15760975013E+02 -0.95790899034E+02 -0.63840433803E+02  0.17072653180E+03  0.12509053921E+03 0.  0.
          5    1    3    3  502    0 -0.12804329169E+02 -0.11119783237E+03 -0.16562553737E+02  0.11322852713E+03  0.41800000000E+01 0.  1.
         -5    1    3    3    0  502  0.28565304182E+02  0.15406933335E+02 -0.47277880065E+02  0.57498004672E+02  0.41800000000E+01 0.  1.
        -11    1    1    2    0    0 -0.34763327666E+02  0.69002778926E+02 -0.40217212832E+02  0.87105089735E+02  0.00000000000E+00 0. -1.
         11    1    1    2    0    0  0.19002352652E+02  0.26788120109E+02  0.30802536974E+02  0.45027647832E+02  0.00000000000E+00 0.  1.
</event>
<event>
 7    1  0.2719869E-009  0.1633809E+03  0.7561462E-02  0.1184932E+00
          2   -1    0    0  501    0  0.00000000000E+00  0.00000000000E+00  0.27316652548E+03  0.27316652548E+03  0.00000000000E+00 0. -1.
         -2   -1    0    0    0  501 -0.00000000000E+00 -0.00000000000E+00 -0.11747108932E+03  0.11747108932E+03  0.00000000000E+00 0.  1.
         25    2    1    2    0    0  0.75433186544E+02  0.11662763345E+03  0.98325687702E+02  0.21120368258E+03  0.12508750600E+03 0.  0.
          5    1    3    3  502    0  0.50478353483E+02  0.13958843039E+03  0.60815684510E+02  0.16046499292E+03  0.41800000000E+01 0.  1.
         -5    1    3    3    0  502  0.24954833061E+02 -0.22960796940E+02  0.37510003192E+02  0.50738689663E+02  0.41800000000E+01 0.  1.
        -11    1    1    2    0    0 -0.79805058854E+02 -0.10661765113E+03  0.13081024804E+02  0.13381810102E+03  0.00000000000E+00 0.  1.
         11    1    1    2    0    0  0.43718723103E+01 -0.10009982328E+02  0.44288723653E+02  0.45615831205E+02  0.00000000000E+00 0. -1.
</event>
<event>
 7    1  0.2719869E-009  0.2201164E+03  0.7561462E-02  0.1133796E+00
          1   -1    0    0  501    0  0.00000000000E+00  0.00000000000E+00  0.13974187749E+04  0.13974187749E+04  0.00000000000E+00 0. -1.
         -1   -1    0    0    0  501 -0.00000000000E+00 -0.00000000000E+00 -0.40702627672E+02  0.40702627672E+02  0.00000000000E+00 0.  1.
         25    2    1    2    0    0  0.14508962377E+03 -0.14192877416E+03  0.49773242610E+03  0.55188694370E+03  0.12508738858E+03 0.  0.
          5    1    3    3  502    0 -0.21846896262E+02 -0.23377559683E+02  0.90074909108E+02  0.95680503885E+02  0.41800000000E+01 0.  1.
         -5    1    3    3    0  502  0.16693652003E+03 -0.11855121448E+03  0.40765751699E+03  0.45620643982E+03  0.41800000000E+01 0.  1.
        -11    1    1    2    0    0 -0.37079561498E+02  0.30812539330E+02  0.93219773594E+02  0.10494871438E+03  0.00000000000E+00 0.  1.
         11    1    1    2    0    0 -0.10801006227E+03  0.11111623483E+03  0.76576394758E+03  0.78128574454E+03  0.00000000000E+00 0. -1.
</event>
<event>
 7    1  0.2719869E-009  0.1046343E+03  0.7561462E-02  0.1270842E+00
         -1   -1    0    0    0  501 -0.00000000000E+00  0.00000000000E+00  0.18965035056E+02  0.18965035056E+02  0.00000000000E+00 0.  1.
          1   -1    0    0  501    0  0.00000000000E+00 -0.00000000000E+00 -0.74412769273E+03  0.74412769273E+03  0.00000000000E+00 0. -1.
         25    2    1    2    0    0 -0.31081082943E+02  0.16928544485E+02 -0.28317206730E+03  0.31158442151E+03  0.12508326304E+03 0.  0.
          5    1    3    3  502    0 -0.69218906169E+02  0.32214885118E+02 -0.11276504729E+03  0.13624420752E+03  0.41800000000E+01 0. -1.
         -5    1    3    3    0  502  0.38137823226E+02 -0.15286340633E+02 -0.17040702001E+03  0.17534021399E+03  0.41800000000E+01 0. -1.
        -11    1    1    2    0    0 -0.12360875100E+02 -0.40316648284E+02 -0.23183989816E+03  0.23564371780E+03  0.00000000000E+00 0. -1.
         11    1    1    2    0    0  0.43441958044E+02  0.23388103798E+02 -0.21015069221E+03  0.21586458847E+03  0.00000000000E+00 0.  1.
</event>
<event>
 7    1  0.2719869E-009  0.1213064E+03  0.7561462E-02  0.1240957E+00
         -2   -1    0    0    0  501 -0.00000000000E+00  0.00000000000E+00  0.41093511088E+02  0.41093511088E+02  0.00000000000E+00 0.  1.
          2   -1    0    0  501    0  0.00000000000E+00 -0.00000000000E+00 -0.48281650953E+03  0.48281650953E+03  0.00000000000E+00 0. -1.
         25    2    1    2    0    0 -0.42655194804E+02 -0.36710553851E+02 -0.12264930029E+03  0.18400227621E+03  0.12508739497E+03 0.  0.
          5    1    3    3  502    0  0.22423518576E+02 -0.53792952130E+02 -0.21117027909E+02  0.62128070563E+02  0.41800000000E+01 0.  1.
         -5    1    3    3    0  502 -0.65078713380E+02  0.17082398279E+02 -0.10153227238E+03  0.12187420564E+03  0.41800000000E+01 0.  1.
        -11    1    1    2    0    0 -0.33939309665E+02  0.15379572725E+02 -0.11531807224E+03  0.12118855467E+03  0.00000000000E+00 0. -1.
         11    1    1    2    0    0  0.76594504470E+02  0.21330981126E+02 -0.20375562592E+03  0.21871918975E+03  0.00000000000E+00 0.  1.
</event>
<event>
 7    1  0.2719869E-009  0.1412435E+03  0.7561462E-02  0.1211665E+00
          1   -1    0    0  501    0  0.00000000000E+00  0.00000000000E+00  0.67334788118E+02  0.67334788118E+02  0.00000000000E+00 0. -1.
         -1   -1    0    0    0  501 -0.00000000000E+00 -0.00000000000E+00 -0.29818083813E+03  0.29818083813E+03  0.00000000000E+00 0.  1.
         25    2    1    2    0    0 -0.42252538601E+01 -0.89770057685E+02 -0.13828982736E+03  0.20699728820E+03  0.12508910801E+03 0.  0.
          5    1    3    3  502    0  0.59755589583E+02 -0.34155449698E+02 -0.56843019541E+02  0.89364011218E+02  0.41800000000E+01 0.  1.
         -5    1    3    3    0  502 -0.63980843443E+02 -0.55614607987E+02 -0.81446807815E+02  0.11763327698E+03  0.41800000000E+01 0.  1.
        -11    1    1    2    0    0  0.23098612037E+02  0.10303144540E+03 -0.77375810872E+02  0.13090470093E+03  0.00000000000E+00 0. -1.
         11    1    1    2    0    0 -0.18873358177E+02 -0.13261387711E+02 -0.15180411782E+02  0.27613637116E+02  0.00000000000E+00 0.  1.
</event>
<event>
 7    1  0.2719869E-009  0.7785028E+02  0.7561462E-02  0.1335265E+00
          1   -1    0    0  501    0  0.00000000000E+00  0.00000000000E+00  0.63308940710E+03  0.63308940710E+03  0.00000000000E+00 0. -1.
         -1   -1    0    0    0  501 -0.00000000000E+00 -0.00000000000E+00 -0.32978918510E+02  0.32978918510E+02  0.00000000000E+00 0.  1.
         25    2    1    2    0    0 -0.19200463474E+02  0.26428652578E+02  0.53949875276E+03  0.55477515630E+03  0.12509771520E+03 0.  0.
          5    1    3    3  502    0 -0.46545501297E+01 -0.16648684819E+02  0.52011191882E+01  0.18530180353E+02  0.41800000000E+01 0. -1.
         -5    1    3    3    0  502 -0.14545913344E+02  0.43077337397E+02  0.53429763357E+03  0.53624497595E+03  0.41800000000E+01 0. -1.
        -11    1    1    2    0    0 -0.36578802047E+01  0.30599800336E+02  0.28465470640E+02  0.41952483681E+02  0.00000000000E+00 0. -1.
         11    1    1    2    0    0  0.22858343678E+02 -0.57028452914E+02  0.32146265191E+02  0.69340685627E+02  0.00000000000E+00 0.  1.
</event>
<event>
 7    1  0.2719869E-009  0.1181155E+03  0.7561462E-02  0.1246239E+00
          2   -1    0    0  501    0  0.00000000000E+00  0.00000000000E+00  0.80145528234E+03  0.80145528234E+03  0.00000000000E+00 0. -1.
         -2   -1    0    0    0  501 -0.00000000000E+00 -0.00000000000E+00 -0.23401092729E+02  0.23401092729E+02  0.00000000000E+00 0.  1.
         25    2    1    2    0    0 -0.76574109286E+02  0.26788136873E+02  0.38550944478E+03  0.41333618367E+03  0.12509224685E+03 0.  0.
          5    1    3    3  502    0 -0.92554850313E+02  0.43181251989E+01  0.36995331809E+03  0.38140264352E+03  0.41800000000E+01 0. -1.
         -5    1    3    3    0  502  0.15980741028E+02  0.22470011674E+02  0.15556126695E+02  0.31933540145E+02  0.41800000000E+01 0. -1.
        -11    1    1    2    0    0  0.48138325377E+02  0.26677172568E+02  0.26051957055E+03  0.26626944350E+03  0.00000000000E+00 0. -1.
         11    1    1    2    0    0  0.28435783908E+02 -0.53465309442E+02  0.13202517428E+03  0.14525074789E+03  0.00000000000E+00 0.  1.
</event>
<event>
 7    1  0.2719869E-009  0.1079123E+03  0.7561462E-02  0.1264486E+00
          1   -1    0    0  501    0  0.00000000000E+00  0.00000000000E+00  0.12536068340E+03  0.12536068340E+03  0.00000000000E+00 0. -1.
         -1   -1    0    0    0  501 -0.00000000000E+00 -0.00000000000E+00 -0.16416291724E+03  0.16416291724E+03  0.00000000000E+00 0.  1.
         25    2    1    2    0    0 -0.47922821405E+01 -0.80658979577E+02 -0.63623979160E+02  0.16193897789E+03  0.12508950749E+03 0.  0.
          5    1    3    3  502    0 -0.29079618539E+02  0.15916563363E+02 -0.51700558236E+02  0.61557950953E+02  0.41800000000E+01 0.  1.
         -5    1    3    3    0  502  0.24287336399E+02 -0.96575542939E+02 -0.11923420924E+02  0.10038102694E+03  0.41800000000E+01 0.  1.
        -11    1    1    2    0    0  0.92072519629E+01  0.21132704129E+02  0.55771872406E+02  0.60347878374E+02  0.00000000000E+00 0. -1.
         11    1    1    2    0    0 -0.44149698224E+01  0.59526275447E+02 -0.30950127083E+02  0.67236744371E+02  0.00000000000E+00 0.  1.
</event>
<event>
 7    1  0.2719869E-009  0.1135961E+03  0.7561462E-02  0.1254052E+00
         -1   -1    0    0    0  501 -0.00000000000E+00  0.00000000000E+00  0.45073319884E+02  0.45073319884E+02  0.00000000000E+00 0.  1.
          1   -1    0    0  501    0  0.00000000000E+00 -0.00000000000E+00 -0.71637092371E+03  0.71637092371E+03  0.00000000000E+00 0. -1.
         25    2    1    2    0    0 -0.58716012489E+02  0.14854436155E+02 -0.79693364259E+02  0.16020184105E+03  0.12508146614E+03 0.  0.
          5    1    3    3  502    0 -0.88706115843E+02  0.11699321816E+02 -0.91036283573E+02  0.12771345444E+03  0.41800000000E+01 0.  1.
         -5    1    3    3    0  502  0.29990103354E+02  0.31551143385E+01  0.11342919314E+02  0.32488386606E+02  0.41800000000E+01 0.  1.
        -11    1    1    2    0    0  0.72830515981E+02 -0.36399330803E+02 -0.44169630524E+03  0.44913786459E+03  0.00000000000E+00 0.  1.
         11    1    1    2    0    0 -0.14114503492E+02  0.21544894648E+02 -0.14990793433E+03  0.15210453796E+03  0.00000000000E+00 0. -1.
</event>
<event>
 7    1  0.2719869E-009  0.9363342E+02  0.7561462E-02  0.1294284E+00
          1   -1    0    0  501    0  0.00000000000E+00  0.00000000000E+00  0.24004556113E+03  0.24004556113E+03  0.00000000000E+00 0. -1.
         -1   -1    0    0    0  501 -0.00000000000E+00 -0.00000000000E+00 -0.53073710161E+02  0.53073710161E+02  0.00000000000E+00 0.  1.
         25    2    1    2    0    0 -0.69693429599E+01 -0.22756705715E+02  0.94378437185E+02  0.15850380028E+03  0.12509886451E+03 0.  0.
          5    1    3    3  502    0 -0.63455662139E+02 -0.88153734749E+01  0.70835649353E+02  0.95600698147E+02  0.41800000000E+01 0. -1.
         -5    1    3    3    0  502  0.56486319179E+02 -0.13941332241E+02  0.23542787831E+02  0.62903102132E+02  0.41800000000E+01 0. -1.
        -11    1    1    2    0    0  0.11541131500E+02 -0.19268861517E+02 -0.92929783300E+01  0.24307327840E+02  0.00000000000E+00 0.  1.
         11    1    1    2    0    0 -0.45717885400E+01  0.42025567233E+02  0.10188639211E+03  0.11030814317E+03  0.00000000000E+00 0. -1.
</event>
<event>
 7    1  0.2719869E-009  0.1887929E+03  0.7561462E-02  0.1159555E+00
         -2   -1    0    0    0  501 -0.00000000000E+00  0.00000000000E+00  0.85359570647E+03  0.85359570647E+03  0.00000000000E+00 0.  1.
          2   -1    0    0  501    0  0.00000000000E+00 -0.00000000000E+00 -0.14270786276E+03  0.14270786276E+03  0.00000000000E+00 0. -1.
         25    2    1    2    0    0 -0.20409904031E+02  0.16526974934E+03  0.77008247557E+03  0.79774931651E+03  0.12508516532E+03 0.  0.
          5    1    3    3  502    0  0.41915830872E+02  0.61905375004E+02  0.17195628308E+03  0.18755172093E+03  0.41800000000E+01 0. -1.
         -5    1    3    3    0  502 -0.62325734903E+02  0.10336437434E+03  0.59812619249E+03  0.61019759558E+03  0.41800000000E+01 0. -1.
        -11    1    1    2    0    0  0.34031755984E+02 -0.16482927751E+03 -0.36711999468E+02  0.17226323475E+03  0.00000000000E+00 0.  1.
         11    1    1    2    0    0 -0.13621851953E+02 -0.44047182496E+00 -0.22482632400E+02  0.26291017966E+02  0.00000000000E+00 0. -1.
</event>
<event>
 7    1  0.2719869E-009  0.1373171E+03  0.7561462E-02  0.1216985E+00
         -2   -1    0    0    0  501 -0.00000000000E+00  0.00000000000E+00  0.25553608030E+02  0.25553608030E+02  0.00000000000E+00 0.  1.
          2   -1    0    0  501    0  0.00000000000E+00 -0.00000000000E+00 -0.86968114284E+03  0.86968114284E+03  0.00000000000E+00 0. -1.
         25    2    1    2    0    0  0.85615154715E+02  0.23598476289E+02 -0.30938277591E+03  0.34532954100E+03  0.12509175456E+03 0.  0.
          5    1    3    3  502    0  0.48268584600E+02  0.73595502721E+02 -0.14789619887E+03  0.17215374617E+03  0.41800000000E+01 0.  1.
         -5    1    3    3    0  502  0.37346570114E+02 -0.49997026432E+02 -0.16148657704E+03  0.17317579483E+03  0.41800000000E+01 0.  1.
        -11    1    1    2    0    0 -0.67967619623E+02  0.24886442470E+02 -0.37859007659E+03  0.38544698524E+03  0.00000000000E+00 0.  1.
         11    1    1    2    0    0 -0.17647535091E+02 -0.48484918759E+02 -0.15615468231E+03  0.16445822463E+03  0.00000000000E+00 0. -1.
</event>
<event>
 7    1  0.2976302E-009  0.1863312E+03  0.7561462E-02  0.1161813E+00
          1   -1    0    0  501    0  0.00000000000E+00  0.00000000000E+00  0.89187745832E+03  0.89187745832E+03  0.00000000000E+00 0. -1.
         -1   -1    0    0    0  501 -0.00000000000E+00 -0.00000000000E+00 -0.44932037491E+02  0.44932037491E+02  0.00000000000E+00 0.  1.
         25    2    1    2    0    0 -0.13326715721E+03 -0.10220567079E+03  0.44262982867E+03  0.48966714486E+03  0.12508642291E+03 0.  0.
          5    1    3    3  502    0 -0.95269145985E+02 -0.34905928330E+01  0.14325248233E+03  0.17212536277E+03  0.41800000000E+01 0. -1.
         -5    1    3    3    0  502 -0.37998011228E+02 -0.98715077957E+02  0.29937734634E+03  0.31754178209E+03  0.41800000000E+01 0. -1.
        -11    1    1    2    0    0  0.75697380365E+02  0.36553260391E+02  0.29766070301E+03  0.30930264848E+03  0.00000000000E+00 0. -1.
         11    1    1    2    0    0  0.57569776848E+02  0.65652410399E+02  0.10665488915E+03  0.13783970247E+03  0.00000000000E+00 0.  1.
</event>
<event>
 7    1  0.2719869E-009  0.1310002E+03  0.7561462E-02  0.1225979E+00
         -2   -1    0    0    0  501 -0.00000000000E+00  0.00000000000E+00  0.60334304953E+02  0.60334304953E+02  0.00000000000E+00 0.  1.
          2   -1    0    0  501    0  0.00000000000E+00 -0.00000000000E+00 -0.39641202891E+03  0.39641202891E+03  0.00000000000E+00 0. -1.
         25    2    1    2    0    0 -0.42187680427E+02  0.78331697415E+02 -0.76916357578E+02  0.17169269183E+03  0.12508636682E+03 0.  0.
          5    1    3    3  502    0 -0.76007851867E+02  0.81253361255E+02 -0.80368084765E+02  0.13731643641E+03  0.41800000000E+01 0. -1.
         -5    1    3    3    0  502  0.33820171439E+02 -0.29216638404E+01  0.34517271865E+01  0.34376255415E+02  0.41800000000E+01 0. -1.
        -11    1    1    2    0    0  0.56539632793E+02 -0.26069969699E+02 -0.16576100852E+03  0.17706802461E+03  0.00000000000E+00 0.  1.
         11    1    1    2    0    0 -0.14351952366E+02 -0.52261727716E+02 -0.93400357861E+02  0.10798561742E+03  0.00000000000E+00 0. -1.
</event>
<event>
 7    1  0.2719869E-009  0.9366036E+02  0.7561462E-02  0.1294222E+00
         -1   -1    0    0    0  501 -0.00000000000E+00  0.00000000000E+00  0.24712953935E+02  0.24712953935E+02  0.00000000000E+00 0. -1.
          1   -1    0    0  501    0  0.00000000000E+00 -0.00000000000E+00 -0.97908689308E+03  0.97908689308E+03  0.00000000000E+00 0.  1.
         25    2    1    2    0    0 -0.45561350549E+02  0.43188770825E+02 -0.80438946852E+03  0.81647396743E+03  0.12508483452E+03 0.  0.
          5    1    3    3  502    0 -0.76975022381E+02  0.34609941696E+02 -0.31986536776E+03  0.33083882484E+03  0.41800000000E+01 0. -1.
         -5    1    3    3    0  502  0.31413671832E+02  0.85788291296E+01 -0.48452410077E+03  0.48563514258E+03  0.41800000000E+01 0. -1.
        -11    1    1    2    0    0  0.16251629783E+02 -0.36457115723E+02 -0.61562239906E+01  0.40387322902E+02  0.00000000000E+00 0. -1.
         11    1    1    2    0    0  0.29309720766E+02 -0.67316551025E+01 -0.14382824663E+03  0.14693855668E+03  0.00000000000E+00 0.  1.
</event>
<event>
 7    1  0.2719869E-009  0.1285185E+03  0.7561462E-02  0.1229671E+00
         -1   -1    0    0    0  501 -0.00000000000E+00  0.00000000000E+00  0.34041050809E+03  0.34041050809E+03  0.00000000000E+00 0.  1.
          1   -1    0    0  501    0  0.00000000000E+00 -0.00000000000E+00 -0.91722414942E+02  0.91722414942E+02  0.00000000000E+00 0. -1.
         25    2    1    2    0    0 -0.88887781351E+02  0.37362452785E+02  0.10790081093E+02  0.15830613693E+03  0.12508963422E+03 0.  0.
          5    1    3    3  502    0 -0.30221480090E+02 -0.44939633669E+02 -0.94780228351E+01  0.55138134263E+02  0.41800000000E+01 0.  1.
         -5    1    3    3    0  502 -0.58666301260E+02  0.82302086454E+02  0.20268103928E+02  0.10316800267E+03  0.41800000000E+01 0.  1.
        -11    1    1    2    0    0  0.73484059216E+02 -0.43021868793E+02  0.24230766987E+03  0.25683417808E+03  0.00000000000E+00 0.  1.
         11    1    1    2    0    0  0.15403722134E+02  0.56594160083E+01 -0.44096578146E+01  0.16992608016E+02  0.00000000000E+00 0. -1.
</event>
<event>
 7    1  0.2719869E-009  0.1307331E+03  0.7561462E-02  0.1226372E+00
         -1   -1    0    0    0  501 -0.00000000000E+00  0.00000000000E+00  0.63059533692E+02  0.63059533692E+02  0.00000000000E+00 0.  1.
          1   -1    0    0  501    0  0.00000000000E+00 -0.00000000000E+00 -0.56694160142E+03  0.56694160142E+03  0.00000000000E+00 0. -1.
         25    2    1    2    0    0 -0.92173198607E+02 -0.25659030697E+00 -0.47163611273E+03  0.49656914301E+03  0.12507728243E+03 0.  0.
          5    1    3    3  502    0  0.19652305317E+02  0.18485838441E+02 -0.20480080504E+03  0.20661263628E+03  0.41800000000E+01 0.  1.
         -5    1    3    3    0  502 -0.11182550392E+03 -0.18742428748E+02 -0.26683530769E+03  0.28995650673E+03  0.41800000000E+01 0.  1.
        -11    1    1    2    0    0 -0.13617479429E+02 -0.56571959592E+01  0.11600777985E+02  0.18762133727E+02  0.00000000000E+00 0.  1.
         11    1    1    2    0    0  0.10579067804E+03  0.59137862662E+01 -0.43846732991E+02  0.11466985838E+03  0.00000000000E+00 0. -1.
</event>
<event>
 7    1  0.2719869E-009  0.1391283E+03  0.7561462E-02  0.1214507E+00
         -3   -1    0    0    0  501 -0.00000000000E+00  0.00000000000E+00  0.44912077154E+03  0.44912077154E+03  0.00000000000E+00 0.  1.
          3   -1    0    0  501    0  0.00000000000E+00 -0.00000000000E+00 -0.86185273558E+02  0.86185273558E+02  0.00000000000E+00 0. -1.
         25    2    1    2    0    0  0.61132745116E+02 -0.11502399875E+03  0.53956909454E+02  0.18848500702E+03  0.12509003549E+03 0.  0.
          5    1    3    3  502    0 -0.92352355215E+01  0.26281796899E+01 -0.27180869345E+02  0.29128490555E+02  0.41800000000E+01 0.  1.
         -5    1    3    3    0  502  0.70367980637E+02 -0.11765217844E+03  0.81137778799E+02  0.15935651646E+03  0.41800000000E+01 0.  1.
        -11    1    1    2    0    0 -0.46370985808E+02  0.95415191525E+02  0.30372745106E+03  0.32172145037E+03  0.00000000000E+00 0.  1.
         11    1    1    2    0    0 -0.14761759307E+02  0.19608807223E+02  0.52511374626E+01  0.25099587710E+02  0.00000000000E+00 0. -1.
</event>
<event>
 7    1  0.2719869E-009  0.1034331E+03  0.7561462E-02  0.1273238E+00
         -1   -1    0    0    0  501 -0.00000000000E+00  0.00000000000E+00  0.27992727582E+02  0.27992727582E+02  0.00000000000E+00 0.  1.
          1   -1    0    0  501    0  0.00000000000E+00 -0.00000000000E+00 -0.71011828004E+03  0.71011828004E+03  0.00000000000E+00 0. -1.
         25    2    1    2    0    0  0.31854981792E+02  0.74199572268E+02 -0.27117258316E+03  0.30935828284E+03  0.12509061082E+03 0.  0.
          5    1    3    3  502    0 -0.28708194337E+01  0.30764859153E+02  0.13296729706E+01  0.31208309681E+02  0.41800000000E+01 0.  1.
         -5    1    3    3    0  502  0.34725801225E+02  0.43434713114E+02 -0.27250225613E+03  0.27814997316E+03  0.41800000000E+01 0.  1.
        -11    1    1    2    0    0 -0.57012934194E+02 -0.20443189654E+02 -0.16576872398E+03  0.17648702082E+03  0.00000000000E+00 0.  1.
         11    1    1    2    0    0  0.25157952402E+02 -0.53756382614E+02 -0.24518424532E+03  0.25226570396E+03  0.00000000000E+00 0. -1.
</event>
<event>
 7    1  0.2719869E-009  0.1160574E+03  0.7561462E-02  0.1249746E+00
          1   -1    0    0  501    0  0.00000000000E+00  0.00000000000E+00  0.16926934174E+03  0.16926934174E+03  0.00000000000E+00 0. -1.
         -1   -1    0    0    0  501 -0.00000000000E+00 -0.00000000000E+00 -0.11942696965E+03  0.11942696965E+03  0.00000000000E+00 0.  1.
         25    2    1    2    0    0  0.28273593470E+02  0.65940510955E+02  0.83721121337E+02  0.16674352427E+03  0.12508648870E+03 0.  0.
          5    1    3    3  502    0 -0.66554034872E+01  0.95401149986E+02  0.41300317791E+02  0.10425383669E+03  0.41800000000E+01 0. -1.
         -5    1    3    3    0  502  0.34928996957E+02 -0.29460639031E+02  0.42420803546E+02  0.62489687581E+02  0.41800000000E+01 0. -1.
        -11    1    1    2    0    0  0.15802383038E+02 -0.28874216551E+02 -0.52032266226E+02  0.61569411397E+02  0.00000000000E+00 0.  1.
         11    1    1    2    0    0 -0.44075976508E+02 -0.37066294404E+02  0.18153516980E+02  0.60383375731E+02  0.00000000000E+00 0. -1.
</event>
<event>
 7    1  0.2719869E-009  0.1741250E+03  0.7561462E-02  0.1173613E+00
         -2   -1    0    0    0  501 -0.00000000000E+00  0.00000000000E+00  0.59228986913E+02  0.59228986913E+02  0.00000000000E+00 0. -1.
          2   -1    0    0  501    0  0.00000000000E+00 -0.00000000000E+00 -0.55535942964E+03  0.55535942964E+03  0.00000000000E+00 0.  1.
         25    2    1    2    0    0  0.57376660202E+02  0.12475637685E+03 -0.33148816747E+03  0.37998294240E+03  0.12508555726E+03 0.  0.
          5    1    3    3  502    0 -0.29432615382E+02 -0.80855331183E+00 -0.84696086145E+02  0.89765427727E+02  0.41800000000E+01 0. -1.
         -5    1    3    3    0  502  0.86809275585E+02  0.12556493016E+03 -0.24679208133E+03  0.29021751467E+03  0.41800000000E+01 0. -1.
        -11    1    1    2    0    0 -0.72867432220E+02 -0.47439578400E+02 -0.10101794340E+03  0.13328466216E+03  0.00000000000E+00 0.  1.
         11    1    1    2    0    0  0.15490772017E+02 -0.77316798453E+02 -0.63624331851E+02  0.10132081200E+03  0.00000000000E+00 0. -1.
</event>
<event>
 7    1  0.2719869E-009  0.1610666E+03  0.7561462E-02  0.1187498E+00
         -2   -1    0    0    0  501 -0.00000000000E+00  0.00000000000E+00  0.52729768882E+02  0.52729768882E+02  0.00000000000E+00 0.  1.
          2   -1    0    0  501    0  0.00000000000E+00 -0.00000000000E+00 -0.61325945274E+03  0.61325945274E+03  0.00000000000E+00 0. -1.
         25    2    1    2    0    0  0.33984387784E+02  0.13718010409E+03 -0.25327140729E+03  0.31585976818E+03  0.12509063848E+03 0.  0.
          5    1    3    3  502    0  0.29641682494E+02  0.14326337620E+03 -0.26416720405E+03  0.30200133840E+03  0.41800000000E+01 0.  1.
         -5    1    3    3    0  502  0.43427052899E+01 -0.60832721127E+01  0.10895796763E+02  0.13858429779E+02  0.41800000000E+01 0.  1.
        -11    1    1    2    0    0 -0.37944984471E+02 -0.90351945148E+01 -0.59126891141E+02  0.70833931434E+02  0.00000000000E+00 0.  1.
         11    1    1    2    0    0  0.39605966872E+01 -0.12814490958E+03 -0.24813138543E+03  0.27929552200E+03  0.00000000000E+00 0. -1.
</event>
<event>
 7    1  0.2719869E-009  0.1105797E+03  0.7561462E-02  0.1259500E+00
         -4   -1    0    0    0  501 -0.00000000000E+00  0.00000000000E+00  0.28041117411E+03  0.28041117411E+03  0.00000000000E+00 0.  1.
          4   -1    0    0  501    0  0.00000000000E+00 -0.00000000000E+00 -0.46723022788E+02  0.46723022788E+02  0.00000000000E+00 0. -1.
         25    2    1    2    0    0 -0.14108711678E+02  0.29935129033E+02  0.11381978703E+03  0.17232116875E+03  0.12507787008E+03 0.  0.
          5    1    3    3  502    0  0.45282804332E+02 -0.18009775761E+02  0.24336294012E+02  0.54631602552E+02  0.41800000000E+01 0. -1.
         -5    1    3    3    0  502 -0.59391516010E+02  0.47944904794E+02  0.89483493013E+02  0.11768956620E+03  0.41800000000E+01 0. -1.
        -11    1    1    2    0    0  0.99628310522E+01  0.32110547830E+02  0.58338005925E+02  0.67332519779E+02  0.00000000000E+00 0.  1.
         11    1    1    2    0    0  0.41458806257E+01 -0.62045676863E+02  0.61530358376E+02  0.87480508374E+02  0.00000000000E+00 0. -1.
</event>
<event>
 7    1  0.2719869E-009  0.1087662E+03  0.7561462E-02  0.1262872E+00
          1   -1    0    0  501    0  0.00000000000E+00  0.00000000000E+00  0.35228865992E+02  0.35228865992E+02  0.00000000000E+00 0. -1.
         -1   -1    0    0    0  501 -0.00000000000E+00 -0.00000000000E+00 -0.37221253366E+03  0.37221253366E+03  0.00000000000E+00 0.  1.
         25    2    1    2    0    0 -0.24723559825E+02  0.27993430866E+02 -0.16485406856E+03  0.21028843722E+03  0.12509786698E+03 0.  0.
          5    1    3    3  502    0  0.89439548671E+01  0.70491817360E+02 -0.64061858925E+02  0.95762648315E+02  0.41800000000E+01 0.  1.
         -5    1    3    3    0  502 -0.33667514692E+02 -0.42498386494E+02 -0.10079220964E+03  0.11452578890E+03  0.41800000000E+01 0.  1.
        -11    1    1    2    0    0 -0.25191434429E+02  0.12103324187E+02 -0.28587960806E+02  0.39979623910E+02  0.00000000000E+00 0. -1.
         11    1    1    2    0    0  0.49914994253E+02 -0.40096755053E+02 -0.14354163830E+03  0.15717333852E+03  0.00000000000E+00 0.  1.
</event>
<event>
 7    1  0.2719869E-009  0.1419161E+03  0.7561462E-02  0.1210774E+00
          2   -1    0    0  501    0  0.00000000000E+00  0.00000000000E+00  0.64238259726E+02  0.64238259726E+02  0.00000000000E+00 0. -1.
         -2   -1    0    0    0  501 -0.00000000000E+00 -0.00000000000E+00 -0.37490843747E+03  0.37490843747E+03  0.00000000000E+00 0.  1.
         25    2    1    2    0    0 -0.99496032680E+02  0.35089438294E+02 -0.12963795081E+03  0.20876044318E+03  0.12507675702E+03 0.  0.
          5    1    3    3  502    0 -0.98527877017E+02 -0.15750006170E+02 -0.12120580861E+03  0.15704816358E+03  0.41800000000E+01 0. -1.
         -5    1    3    3    0  502 -0.96815566253E+00  0.50839444464E+02 -0.84321422032E+01  0.51712279595E+02  0.41800000000E+01 0. -1.
        -11    1    1    2    0    0  0.11096662908E+03 -0.18079712225E+02 -0.11330490278E+03  0.15961976619E+03  0.00000000000E+00 0. -1.
         11    1    1    2    0    0 -0.11470596404E+02 -0.17009726069E+02 -0.67727324149E+02  0.70766487826E+02  0.00000000000E+00 0.  1.
</event>
<event>
 7    1  0.2719869E-009  0.1797393E+03  0.7561462E-02  0.1168056E+00
          2   -1    0    0  501    0  0.00000000000E+00  0.00000000000E+00  0.85275560755E+03  0.85275560755E+03  0.00000000000E+00 0.  1.
         -2   -1    0    0    0  501 -0.00000000000E+00 -0.00000000000E+00 -0.46975974754E+02  0.46975974754E+02  0.00000000000E+00 0. -1.
         25    2    1    2    0    0  0.11122732773E+03  0.89851072227E+02  0.61864050768E+03  0.64715453963E+03  0.12509271282E+03 0.  0.
          5    1    3    3  502    0  0.37216657926E+02  0.10745204890E+03  0.37117245918E+03  0.38822350430E+03  0.41800000000E+01 0. -1.
         -5    1    3    3    0  502  0.74010669804E+02 -0.17600976673E+02  0.24746804850E+03  0.25893103532E+03  0.41800000000E+01 0. -1.
        -11    1    1    2    0    0  0.27836947565E+01  0.14606489779E+02  0.19356514438E+02  0.24408464748E+02  0.00000000000E+00 0.  1.
         11    1    1    2    0    0 -0.11401102249E+03 -0.10445756201E+03  0.16778261068E+03  0.22816857793E+03  0.00000000000E+00 0. -1.
</event>
<event>
 7    1  0.2719869E-009  0.2014977E+03  0.7561462E-02  0.1148482E+00
          1   -1    0    0  501    0  0.00000000000E+00  0.00000000000E+00  0.53880739375E+03  0.53880739375E+03  0.00000000000E+00 0. -1.
         -1   -1    0    0    0  501 -0.00000000000E+00 -0.00000000000E+00 -0.88014282147E+02  0.88014282147E+02  0.00000000000E+00 0.  1.
         25    2    1    2    0    0  0.13607415313E+03 -0.11442030062E+03  0.32210922773E+03  0.38859944539E+03  0.12508794514E+03 0.  0.
          5    1    3    3  502    0  0.97212901745E+02 -0.13607992547E+03  0.28519551203E+03  0.33063884657E+03  0.41800000000E+01 0.  1.
         -5    1    3    3    0  502  0.38861251389E+02  0.21659624846E+02  0.36913715700E+02  0.57960598813E+02  0.41800000000E+01 0.  1.
        -11    1    1    2    0    0 -0.11790038419E+03  0.57315191783E+02  0.52312860943E+02  0.14114590756E+03  0.00000000000E+00 0.  1.
         11    1    1    2    0    0 -0.18173768940E+02  0.57105108842E+02  0.76371022930E+02  0.97076322946E+02  0.00000000000E+00 0. -1.
</event>
<event>
 7    1  0.2719869E-009  0.2289212E+03  0.7561462E-02  0.1127401E+00
          2   -1    0    0  501    0  0.00000000000E+00  0.00000000000E+00  0.12744567680E+04  0.12744567680E+04  0.00000000000E+00 0. -1.
         -2   -1    0    0    0  501 -0.00000000000E+00 -0.00000000000E+00 -0.47198473326E+02  0.47198473326E+02  0.00000000000E+00 0.  1.
         25    2    1    2    0    0  0.13357716770E+03  0.15551023763E+03  0.42356482812E+03  0.48691009497E+03  0.12509189910E+03 0.  0.
          5    1    3    3  502    0  0.44506281300E+02 -0.11659899770E+02  0.12541828572E+03  0.13365620498E+03  0.41800000000E+01 0.  1.
         -5    1    3    3    0  502  0.89070886400E+02  0.16717013740E+03  0.29814654240E+03  0.35325388998E+03  0.41800000000E+01 0.  1.
        -11    1    1    2    0    0 -0.96243289611E+02 -0.46371505685E+02  0.45881407372E+03  0.47108750947E+03  0.00000000000E+00 0. -1.
         11    1    1    2    0    0 -0.37333878089E+02 -0.10913873195E+03  0.34487939279E+03  0.36365763685E+03  0.00000000000E+00 0.  1.
</event>
<event>
 7    1  0.2719869E-009  0.1242353E+03  0.7561462E-02  0.1236269E+00
         -2   -1    0    0    0  501 -0.00000000000E+00  0.00000000000E+00  0.27535036004E+02  0.27535036004E+02  0.00000000000E+00 0.  1.
          2   -1    0    0  501    0  0.00000000000E+00 -0.00000000000E+00 -0.68437221597E+03  0.68437221597E+03  0.00000000000E+00 0. -1.
         25    2    1    2    0    0  0.57428778643E+02  0.58686491003E+02 -0.38678070969E+03  0.41471511645E+03  0.12508853498E+03 0.  0.
          5    1    3    3  502    0  0.17617788870E+02 -0.27855973459E+02 -0.22087896033E+03  0.22336367041E+03  0.41800000000E+01 0.  1.
         -5    1    3    3    0  502  0.39810989773E+02  0.86542464462E+02 -0.16590174936E+03  0.19135144604E+03  0.41800000000E+01 0.  1.
        -11    1    1    2    0    0 -0.43008665381E+02 -0.81935262042E+02 -0.17106679281E+03  0.19449159381E+03  0.00000000000E+00 0.  1.
         11    1    1    2    0    0 -0.14420113262E+02  0.23248771040E+02 -0.98989677467E+02  0.10270054170E+03  0.00000000000E+00 0. -1.
</event>
<event>
 7    1  0.2719869E-009  0.1378822E+03  0.7561462E-02  0.1216207E+00
          2   -1    0    0  501    0  0.00000000000E+00  0.00000000000E+00  0.22653076980E+03  0.22653076980E+03  0.00000000000E+00 0. -1.
         -2   -1    0    0    0  501 -0.00000000000E+00 -0.00000000000E+00 -0.14424240536E+03  0.14424240536E+03  0.00000000000E+00 0.  1.
         25    2    1    2    0    0  0.33880187970E+02  0.10379415536E+03  0.14114387281E+03  0.21792122255E+03  0.12508785944E+03 0.  0.
          5    1    3    3  502    0 -0.29534565989E+02 -0.12986459523E+02  0.20975808063E+02  0.38709115761E+02  0.41800000000E+01 0.  1.
         -5    1    3    3    0  502  0.63414753959E+02  0.11678061489E+03  0.12016806475E+03  0.17921210679E+03  0.41800000000E+01 0.  1.
        -11    1    1    2    0    0 -0.14231060443E+01 -0.25270017296E+02 -0.62886510918E+02  0.67788732547E+02  0.00000000000E+00 0.  1.
         11    1    1    2    0    0 -0.32457081925E+02 -0.78524138066E+02  0.40310025426E+01  0.85063220064E+02  0.00000000000E+00 0. -1.
</event>
<event>
 7    1  0.2719869E-009  0.1215475E+03  0.7561462E-02  0.1240566E+00
          2   -1    0    0  501    0  0.00000000000E+00  0.00000000000E+00  0.33007203116E+04  0.33007203116E+04  0.00000000000E+00 0. -1.
         -2   -1    0    0    0  501 -0.00000000000E+00 -0.00000000000E+00 -0.15485972777E+02  0.15485972777E+02  0.00000000000E+00 0.  1.
         25    2    1    2    0    0  0.73202334414E+02  0.36945780820E+02  0.30103872369E+04  0.30141007358E+04  0.12509339199E+03 0.  0.
          5    1    3    3  502    0 -0.12943643807E+02  0.57818968720E+02  0.10083569642E+04  0.10101048513E+04  0.41800000000E+01 0. -1.
         -5    1    3    3    0  502  0.86145978222E+02 -0.20873187900E+02  0.20020302727E+04  0.20039958845E+04  0.41800000000E+01 0. -1.
        -11    1    1    2    0    0 -0.19137455141E+02  0.11532708603E+02  0.53212028026E+01  0.22968690782E+02  0.00000000000E+00 0.  1.
         11    1    1    2    0    0 -0.54064879274E+02 -0.48478489423E+02  0.26952589915E+03  0.27913685787E+03  0.00000000000E+00 0. -1.
</event>
<event>
 7    1  0.2719869E-009  0.8577840E+02  0.7561462E-02  0.1313409E+00
         -2   -1    0    0    0  501 -0.00000000000E+00  0.00000000000E+00  0.61736565683E+02  0.61736565683E+02  0.00000000000E+00 0.  1.
          2   -1    0    0  501    0  0.00000000000E+00 -0.00000000000E+00 -0.32798358793E+03  0.32798358793E+03  0.00000000000E+00 0. -1.
         25    2    1    2    0    0 -0.90497838058E+01  0.61161326392E+02 -0.53133814371E+02  0.14931016713E+03  0.12509083638E+03 0.  0.
          5    1    3    3  502    0 -0.20332388033E+02  0.47728273420E+02  0.32789761661E+02  0.61514510130E+02  0.41800000000E+01 0. -1.
         -5    1    3    3    0  502  0.11282604227E+02  0.13433052972E+02 -0.85923576032E+02  0.87795657002E+02  0.41800000000E+01 0. -1.
        -11    1    1    2    0    0 -0.74693576351E+01 -0.77725050983E+02 -0.11139269026E+03  0.13603421002E+03  0.00000000000E+00 0.  1.
         11    1    1    2    0    0  0.16519141441E+02  0.16563724591E+02 -0.10172051762E+03  0.10437577646E+03  0.00000000000E+00 0. -1.
</event>
<event>
 7    1  0.2719869E-009  0.8879267E+02  0.7561462E-02  0.1305802E+00
          1   -1    0    0  501    0  0.00000000000E+00  0.00000000000E+00  0.65190790255E+03  0.65190790255E+03  0.00000000000E+00 0. -1.
         -1   -1    0    0    0  501 -0.00000000000E+00 -0.00000000000E+00 -0.24771948774E+02  0.24771948774E+02  0.00000000000E+00 0.  1.
         25    2    1    2    0    0 -0.40846677931E+02 -0.51504056701E+02  0.37861486396E+03  0.40412512023E+03  0.12508708418E+03 0.  0.
          5    1    3    3  502    0  0.70640435879E+00 -0.44108512462E+02  0.31351161061E+02  0.54281005689E+02  0.41800000000E+01 0. -1.
         -5    1    3    3    0  502 -0.41553082289E+02 -0.73955442384E+01  0.34726370290E+03  0.34984411454E+03  0.41800000000E+01 0. -1.
        -11    1    1    2    0    0 -0.11380403791E+02  0.33880301910E+02  0.28437589900E+02  0.45673679153E+02  0.00000000000E+00 0.  1.
         11    1    1    2    0    0  0.52227081722E+02  0.17623754791E+02  0.22008349991E+03  0.22688105194E+03  0.00000000000E+00 0. -1.
</event>
<event>
 7    1  0.2719869E-009  0.1766350E+03  0.7561462E-02  0.1171100E+00
          1   -1    0    0  501    0  0.00000000000E+00  0.00000000000E+00  0.10532976945E+04  0.10532976945E+04  0.00000000000E+00 0. -1.
         -1   -1    0    0    0  501 -0.00000000000E+00 -0.00000000000E+00 -0.31631496638E+02  0.31631496638E+02  0.00000000000E+00 0.  1.
         25    2    1    2    0    0  0.11973460313E+03 -0.73096344698E+02  0.66658914654E+03  0.69258110625E+03  0.12509215665E+03 0.  0.
          5    1    3    3  502    0  0.11379188482E+03 -0.10434138278E+03  0.51623513581E+03  0.53884311730E+03  0.41800000000E+01 0.  1.
         -5    1    3    3    0  502  0.59427183053E+01  0.31245038078E+02  0.15035401073E+03  0.15373798895E+03  0.41800000000E+01 0.  1.
        -11    1    1    2    0    0 -0.70677698745E+01  0.51557001423E+02  0.10301632392E+03  0.11541421385E+03  0.00000000000E+00 0.  1.
         11    1    1    2    0    0 -0.11266683325E+03  0.21539343275E+02  0.25206072740E+03  0.27693387103E+03  0.00000000000E+00 0. -1.
</event>
<event>
 7    1  0.2719869E-009  0.1096659E+03  0.7561462E-02  0.1261190E+00
          3   -1    0    0  501    0  0.00000000000E+00  0.00000000000E+00  0.18278850228E+03  0.18278850228E+03  0.00000000000E+00 0. -1.
         -3   -1    0    0    0  501 -0.00000000000E+00 -0.00000000000E+00 -0.91195163911E+02  0.91195163911E+02  0.00000000000E+00 0.  1.
         25    2    1    2    0    0  0.35192513394E+02  0.10811555237E+02 -0.13515597751E+02  0.13109528804E+03  0.12509156821E+03 0.  0.
          5    1    3    3  502    0  0.28671007930E+01 -0.55400378303E+02  0.20590337219E+01  0.55669867998E+02  0.41800000000E+01 0.  1.
         -5    1    3    3    0  502  0.32325412601E+02  0.66211933540E+02 -0.15574631473E+02  0.75425420041E+02  0.41800000000E+01 0.  1.
        -11    1    1    2    0    0  0.24045392182E+02 -0.18264129271E+02  0.62893693995E+02  0.69766582599E+02  0.00000000000E+00 0. -1.
         11    1    1    2    0    0 -0.59237905576E+02  0.74525740340E+01  0.42215242122E+02  0.73121795548E+02  0.00000000000E+00 0.  1.
</event>
<event>
 7    1  0.2719869E-009  0.1078045E+03  0.7561462E-02  0.1264690E+00
         -2   -1    0    0    0  501 -0.00000000000E+00  0.00000000000E+00  0.21249763538E+02  0.21249763538E+02  0.00000000000E+00 0.  1.
          2   -1    0    0  501    0  0.00000000000E+00 -0.00000000000E+00 -0.58107456817E+03  0.58107456817E+03  0.00000000000E+00 0. -1.
         25    2    1    2    0    0 -0.15822805401E+02 -0.19649071908E+02 -0.33694500369E+03  0.36029870797E+03  0.12508707469E+03 0.  0.
          5    1    3    3  502    0 -0.69567924160E+02 -0.64389287813E+01 -0.21972119835E+03  0.23059929159E+03  0.41800000000E+01 0.  1.
         -5    1    3    3    0  502  0.53745118758E+02 -0.13210143127E+02 -0.11722380534E+03  0.12969941638E+03  0.41800000000E+01 0.  1.
        -11    1    1    2    0    0  0.38948594506E+02  0.42470724644E+02 -0.10527062401E+03  0.12001108176E+03  0.00000000000E+00 0.  1.
         11    1    1    2    0    0 -0.23125789104E+02 -0.22821652736E+02 -0.11760917694E+03  0.12201454198E+03  0.00000000000E+00 0. -1.
</event>
<event>
 7    1  0.2719869E-009  0.1865351E+03  0.7561462E-02  0.1161624E+00
         -2   -1    0    0    0  501 -0.00000000000E+00  0.00000000000E+00  0.14938336412E+03  0.14938336412E+03  0.00000000000E+00 0.  1.
          2   -1    0    0  501    0  0.00000000000E+00 -0.00000000000E+00 -0.38499541397E+03  0.38499541397E+03  0.00000000000E+00 0. -1.
         25    2    1    2    0    0 -0.15445173743E+03  0.84965003929E+02 -0.25599704177E+03  0.33504652865E+03  0.12508916772E+03 0.  0.
          5    1    3    3  502    0 -0.95108141726E+02  0.84186099117E+02 -0.24288501975E+03  0.27412308025E+03  0.41800000000E+01 0. -1.
         -5    1    3    3    0  502 -0.59343595702E+02  0.77890481172E+00 -0.13112022014E+02  0.60923448400E+02  0.41800000000E+01 0. -1.
        -11    1    1    2    0    0  0.69374480709E+02 -0.72776449949E+02  0.44670181847E+02  0.11002115882E+03  0.00000000000E+00 0.  1.
         11    1    1    2    0    0  0.85077256720E+02 -0.12188553979E+02 -0.24285189932E+02  0.89311090628E+02  0.00000000000E+00 0. -1.
</event>
<event>
 7    1  0.2719869E-009  0.1226798E+03  0.7561462E-02  0.1238741E+00
         -2   -1    0    0    0  501 -0.00000000000E+00  0.00000000000E+00  0.47813226476E+02  0.47813226476E+02  0.00000000000E+00 0.  1.
          2   -1    0    0  501    0  0.00000000000E+00 -0.00000000000E+00 -0.39282032944E+03  0.39282032944E+03  0.00000000000E+00 0. -1.
         25    2    1    2    0    0  0.34171645425E+02  0.59375416163E+02 -0.11391392152E+03  0.18253224139E+03  0.12509394963E+03 0.  0.
          5    1    3    3  502    0 -0.18056931070E+02  0.82957966633E+02 -0.72221681793E+02  0.11154156494E+03  0.41800000000E+01 0. -1.
         -5    1    3    3    0  502  0.52228576495E+02 -0.23582550470E+02 -0.41692239729E+02  0.70990676451E+02  0.41800000000E+01 0. -1.
        -11    1    1    2    0    0  0.23749088507E+02 -0.29039457507E+02 -0.34669450523E+02  0.51081112916E+02  0.00000000000E+00 0.  1.
         11    1    1    2    0    0 -0.57920733932E+02 -0.30335958656E+02 -0.19642373091E+03  0.20702020161E+03  0.00000000000E+00 0. -1.
</event>
<event>
 7    1  0.2719869E-009  0.1741098E+03  0.7561462E-02  0.1173629E+00
         -1   -1    0    0    0  501 -0.00000000000E+00  0.00000000000E+00  0.18488119396E+03  0.18488119396E+03  0.00000000000E+00 0.  1.
          1   -1    0    0  501    0  0.00000000000E+00 -0.00000000000E+00 -0.24515732175E+03  0.24515732175E+03  0.00000000000E+00 0. -1.
         25    2    1    2    0    0 -0.14303967099E+03  0.17060429629E+02  0.82159108050E+02  0.20772312995E+03  0.12508946376E+03 0.  0.
          5    1    3    3  502    0 -0.52994698480E+02 -0.49478230796E+02  0.58401527661E+02  0.93191975099E+02  0.41800000000E+01 0.  1.
         -5    1    3    3    0  502 -0.90044972512E+02  0.66538660425E+02  0.23757580388E+02  0.11453115485E+03  0.41800000000E+01 0.  1.
        -11    1    1    2    0    0  0.27056870421E+02 -0.37036226199E+02 -0.71356624438E+02  0.84826435380E+02  0.00000000000E+00 0.  1.
         11    1    1    2    0    0  0.11598280057E+03  0.19975796570E+02 -0.71078611398E+02  0.13748895037E+03  0.00000000000E+00 0. -1.
</event>
<event>
 7    1  0.2719869E-009  0.1093010E+03  0.7561462E-02  0.1261870E+00
          1   -1    0    0  501    0  0.00000000000E+00  0.00000000000E+00  0.15517694212E+03  0.15517694212E+03  0.00000000000E+00 0. -1.
         -1   -1    0    0    0  501 -0.00000000000E+00 -0.00000000000E+00 -0.12608199045E+03  0.12608199045E+03  0.00000000000E+00 0.  1.
         25    2    1    2    0    0  0.82960989510E+02 -0.12014138560E+02  0.45941693559E+02  0.15743311059E+03  0.12509068629E+03 0.  0.
          5    1    3    3  502    0  0.65706342767E+01  0.13391496178E+02 -0.38009400960E+02  0.41045004154E+02  0.41800000000E+01 0.  1.
         -5    1    3    3    0  502  0.76390355233E+02 -0.25405634737E+02  0.83951094520E+02  0.11638810644E+03  0.41800000000E+01 0.  1.
        -11    1    1    2    0    0 -0.27645183441E+02  0.48786532817E+02 -0.11021217699E+02  0.57147608798E+02  0.00000000000E+00 0.  1.
         11    1    1    2    0    0 -0.55315806069E+02 -0.36772394258E+02 -0.58255241831E+01  0.66678213177E+02  0.00000000000E+00 0. -1.
</event>
<event>
 7    1  0.2719869E-009  0.1870919E+03  0.7561462E-02  0.1161111E+00
         -1   -1    0    0    0  501 -0.00000000000E+00  0.00000000000E+00  0.31382624076E+02  0.31382624076E+02  0.00000000000E+00 0.  1.
          1   -1    0    0  501    0  0.00000000000E+00 -0.00000000000E+00 -0.13890564180E+04  0.13890564180E+04  0.00000000000E+00 0. -1.
         25    2    1    2    0    0 -0.10332138458E+03  0.12388800680E+03 -0.45232222827E+03  0.49625244749E+03  0.12509015431E+03 0.  0.
          5    1    3    3  502    0 -0.64294142106E+02  0.14156165361E+03 -0.39536885003E+03  0.42486166979E+03  0.41800000000E+01 0. -1.
         -5    1    3    3    0  502 -0.39027242476E+02 -0.17673646811E+02 -0.56953378244E+02  0.71390777697E+02  0.41800000000E+01 0. -1.
        -11    1    1    2    0    0  0.70355054323E+02 -0.12407818950E+03 -0.82654999018E+03  0.83876702191E+03  0.00000000000E+00 0. -1.
         11    1    1    2    0    0  0.32966330259E+02  0.19018270192E+00 -0.78801575493E+02  0.85419572701E+02  0.00000000000E+00 0.  1.
</event>
<event>
 7    1  0.2719869E-009  0.1096938E+03  0.7561462E-02  0.1261138E+00
         -1   -1    0    0    0  501 -0.00000000000E+00  0.00000000000E+00  0.12708043282E+02  0.12708043282E+02  0.00000000000E+00 0.  1.
          1   -1    0    0  501    0  0.00000000000E+00 -0.00000000000E+00 -0.11755425661E+04  0.11755425661E+04  0.00000000000E+00 0. -1.
         25    2    1    2    0    0  0.39821399010E+02  0.39250609305E+01 -0.85873331085E+03  0.86871842554E+03  0.12509058238E+03 0.  0.
          5    1    3    3  502    0  0.34126353513E+02  0.61061517581E+02 -0.57083921149E+03  0.57512432979E+03  0.41800000000E+01 0.  1.
         -5    1    3    3    0  502  0.56950454964E+01 -0.57136456650E+02 -0.28789409935E+03  0.29359409576E+03  0.41800000000E+01 0.  1.
        -11    1    1    2    0    0 -0.36877051527E+02 -0.40657423076E+02 -0.12258437377E+03  0.13431258940E+03  0.00000000000E+00 0.  1.
         11    1    1    2    0    0 -0.29443474831E+01  0.36732362145E+02 -0.18151683822E+03  0.18521959445E+03  0.00000000000E+00 0. -1.
</event>
<event>
 7    1  0.2719869E-009  0.1024710E+03  0.7561462E-02  0.1275184E+00
         -2   -1    0    0    0  501 -0.00000000000E+00  0.00000000000E+00  0.22192757545E+03  0.22192757545E+03  0.00000000000E+00 0.  1.
          2   -1    0    0  501    0  0.00000000000E+00 -0.00000000000E+00 -0.93014556180E+02  0.93014556180E+02  0.00000000000E+00 0. -1.
         25    2    1    2    0    0  0.44619607108E+02  0.74500380011E+02  0.35946642996E+02  0.15648402508E+03  0.12511543870E+03 0.  0.
          5    1    3    3  502    0 -0.95027593295E+00  0.45029602027E+02 -0.41792245475E+02  0.61584350812E+02  0.41800000000E+01 0. -1.
         -5    1    3    3    0  502  0.45569883041E+02  0.29470777984E+02  0.77738888471E+02  0.94899674268E+02  0.41800000000E+01 0. -1.
        -11    1    1    2    0    0 -0.56767269477E+02 -0.42095820962E+02  0.10067410788E+03  0.12300348379E+03  0.00000000000E+00 0.  1.
         11    1    1    2    0    0  0.12147662369E+02 -0.32404559049E+02 -0.77077316142E+01  0.35454622757E+02  0.00000000000E+00 0. -1.
</event>
<event>
 7    1  0.2719869E-009  0.8556749E+02  0.7561462E-02  0.1313955E+00
          1   -1    0    0  501    0  0.00000000000E+00  0.00000000000E+00  0.14562449285E+03  0.14562449285E+03  0.00000000000E+00 0. -1.
         -1   -1    0    0    0  501 -0.00000000000E+00 -0.00000000000E+00 -0.90806090516E+02  0.90806090516E+02  0.00000000000E+00 0.  1.
         25    2    1    2    0    0 -0.97982118120E+01  0.16339014045E+02  0.67969038405E+02  0.14363262496E+03  0.12509025716E+03 0.  0.
          5    1    3    3  502    0 -0.93880697049E+01 -0.43969729141E+02  0.69820399375E+02  0.83149464836E+02  0.41800000000E+01 0. -1.
         -5    1    3    3    0  502 -0.41014210706E+00  0.60308743186E+02 -0.18513609707E+01  0.60483160124E+02  0.41800000000E+01 0. -1.
        -11    1    1    2    0    0 -0.11065957978E+01 -0.39715342422E+02  0.24855516921E+02  0.46865015730E+02  0.00000000000E+00 0. -1.
         11    1    1    2    0    0  0.10904807610E+02  0.23376328378E+02 -0.38006152993E+02  0.45932942675E+02  0.00000000000E+00 0.  1.
</event>
<event>
 7    1  0.2719869E-009  0.8818735E+02  0.7561462E-02  0.1307302E+00
          1   -1    0    0  501    0  0.00000000000E+00  0.00000000000E+00  0.18150656634E+02  0.18150656634E+02  0.00000000000E+00 0. -1.
         -1   -1    0    0    0  501 -0.00000000000E+00 -0.00000000000E+00 -0.10336017850E+04  0.10336017850E+04  0.00000000000E+00 0.  1.
         25    2    1    2    0    0 -0.53588985240E+02  0.37440525710E+02 -0.75698215188E+03  0.77002790520E+03  0.12508966475E+03 0.  0.
          5    1    3    3  502    0 -0.33835788873E+02  0.20004530819E+02 -0.56040610301E+02  0.68578890811E+02  0.41800000000E+01 0.  1.
         -5    1    3    3    0  502 -0.19753196367E+02  0.17435994891E+02 -0.70094154158E+03  0.70144901439E+03  0.41800000000E+01 0.  1.
        -11    1    1    2    0    0  0.12030041746E+02  0.29228473596E+02 -0.99554671810E+02  0.10445170297E+03  0.00000000000E+00 0.  1.
         11    1    1    2    0    0  0.41558943494E+02 -0.66668999306E+02 -0.15891430466E+03  0.17727283345E+03  0.00000000000E+00 0. -1.
</event>
<event>
 7    1  0.2719869E-009  0.1401610E+03  0.7561462E-02  0.1213112E+00
         -2   -1    0    0    0  501 -0.00000000000E+00  0.00000000000E+00  0.19040299112E+03  0.19040299112E+03  0.00000000000E+00 0.  1.
          2   -1    0    0  501    0  0.00000000000E+00 -0.00000000000E+00 -0.13207378564E+03  0.13207378564E+03  0.00000000000E+00 0. -1.
         25    2    1    2    0    0  0.67858618853E+02  0.57397051556E+02  0.10566958634E+03  0.18631444315E+03  0.12509115304E+03 0.  0.
          5    1    3    3  502    0  0.92843530523E+01 -0.39060311995E+02  0.24152004903E+02  0.47039333814E+02  0.41800000000E+01 0.  1.
         -5    1    3    3    0  502  0.58574265801E+02  0.96457363552E+02  0.81517581441E+02  0.13927510934E+03  0.41800000000E+01 0.  1.
        -11    1    1    2    0    0 -0.75446369384E+02 -0.66725248399E+01 -0.34853250592E+02  0.83375214049E+02  0.00000000000E+00 0. -1.
         11    1    1    2    0    0  0.75877505302E+01 -0.50724526716E+02 -0.12487130276E+02  0.52787119558E+02  0.00000000000E+00 0.  1.
</event>
<event>
 7    1  0.2719869E-009  0.3206649E+03  0.7561462E-02  0.1075344E+00
         -1   -1    0    0    0  501 -0.00000000000E+00  0.00000000000E+00  0.63796061048E+02  0.63796061048E+02  0.00000000000E+00 0.  1.
          1   -1    0    0  501    0  0.00000000000E+00 -0.00000000000E+00 -0.17252579526E+04  0.17252579526E+04  0.00000000000E+00 0. -1.
         25    2    1    2    0    0 -0.50235710351E+02  0.30813133153E+03 -0.75836867297E+03  0.82960090568E+03  0.12508426960E+03 0.  0.
          5    1    3    3  502    0 -0.14751343480E+01  0.23799278427E+03 -0.44370893663E+03  0.50352540575E+03  0.41800000000E+01 0. -1.
         -5    1    3    3    0  502 -0.48760576003E+02  0.70138547256E+02 -0.31465973634E+03  0.32607549994E+03  0.41800000000E+01 0. -1.
        -11    1    1    2    0    0  0.18868219543E+02 -0.25763605999E+03 -0.79727497490E+03  0.83808098339E+03  0.00000000000E+00 0.  1.
         11    1    1    2    0    0  0.31367490808E+02 -0.50495271545E+02 -0.10581824365E+03  0.12137212455E+03  0.00000000000E+00 0. -1.
</event>
<event>
 7    1  0.2719869E-009  0.1292337E+03  0.7561462E-02  0.1228597E+00
          2   -1    0    0  501    0  0.00000000000E+00  0.00000000000E+00  0.89105229539E+02  0.89105229539E+02  0.00000000000E+00 0.  1.
         -2   -1    0    0    0  501 -0.00000000000E+00 -0.00000000000E+00 -0.21378011139E+03  0.21378011139E+03  0.00000000000E+00 0. -1.
         25    2    1    2    0    0  0.71081831095E+02 -0.19940224688E+02 -0.23556431259E+02  0.14715286339E+03  0.12509524562E+03 0.  0.
          5    1    3    3  502    0  0.10408494801E+03 -0.41444097368E+01 -0.32605131830E+02  0.10923103751E+03  0.41800000000E+01 0.  1.
         -5    1    3    3    0  502 -0.33003116913E+02 -0.15795814951E+02  0.90487005713E+01  0.37921825879E+02  0.41800000000E+01 0.  1.
        -11    1    1    2    0    0  0.15075981784E+02  0.27020111676E+02 -0.17940455575E+02  0.35766347423E+02  0.00000000000E+00 0.  1.
         11    1    1    2    0    0 -0.86157812879E+02 -0.70798869883E+01 -0.83177995018E+02  0.11996613012E+03  0.00000000000E+00 0. -1.
</event>
<event>
 7    1  0.2719869E-009  0.1221130E+03  0.7561462E-02  0.1239651E+00
         -4   -1    0    0    0  501 -0.00000000000E+00  0.00000000000E+00  0.39756870502E+02  0.39756870502E+02  0.00000000000E+00 0.  1.
          4   -1    0    0  501    0  0.00000000000E+00 -0.00000000000E+00 -0.51585233420E+03  0.51585233420E+03  0.00000000000E+00 0. -1.
         25    2    1    2    0    0  0.26873116826E+02  0.73267607034E+02 -0.16905784817E+03  0.22431877598E+03  0.12509216835E+03 0.  0.
          5    1    3    3  502    0  0.65011663135E+02  0.50810240001E+02 -0.15832604660E+03  0.17858557126E+03  0.41800000000E+01 0.  1.
         -5    1    3    3    0  502 -0.38138546309E+02  0.22457367033E+02 -0.10731801570E+02  0.45733204715E+02  0.41800000000E+01 0.  1.
        -11    1    1    2    0    0 -0.58179907473E+02 -0.58611625791E+02 -0.15782673110E+03  0.17812776696E+03  0.00000000000E+00 0.  1.
         11    1    1    2    0    0  0.31306790646E+02 -0.14655981244E+02 -0.14921088443E+03  0.15316266176E+03  0.00000000000E+00 0. -1.
</event>
<event>
 7    1  0.2719869E-009  0.1200296E+03  0.7561462E-02  0.1243048E+00
         -2   -1    0    0    0  501 -0.00000000000E+00  0.00000000000E+00  0.21718873976E+02  0.21718873976E+02  0.00000000000E+00 0.  1.
          2   -1    0    0  501    0  0.00000000000E+00 -0.00000000000E+00 -0.17433857769E+04  0.17433857769E+04  0.00000000000E+00 0. -1.
         25    2    1    2    0    0  0.52245154488E+02 -0.10353336774E+03 -0.13993269330E+04  0.14096858730E+04  0.12509868394E+03 0.  0.
          5    1    3    3  502    0  0.38774223465E+02 -0.46729137322E+02 -0.20300140686E+03  0.21192946060E+03  0.41800000000E+01 0. -1.
         -5    1    3    3    0  502  0.13470931023E+02 -0.56804230415E+02 -0.11963255262E+04  0.11977564124E+04  0.41800000000E+01 0. -1.
        -11    1    1    2    0    0 -0.19953940132E+02  0.74883542566E+02 -0.88531528657E+02  0.11765855787E+03  0.00000000000E+00 0.  1.
         11    1    1    2    0    0 -0.32291214356E+02  0.28649825170E+02 -0.23380844120E+03  0.23776021993E+03  0.00000000000E+00 0. -1.
</event>
<event>
 7    1  0.2719869E-009  0.6449819E+02  0.7561462E-02  0.1379869E+00
          1   -1    0    0  501    0  0.00000000000E+00  0.00000000000E+00  0.20577577347E+03  0.20577577347E+03  0.00000000000E+00 0. -1.
         -1   -1    0    0    0  501 -0.00000000000E+00 -0.00000000000E+00 -0.61808307012E+02  0.61808307012E+02  0.00000000000E+00 0.  1.
         25    2    1    2    0    0  0.23643531329E+02  0.19503740011E+02  0.91878722550E+02  0.15821131522E+03  0.12509879360E+03 0.  0.
          5    1    3    3  502    0 -0.23928523299E+01  0.25894306913E+02  0.11778672420E+03  0.12069559093E+03  0.41800000000E+01 0.  1.
         -5    1    3    3    0  502  0.26036383659E+02 -0.63905669022E+01 -0.25908001651E+02  0.37515724289E+02  0.41800000000E+01 0.  1.
        -11    1    1    2    0    0 -0.48253187686E+02 -0.11035903590E+02 -0.17964542324E+01  0.49531692255E+02  0.00000000000E+00 0.  1.
         11    1    1    2    0    0  0.24609656357E+02 -0.84678364207E+01  0.53885198144E+02  0.59841073007E+02  0.00000000000E+00 0. -1.
</event>
<event>
 7    1  0.2719869E-009  0.1085612E+03  0.7561462E-02  0.1263258E+00
         -2   -1    0    0    0  501 -0.00000000000E+00  0.00000000000E+00  0.78239928605E+02  0.78239928605E+02  0.00000000000E+00 0.  1.
          2   -1    0    0  501    0  0.00000000000E+00 -0.00000000000E+00 -0.19464524641E+03  0.19464524641E+03  0.00000000000E+00 0. -1.
         25    2    1    2    0    0 -0.76550774742E+01  0.25015308058E+02 -0.12432812027E+03  0.17829679757E+03  0.12509156920E+03 0.  0.
          5    1    3    3  502    0  0.15527496799E+02  0.70349703871E+02 -0.95290173703E+02  0.11953189363E+03  0.41800000000E+01 0. -1.
         -5    1    3    3    0  502 -0.23182574274E+02 -0.45334395813E+02 -0.29037946565E+02  0.58764903934E+02  0.41800000000E+01 0. -1.
        -11    1    1    2    0    0 -0.38495182659E+02  0.49970775333E+01 -0.93551605598E+00  0.38829435511E+02  0.00000000000E+00 0.  1.
         11    1    1    2    0    0  0.46150260133E+02 -0.30012385591E+02  0.88583185145E+01  0.55758941939E+02  0.00000000000E+00 0. -1.
</event>
<event>
 7    1  0.2719869E-009  0.1229646E+03  0.7561462E-02  0.1238285E+00
          2   -1    0    0  501    0  0.00000000000E+00  0.00000000000E+00  0.14889886213E+03  0.14889886213E+03  0.00000000000E+00 0. -1.
         -2   -1    0    0    0  501 -0.00000000000E+00 -0.00000000000E+00 -0.13965296004E+03  0.13965296004E+03  0.00000000000E+00 0.  1.
         25    2    1    2    0    0  0.23440679458E+02  0.66112410791E+02  0.68760762065E+02  0.15905200293E+03  0.12509668630E+03 0.  0.
          5    1    3    3  502    0  0.26628445040E+02  0.10281037660E+03  0.53029589732E+02  0.11877986955E+03  0.41800000000E+01 0. -1.
         -5    1    3    3    0  502 -0.31877655824E+01 -0.36697965813E+02  0.15731172332E+02  0.40272133383E+02  0.41800000000E+01 0. -1.
        -11    1    1    2    0    0 -0.48764967500E+02 -0.26347869229E+02 -0.24525615557E+01  0.55481954962E+02  0.00000000000E+00 0. -1.
         11    1    1    2    0    0  0.25324288043E+02 -0.39764541562E+02 -0.57062298421E+02  0.74017864273E+02  0.00000000000E+00 0.  1.
</event>
<event>
 7    1  0.2719869E-009  0.1242674E+03  0.7561462E-02  0.1236219E+00
         -1   -1    0    0    0  501 -0.00000000000E+00  0.00000000000E+00  0.14729133322E+03  0.14729133322E+03  0.00000000000E+00 0.  1.
          1   -1    0    0  501    0  0.00000000000E+00 -0.00000000000E+00 -0.15979679333E+03  0.15979679333E+03  0.00000000000E+00 0. -1.
         25    2    1    2    0    0  0.37273557485E+02  0.46677152748E+02 -0.96121862767E+02  0.16868397253E+03  0.12508715126E+03 0.  0.
          5    1    3    3  502    0 -0.14380341273E+02 -0.36952092140E+02 -0.33350173550E+02  0.51980359795E+02  0.41800000000E+01 0.  1.
         -5    1    3    3    0  502  0.51653898758E+02  0.83629244887E+02 -0.62771689217E+02  0.11670361273E+03  0.41800000000E+01 0.  1.
        -11    1    1    2    0    0 -0.45232943290E+02  0.15332553553E+02  0.35237831973E+02  0.59353274208E+02  0.00000000000E+00 0.  1.
         11    1    1    2    0    0  0.79593858047E+01 -0.62009706301E+02  0.48378570688E+02  0.79050879816E+02  0.00000000000E+00 0. -1.
</event>
<event>
 7    1  0.2719869E-009  0.1104683E+03  0.7561462E-02  0.1259705E+00
          4   -1    0    0  501    0  0.00000000000E+00  0.00000000000E+00  0.57371409727E+02  0.57371409727E+02  0.00000000000E+00 0.  1.
         -4   -1    0    0    0  501 -0.00000000000E+00 -0.00000000000E+00 -0.21472154399E+03  0.21472154399E+03  0.00000000000E+00 0. -1.
         25    2    1    2    0    0  0.24704541114E+02  0.11665977700E+02 -0.85885890276E+02  0.15417611782E+03  0.12508988676E+03 0.  0.
          5    1    3    3  502    0  0.71289795950E+02 -0.15643012579E+02 -0.57617329108E+02  0.93081511927E+02  0.41800000000E+01 0.  1.
         -5    1    3    3    0  502 -0.46585254836E+02  0.27308990279E+02 -0.28268561168E+02  0.61094605889E+02  0.41800000000E+01 0.  1.
        -11    1    1    2    0    0  0.29502140607E+02  0.15181241193E+02 -0.28238065098E+02  0.43568735408E+02  0.00000000000E+00 0. -1.
         11    1    1    2    0    0 -0.54206681720E+02 -0.26847218893E+02 -0.43226178884E+02  0.74348100489E+02  0.00000000000E+00 0.  1.
</event>
<event>
 7    1  0.2719869E-009  0.8411463E+02  0.7561462E-02  0.1317764E+00
          2   -1    0    0  501    0  0.00000000000E+00  0.00000000000E+00  0.22981281894E+03  0.22981281894E+03  0.00000000000E+00 0.  1.
         -2   -1    0    0    0  501 -0.00000000000E+00 -0.00000000000E+00 -0.52817939689E+02  0.52817939689E+02  0.00000000000E+00 0. -1.
         25    2    1    2    0    0 -0.32270555622E+02  0.15372991382E+02  0.81975220972E+02  0.15376841318E+03  0.12508825050E+03 0.  0.
          5    1    3    3  502    0  0.21727184003E+02 -0.10249108758E+02 -0.22599387039E+02  0.33246344905E+02  0.41800000000E+01 0.  1.
         -5    1    3    3    0  502 -0.53997739625E+02  0.25622100139E+02  0.10457460801E+03  0.12052206827E+03  0.41800000000E+01 0.  1.
        -11    1    1    2    0    0 -0.14983303175E+02  0.19938466457E+02  0.45308503217E+02  0.51719457484E+02  0.00000000000E+00 0.  1.
         11    1    1    2    0    0  0.47253858798E+02 -0.35311457838E+02  0.49711155057E+02  0.77142887962E+02  0.00000000000E+00 0. -1.
</event>
<event>
 7    1  0.2719869E-009  0.1021875E+03  0.7561462E-02  0.1275762E+00
         -1   -1    0    0    0  501 -0.00000000000E+00  0.00000000000E+00  0.41900361046E+02  0.41900361046E+02  0.00000000000E+00 0.  1.
          1   -1    0    0  501    0  0.00000000000E+00 -0.00000000000E+00 -0.30569541660E+03  0.30569541660E+03  0.00000000000E+00 0. -1.
         25    2    1    2    0    0  0.27915607488E+01 -0.17311680961E+02 -0.11007552792E+03  0.16754476907E+03  0.12508853140E+03 0.  0.
          5    1    3    3  502    0 -0.11593394991E+02  0.52803435738E+02 -0.53975240827E+02  0.76507572537E+02  0.41800000000E+01 0. -1.
         -5    1    3    3    0  502  0.14384955740E+02 -0.70115116699E+02 -0.56100287095E+02  0.91037196538E+02  0.41800000000E+01 0. -1.
        -11    1    1    2    0    0  0.10503790145E+02 -0.28699584466E+02 -0.16537522367E+02  0.34748890658E+02  0.00000000000E+00 0.  1.
         11    1    1    2    0    0 -0.13295350894E+02  0.46011265426E+02 -0.13718200526E+03  0.14530211791E+03  0.00000000000E+00 0. -1.
</event>
<event>
 7    1  0.2719869E-009  0.1091434E+03  0.7561462E-02  0.1262165E+00
          1   -1    0    0  501    0  0.00000000000E+00  0.00000000000E+00  0.11116000839E+04  0.11116000839E+04  0.00000000000E+00 0. -1.
         -1   -1    0    0    0  501 -0.00000000000E+00 -0.00000000000E+00 -0.31730925249E+02  0.31730925249E+02  0.00000000000E+00 0.  1.
         25    2    1    2    0    0  0.11321555791E+01 -0.73706098584E+02  0.97116604870E+03  0.98195935243E+03  0.12508718929E+03 0.  0.
          5    1    3    3  502    0 -0.59487928240E+02 -0.54652371983E+02  0.58791988910E+03  0.59345847687E+03  0.41800000000E+01 0.  1.
         -5    1    3    3    0  502  0.60620083819E+02 -0.19053726601E+02  0.38324615960E+03  0.38850087555E+03  0.41800000000E+01 0.  1.
        -11    1    1    2    0    0 -0.18071168009E+00  0.21480642443E+02 -0.15594297390E+02  0.26544919807E+02  0.00000000000E+00 0.  1.
         11    1    1    2    0    0 -0.95144389905E+00  0.52225456140E+02  0.12429740729E+03  0.13482673687E+03  0.00000000000E+00 0. -1.
</event>
<event>
 7    1  0.2719869E-009  0.1051418E+03  0.7561462E-02  0.1269840E+00
         -4   -1    0    0    0  501 -0.00000000000E+00  0.00000000000E+00  0.25435321846E+03  0.25435321846E+03  0.00000000000E+00 0.  1.
          4   -1    0    0  501    0  0.00000000000E+00 -0.00000000000E+00 -0.61804922896E+02  0.61804922896E+02  0.00000000000E+00 0. -1.
         25    2    1    2    0    0  0.27099733188E+02  0.40650981086E+02  0.17278275744E+03  0.21883709749E+03  0.12509554815E+03 0.  0.
          5    1    3    3  502    0  0.62225814147E+02  0.48562591304E+02  0.56834759659E+02  0.97355223414E+02  0.41800000000E+01 0. -1.
         -5    1    3    3    0  502 -0.35126080960E+02 -0.79116102180E+01  0.11594799778E+03  0.12148187408E+03  0.41800000000E+01 0. -1.
        -11    1    1    2    0    0 -0.37031616219E+02 -0.61562564942E+02  0.11598367853E+02  0.72772330861E+02  0.00000000000E+00 0.  1.
         11    1    1    2    0    0  0.99318830316E+01  0.20911583856E+02  0.81671702695E+01  0.24548713004E+02  0.00000000000E+00 0. -1.
</event>
<event>
 7    1  0.2719869E-009  0.1363279E+03  0.7561462E-02  0.1218357E+00
         -2   -1    0    0    0  501 -0.00000000000E+00  0.00000000000E+00  0.19018558790E+03  0.19018558790E+03  0.00000000000E+00 0.  1.
          2   -1    0    0  501    0  0.00000000000E+00 -0.00000000000E+00 -0.22043669141E+03  0.22043669141E+03  0.00000000000E+00 0. -1.
         25    2    1    2    0    0  0.11172900593E+03  0.42052409253E+02 -0.13770370465E+03  0.22104658360E+03  0.12508999143E+03 0.  0.
          5    1    3    3  502    0  0.63618829846E+02  0.44973238561E+02 -0.15178123949E+03  0.17066037841E+03  0.41800000000E+01 0.  1.
         -5    1    3    3    0  502  0.48110176086E+02 -0.29208293077E+01  0.14077534837E+02  0.50386205195E+02  0.41800000000E+01 0.  1.
        -11    1    1    2    0    0 -0.16791324149E+02  0.24935726700E+02 -0.17606454568E+01  0.30113766041E+02  0.00000000000E+00 0. -1.
         11    1    1    2    0    0 -0.94937681782E+02 -0.66988135953E+02  0.10921324660E+03  0.15946192967E+03  0.00000000000E+00 0.  1.
</event>
<event>
 7    1  0.2719869E-009  0.1591000E+03  0.7561462E-02  0.1189717E+00
          1   -1    0    0  501    0  0.00000000000E+00  0.00000000000E+00  0.22368375096E+03  0.22368375096E+03  0.00000000000E+00 0. -1.
         -1   -1    0    0    0  501 -0.00000000000E+00 -0.00000000000E+00 -0.11732177977E+03  0.11732177977E+03  0.00000000000E+00 0.  1.
         25    2    1    2    0    0  0.73585614881E+02  0.92592227802E+02  0.42627411621E+02  0.17734940860E+03  0.12509018005E+03 0.  0.
          5    1    3    3  502    0  0.10127337420E+03  0.35372323873E+02  0.17038307559E+02  0.10869808620E+03  0.41800000000E+01 0. -1.
         -5    1    3    3    0  502 -0.27687759319E+02  0.57219903929E+02  0.25589104063E+02  0.68651322408E+02  0.41800000000E+01 0. -1.
        -11    1    1    2    0    0 -0.91245718533E+02 -0.57488321718E+02  0.30194609997E+02  0.11199286923E+03  0.00000000000E+00 0.  1.
         11    1    1    2    0    0  0.17660103651E+02 -0.35103906084E+02  0.33539949576E+02  0.51663252906E+02  0.00000000000E+00 0. -1.
</event>
<event>
 7    1  0.2719869E-009  0.1660162E+03  0.7561462E-02  0.1182067E+00
         -2   -1    0    0    0  501 -0.00000000000E+00  0.00000000000E+00  0.11934357874E+03  0.11934357874E+03  0.00000000000E+00 0.  1.
          2   -1    0    0  501    0  0.00000000000E+00 -0.00000000000E+00 -0.28448781981E+03  0.28448781981E+03  0.00000000000E+00 0. -1.
         25    2    1    2    0    0 -0.12357483303E+01  0.14888299025E+03 -0.96534574039E+02  0.21710448659E+03  0.12509101587E+03 0.  0.
          5    1    3    3  502    0  0.27315530742E+02  0.11047871236E+03 -0.53108534516E+01  0.11400597208E+03  0.41800000000E+01 0. -1.
         -5    1    3    3    0  502 -0.28551279073E+02  0.38404277891E+02 -0.91223720588E+02  0.10309851451E+03  0.41800000000E+01 0. -1.
        -11    1    1    2    0    0  0.41151074873E+02 -0.60903120262E+02 -0.48452448772E+02  0.88035452023E+02  0.00000000000E+00 0.  1.
         11    1    1    2    0    0 -0.39915326543E+02 -0.87979869992E+02 -0.20157218260E+02  0.98691459939E+02  0.00000000000E+00 0. -1.
</event>
<event>
 7    1  0.2719869E-009  0.3014396E+03  0.7561462E-02  0.1084523E+00
          1   -1    0    0  501    0  0.00000000000E+00  0.00000000000E+00  0.67401174912E+03  0.67401174912E+03  0.00000000000E+00 0. -1.
         -1   -1    0    0    0  501 -0.00000000000E+00 -0.00000000000E+00 -0.14770978071E+03  0.14770978071E+03  0.00000000000E+00 0.  1.
         25    2    1    2    0    0 -0.14010525548E+03 -0.25971662138E+03  0.29650637993E+03  0.43663041772E+03  0.12509149573E+03 0.  0.
          5    1    3    3  502    0 -0.20601281416E+02 -0.13905966219E+02 -0.89272339884E+01  0.26738672352E+02  0.41800000000E+01 0. -1.
         -5    1    3    3    0  502 -0.11950397406E+03 -0.24581065516E+03  0.30543361391E+03  0.40989174536E+03  0.41800000000E+01 0. -1.
        -11    1    1    2    0    0  0.70397698148E+01  0.82041065499E+02  0.93580777902E+02  0.12465013750E+03  0.00000000000E+00 0.  1.
         11    1    1    2    0    0  0.13306548567E+03  0.17767555588E+03  0.13621481058E+03  0.26044097461E+03  0.00000000000E+00 0. -1.
</event>
<event>
 7    1  0.2719869E-009  0.1839738E+03  0.7561462E-02  0.1164012E+00
         -2   -1    0    0    0  501 -0.00000000000E+00  0.00000000000E+00  0.76585300792E+03  0.76585300792E+03  0.00000000000E+00 0.  1.
          2   -1    0    0  501    0  0.00000000000E+00 -0.00000000000E+00 -0.50549044609E+02  0.50549044609E+02  0.00000000000E+00 0. -1.
         25    2    1    2    0    0  0.34430220400E+02  0.15409003936E+03  0.28450871601E+03  0.34860045743E+03  0.12509152299E+03 0.  0.
          5    1    3    3  502    0 -0.27855706809E+02  0.12854280076E+03  0.21240762970E+03  0.24986729594E+03  0.41800000000E+01 0. -1.
         -5    1    3    3    0  502  0.62285927210E+02  0.25547238598E+02  0.72101086316E+02  0.98733161482E+02  0.41800000000E+01 0. -1.
        -11    1    1    2    0    0 -0.19856820413E+02 -0.69416841638E+01  0.13283691360E+02  0.24878439503E+02  0.00000000000E+00 0. -1.
         11    1    1    2    0    0 -0.14573399987E+02 -0.14714835519E+03  0.41751155594E+03  0.44292315560E+03  0.00000000000E+00 0.  1.
</event>
<event>
 7    1  0.2719869E-009  0.2362486E+03  0.7561462E-02  0.1122317E+00
          4   -1    0    0  501    0  0.00000000000E+00  0.00000000000E+00  0.13786399055E+03  0.13786399055E+03  0.00000000000E+00 0. -1.
         -4   -1    0    0    0  501 -0.00000000000E+00 -0.00000000000E+00 -0.77924035514E+03  0.77924035514E+03  0.00000000000E+00 0.  1.
         25    2    1    2    0    0  0.71789885177E+02 -0.20759430910E+03 -0.63047252522E+03  0.67925766729E+03  0.12508472620E+03 0.  0.
          5    1    3    3  502    0 -0.26780715823E+01 -0.15391119107E+03 -0.31423174312E+03  0.34993554776E+03  0.41800000000E+01 0. -1.
         -5    1    3    3    0  502  0.74467956760E+02 -0.53683118034E+02 -0.31624078211E+03  0.32932211953E+03  0.41800000000E+01 0. -1.
        -11    1    1    2    0    0  0.15206375404E+00  0.81014360246E+02  0.30360188408E+02  0.86516418844E+02  0.00000000000E+00 0.  1.
         11    1    1    2    0    0 -0.71941948931E+02  0.12657994886E+03 -0.41264027780E+02  0.15133025956E+03  0.00000000000E+00 0. -1.
</event>
<event>
 7    1  0.2719869E-009  0.1860821E+03  0.7561462E-02  0.1162043E+00
          2   -1    0    0  501    0  0.00000000000E+00  0.00000000000E+00  0.77878280729E+03  0.77878280729E+03  0.00000000000E+00 0. -1.
         -2   -1    0    0    0  501 -0.00000000000E+00 -0.00000000000E+00 -0.58898731418E+02  0.58898731418E+02  0.00000000000E+00 0.  1.
         25    2    1    2    0    0  0.15016829613E+03 -0.60739591567E+02  0.20142274835E+03  0.28716078042E+03  0.12510145928E+03 0.  0.
          5    1    3    3  502    0  0.15358992133E+02  0.35549755386E+02  0.38783504174E+02  0.54966502012E+02  0.41800000000E+01 0. -1.
         -5    1    3    3    0  502  0.13480930400E+03 -0.96289346953E+02  0.16263924417E+03  0.23219427841E+03  0.41800000000E+01 0. -1.
        -11    1    1    2    0    0 -0.87141084552E+02  0.12302177361E+02  0.38712856687E+03  0.39700559123E+03  0.00000000000E+00 0. -1.
         11    1    1    2    0    0 -0.63027211576E+02  0.48437414206E+02  0.13133276065E+03  0.15351516705E+03  0.00000000000E+00 0.  1.
</event>
<event>
 7    1  0.2719869E-009  0.1209710E+03  0.7561462E-02  0.1241504E+00
         -1   -1    0    0    0  501 -0.00000000000E+00  0.00000000000E+00  0.14018355867E+03  0.14018355867E+03  0.00000000000E+00 0.  1.
          1   -1    0    0  501    0  0.00000000000E+00 -0.00000000000E+00 -0.14657094643E+03  0.14657094643E+03  0.00000000000E+00 0. -1.
         25    2    1    2    0    0 -0.68312382803E+02  0.56109955669E+02  0.93304066985E+01  0.15345665011E+03  0.12508788193E+03 0.  0.
          5    1    3    3  502    0 -0.29649909112E+02 -0.38225314257E+02  0.16203789574E+02  0.51189129285E+02  0.41800000000E+01 0. -1.
         -5    1    3    3    0  502 -0.38662473690E+02  0.94335269925E+02 -0.68733828756E+01  0.10226752083E+03  0.41800000000E+01 0. -1.
        -11    1    1    2    0    0  0.19771432135E+02 -0.40729382203E+01  0.38743466932E+02  0.43687007043E+02  0.00000000000E+00 0.  1.
         11    1    1    2    0    0  0.48540950668E+02 -0.52037017449E+02 -0.54461261398E+02  0.89610847947E+02  0.00000000000E+00 0. -1.
</event>
<event>
 7    1  0.2719869E-009  0.1457883E+03  0.7561462E-02  0.1205746E+00
          2   -1    0    0  501    0  0.00000000000E+00  0.00000000000E+00  0.39618877994E+03  0.39618877994E+03  0.00000000000E+00 0. -1.
         -2   -1    0    0    0  501 -0.00000000000E+00 -0.00000000000E+00 -0.70138632556E+02  0.70138632556E+02  0.00000000000E+00 0.  1.
         25    2    1    2    0    0  0.41613622105E+02 -0.11900868647E+03  0.18959556210E+03  0.25978251679E+03  0.12508284398E+03 0.  0.
          5    1    3    3  502    0 -0.12082114300E+02 -0.41091145892E+02 -0.50345799721E+01  0.43327579579E+02  0.41800000000E+01 0.  1.
         -5    1    3    3    0  502  0.53695736404E+02 -0.77917540581E+02  0.19463014207E+03  0.21645493721E+03  0.41800000000E+01 0.  1.
        -11    1    1    2    0    0  0.13556262535E+02  0.90899375937E+02  0.68587504011E+02  0.11467656476E+03  0.00000000000E+00 0.  1.
         11    1    1    2    0    0 -0.55169884640E+02  0.28109310536E+02  0.67867081268E+02  0.91868330941E+02  0.00000000000E+00 0. -1.
</event>
<event>
 7    1  0.2719869E-009  0.1100758E+03  0.7561462E-02  0.1260430E+00
         -1   -1    0    0    0  501 -0.00000000000E+00  0.00000000000E+00  0.36981155784E+03  0.36981155784E+03  0.00000000000E+00 0.  1.
          1   -1    0    0  501    0  0.00000000000E+00 -0.00000000000E+00 -0.38583441398E+02  0.38583441398E+02  0.00000000000E+00 0. -1.
         25    2    1    2    0    0 -0.48774930251E+02 -0.12880582261E+02  0.17312712289E+03  0.21946576107E+03  0.12508923368E+03 0.  0.
          5    1    3    3  502    0  0.38954372952E+02 -0.24572526832E+02  0.57241365959E+02  0.73588712612E+02  0.41800000000E+01 0. -1.
         -5    1    3    3    0  502 -0.87729303203E+02  0.11691944571E+02  0.11588575693E+03  0.14587704846E+03  0.41800000000E+01 0. -1.
        -11    1    1    2    0    0  0.23866189954E+02 -0.28394796688E+02  0.12516011449E+03  0.13054085093E+03  0.00000000000E+00 0.  1.
         11    1    1    2    0    0  0.24908740297E+02  0.41275378949E+02  0.32940879059E+02  0.58388387234E+02  0.00000000000E+00 0. -1.
</event>
<event>
 7    1  0.2719869E-009  0.1030199E+03  0.7561462E-02  0.1274071E+00
         -2   -1    0    0    0  501 -0.00000000000E+00  0.00000000000E+00  0.23866776965E+02  0.23866776965E+02  0.00000000000E+00 0.  1.
          2   -1    0    0  501    0  0.00000000000E+00 -0.00000000000E+00 -0.66323405429E+03  0.66323405429E+03  0.00000000000E+00 0. -1.
         25    2    1    2    0    0  0.34262870945E+02 -0.51339353781E+02 -0.40717459252E+03  0.43040497909E+03  0.12509046190E+03 0.  0.
          5    1    3    3  502    0 -0.19205134062E+02  0.21531151558E+02 -0.27424682255E+02  0.40025157820E+02  0.41800000000E+01 0.  1.
         -5    1    3    3    0  502  0.53468005007E+02 -0.72870505339E+02 -0.37974991026E+03  0.39037982127E+03  0.41800000000E+01 0.  1.
        -11    1    1    2    0    0 -0.46211122736E+02  0.56839754953E+02 -0.23226395985E+03  0.24354213733E+03  0.00000000000E+00 0. -1.
         11    1    1    2    0    0  0.11948251791E+02 -0.55004011717E+01  0.71275046285E-01  0.13153714839E+02  0.00000000000E+00 0.  1.
</event>
<event>
 7    1  0.2719869E-009  0.1079323E+03  0.7561462E-02  0.1264447E+00
          2   -1    0    0  501    0  0.00000000000E+00  0.00000000000E+00  0.22721336180E+03  0.22721336180E+03  0.00000000000E+00 0. -1.
         -2   -1    0    0    0  501 -0.00000000000E+00 -0.00000000000E+00 -0.59095251806E+02  0.59095251806E+02  0.00000000000E+00 0.  1.
         25    2    1    2    0    0 -0.10515210937E+02  0.26542509223E+02  0.67073667912E+02  0.14478164159E+03  0.12509105626E+03 0.  0.
          5    1    3    3  502    0 -0.23151158475E+02  0.74060246300E+02  0.50724457567E+02  0.92797301772E+02  0.41800000000E+01 0. -1.
         -5    1    3    3    0  502  0.12635947538E+02 -0.47517737077E+02  0.16349210345E+02  0.51984339815E+02  0.41800000000E+01 0. -1.
        -11    1    1    2    0    0 -0.37034462059E+02 -0.14401259314E+02  0.15003125409E+02  0.42474008780E+02  0.00000000000E+00 0.  1.
         11    1    1    2    0    0  0.47549672996E+02 -0.12141249909E+02  0.86041316671E+02  0.99052963236E+02  0.00000000000E+00 0. -1.
</event>
<event>
 7    1  0.2719869E-009  0.1172905E+03  0.7561462E-02  0.1247635E+00
          2   -1    0    0  501    0  0.00000000000E+00  0.00000000000E+00  0.47249129486E+02  0.47249129486E+02  0.00000000000E+00 0. -1.
         -2   -1    0    0    0  501 -0.00000000000E+00 -0.00000000000E+00 -0.50808563630E+03  0.50808563630E+03  0.00000000000E+00 0.  1.
         25    2    1    2    0    0 -0.10146710845E+02  0.10935478159E+03 -0.22889053445E+03  0.28302045617E+03  0.12509307675E+03 0.  0.
          5    1    3    3  502    0 -0.39996214474E+01  0.51570726641E+02 -0.21756657984E+03  0.22366990383E+03  0.41800000000E+01 0. -1.
         -5    1    3    3    0  502 -0.61470893976E+01  0.57784054948E+02 -0.11323954610E+02  0.59350552334E+02  0.41800000000E+01 0. -1.
        -11    1    1    2    0    0 -0.12069157004E+02 -0.99317994738E+02 -0.11313141525E+03  0.15102465278E+03  0.00000000000E+00 0. -1.
         11    1    1    2    0    0  0.22215867849E+02 -0.10036786852E+02 -0.11881455712E+03  0.12128965685E+03  0.00000000000E+00 0.  1.
</event>
<event>
 7    1  0.2719869E-009  0.1286584E+03  0.7561462E-02  0.1229460E+00
         -1   -1    0    0    0  501 -0.00000000000E+00  0.00000000000E+00  0.77495378452E+02  0.77495378452E+02  0.00000000000E+00 0.  1.
          1   -1    0    0  501    0  0.00000000000E+00 -0.00000000000E+00 -0.27995279411E+03  0.27995279411E+03  0.00000000000E+00 0. -1.
         25    2    1    2    0    0  0.89922173107E+02  0.33775692363E+02 -0.14110014618E+03  0.21162315505E+03  0.12509322081E+03 0.  0.
          5    1    3    3  502    0 -0.28823308147E+02 -0.10434219071E+02 -0.27106472465E+02  0.41132581607E+02  0.41800000000E+01 0.  1.
         -5    1    3    3    0  502  0.11874548125E+03  0.44209911434E+02 -0.11399367372E+03  0.17049057345E+03  0.41800000000E+01 0.  1.
        -11    1    1    2    0    0 -0.51550667357E+02 -0.53073424635E+01 -0.79347326426E+02  0.94771500990E+02  0.00000000000E+00 0. -1.
         11    1    1    2    0    0 -0.38371505750E+02 -0.28468349899E+02  0.17990056950E+02  0.51053516516E+02  0.00000000000E+00 0.  1.
</event>
<event>
 7    1  0.2719869E-009  0.1111987E+03  0.7561462E-02  0.1258366E+00
          1   -1    0    0  501    0  0.00000000000E+00  0.00000000000E+00  0.50908566395E+03  0.50908566395E+03  0.00000000000E+00 0. -1.
         -1   -1    0    0    0  501 -0.00000000000E+00 -0.00000000000E+00 -0.27317729910E+02  0.27317729910E+02  0.00000000000E+00 0.  1.
         25    2    1    2    0    0  0.10494265329E+02 -0.45313103503E+02  0.32241193858E+03  0.34894007797E+03  0.12508522264E+03 0.  0.
          5    1    3    3  502    0  0.53200397074E+02  0.12356612713E+02  0.19610108390E+03  0.20360765122E+03  0.41800000000E+01 0.  1.
         -5    1    3    3    0  502 -0.42706131744E+02 -0.57669716216E+02  0.12631085468E+03  0.14533242676E+03  0.41800000000E+01 0.  1.
        -11    1    1    2    0    0  0.26588411369E+02 -0.10618881937E+02  0.70664558240E+02  0.76244239546E+02  0.00000000000E+00 0. -1.
         11    1    1    2    0    0 -0.37082676698E+02  0.55931985440E+02  0.88691437223E+02  0.11121907634E+03  0.00000000000E+00 0.  1.
</event>
<event>
 7    1  0.2719869E-009  0.1181876E+03  0.7561462E-02  0.1246117E+00
          1   -1    0    0  501    0  0.00000000000E+00  0.00000000000E+00  0.10977259053E+03  0.10977259053E+03  0.00000000000E+00 0. -1.
         -1   -1    0    0    0  501 -0.00000000000E+00 -0.00000000000E+00 -0.20026039710E+03  0.20026039710E+03  0.00000000000E+00 0.  1.
         25    2    1    2    0    0 -0.69832750532E+02  0.11655614576E+01  0.28233033464E+02  0.14602552722E+03  0.12509348041E+03 0.  0.
          5    1    3    3  502    0 -0.86099621382E+02  0.32918356805E+02  0.49059232074E+02  0.10450379739E+03  0.41800000000E+01 0. -1.
         -5    1    3    3    0  502  0.16266870850E+02 -0.31752795348E+02 -0.20826198610E+02  0.41521729831E+02  0.41800000000E+01 0. -1.
        -11    1    1    2    0    0  0.61475896235E+02 -0.36754066523E+02 -0.54090659907E+02  0.89754925843E+02  0.00000000000E+00 0. -1.
         11    1    1    2    0    0  0.83568542973E+01  0.35588505065E+02 -0.64630180126E+02  0.74252534567E+02  0.00000000000E+00 0.  1.
</event>
<event>
 7    1  0.2719869E-009  0.1237119E+03  0.7561462E-02  0.1237096E+00
          1   -1    0    0  501    0  0.00000000000E+00  0.00000000000E+00  0.16864789903E+03  0.16864789903E+03  0.00000000000E+00 0. -1.
         -1   -1    0    0    0  501 -0.00000000000E+00 -0.00000000000E+00 -0.10207644714E+03  0.10207644714E+03  0.00000000000E+00 0.  1.
         25    2    1    2    0    0 -0.19313121667E+02  0.61072505648E+02  0.10133085467E+02  0.14089797070E+03  0.12508681430E+03 0.  0.
          5    1    3    3  502    0 -0.20568825960E+02  0.97292807327E+02  0.23105692769E+02  0.10217784690E+03  0.41800000000E+01 0.  1.
         -5    1    3    3    0  502  0.12557042935E+01 -0.36220301679E+02 -0.12972607303E+02  0.38720123802E+02  0.41800000000E+01 0.  1.
        -11    1    1    2    0    0  0.43046096193E+02  0.29335743471E+01  0.41669393881E+02  0.59982586159E+02  0.00000000000E+00 0.  1.
         11    1    1    2    0    0 -0.23732974527E+02 -0.64006079995E+02  0.14768972541E+02  0.69843789316E+02  0.00000000000E+00 0. -1.
</event>
<event>
 7    1  0.2719869E-009  0.1402103E+03  0.7561462E-02  0.1213046E+00
         -3   -1    0    0    0  501 -0.00000000000E+00  0.00000000000E+00  0.24943956307E+03  0.24943956307E+03  0.00000000000E+00 0.  1.
          3   -1    0    0  501    0  0.00000000000E+00 -0.00000000000E+00 -0.10695477013E+03  0.10695477013E+03  0.00000000000E+00 0. -1.
         25    2    1    2    0    0  0.11389092109E+03  0.22453381488E+02  0.11352957467E+03  0.20497146036E+03  0.12509611901E+03 0.  0.
          5    1    3    3  502    0  0.93497731473E+02  0.47179387717E+02  0.13136616125E+03  0.16805433984E+03  0.41800000000E+01 0. -1.
         -5    1    3    3    0  502  0.20393189615E+02 -0.24726006229E+02 -0.17836586585E+02  0.36917120523E+02  0.41800000000E+01 0. -1.
        -11    1    1    2    0    0 -0.31308750948E+02  0.31683275372E+02 -0.93407238480E+01  0.45511723174E+02  0.00000000000E+00 0.  1.
         11    1    1    2    0    0 -0.82582170140E+02 -0.54136656860E+02  0.38295942119E+02  0.10591114967E+03  0.00000000000E+00 0. -1.
</event>
<event>
 7    1  0.2719869E-009  0.1081554E+03  0.7561462E-02  0.1264024E+00
         -1   -1    0    0    0  501 -0.00000000000E+00  0.00000000000E+00  0.32315047941E+03  0.32315047941E+03  0.00000000000E+00 0.  1.
          1   -1    0    0  501    0  0.00000000000E+00 -0.00000000000E+00 -0.54733755029E+02  0.54733755029E+02  0.00000000000E+00 0. -1.
         25    2    1    2    0    0 -0.85488094350E+01 -0.45663026956E+02  0.59941233565E+02  0.14628096396E+03  0.12508786816E+03 0.  0.
          5    1    3    3  502    0 -0.57146628282E+02 -0.26503293905E+02 -0.44158002849E+01  0.63286123313E+02  0.41800000000E+01 0.  1.
         -5    1    3    3    0  502  0.48597818847E+02 -0.19159733051E+02  0.64357033850E+02  0.82994840642E+02  0.41800000000E+01 0.  1.
        -11    1    1    2    0    0  0.42381000667E+02 -0.18788681805E+01  0.93199199536E+02  0.10240004960E+03  0.00000000000E+00 0. -1.
         11    1    1    2    0    0 -0.33832191231E+02  0.47541895137E+02  0.11527629128E+03  0.12920322089E+03  0.00000000000E+00 0.  1.
</event>
<event>
 7    1  0.2719869E-009  0.1346202E+03  0.7561462E-02  0.1220757E+00
          2   -1    0    0  501    0  0.00000000000E+00  0.00000000000E+00  0.48766142971E+03  0.48766142971E+03  0.00000000000E+00 0. -1.
         -2   -1    0    0    0  501 -0.00000000000E+00 -0.00000000000E+00 -0.51584069509E+02  0.51584069509E+02  0.00000000000E+00 0.  1.
         25    2    1    2    0    0  0.23290508156E+02 -0.77586600080E+02  0.37266715926E+03  0.40136524818E+03  0.12510444668E+03 0.  0.
          5    1    3    3  502    0 -0.20726726802E+02  0.27191401852E+02  0.69448703947E+02  0.77521380397E+02  0.41800000000E+01 0. -1.
         -5    1    3    3    0  502  0.44017234958E+02 -0.10477800193E+03  0.30321845531E+03  0.32384386779E+03  0.41800000000E+01 0. -1.
        -11    1    1    2    0    0  0.91087693089E+01  0.86886613255E+02  0.36221572997E+02  0.94574074628E+02  0.00000000000E+00 0.  1.
         11    1    1    2    0    0 -0.32399277465E+02 -0.93000131751E+01  0.27188627941E+02  0.43306176403E+02  0.00000000000E+00 0. -1.
</event>
<event>
 7    1  0.3652874E-009  0.1222643E+03  0.7561462E-02  0.1239408E+00
          2   -1    0    0  501    0  0.00000000000E+00  0.00000000000E+00  0.12790983170E+04  0.12790983170E+04  0.00000000000E+00 0. -1.
         -2   -1    0    0    0  501 -0.00000000000E+00 -0.00000000000E+00 -0.14686408233E+02  0.14686408233E+02  0.00000000000E+00 0.  1.
         25    2    1    2    0    0  0.41108257681E+02 -0.61886378717E+02  0.87074638616E+03  0.88281789266E+03  0.12509336460E+03 0.  0.
          5    1    3    3  502    0  0.10832795608E+02 -0.86552265996E+02  0.35519101945E+03  0.36576874786E+03  0.41800000000E+01 0. -1.
         -5    1    3    3    0  502  0.30275462074E+02  0.24665887279E+02  0.51555536670E+03  0.51704914480E+03  0.41800000000E+01 0. -1.
        -11    1    1    2    0    0 -0.67746444177E+02  0.24541691175E+02  0.23401181955E+03  0.24485384823E+03  0.00000000000E+00 0.  1.
         11    1    1    2    0    0  0.26638186496E+02  0.37344687542E+02  0.15965370307E+03  0.16611298436E+03  0.00000000000E+00 0. -1.
</event>
<event>
 7    1  0.2719869E-009  0.1237504E+03  0.7561462E-02  0.1237035E+00
         -1   -1    0    0    0  501 -0.00000000000E+00  0.00000000000E+00  0.10399312155E+02  0.10399312155E+02  0.00000000000E+00 0.  1.
          1   -1    0    0  501    0  0.00000000000E+00 -0.00000000000E+00 -0.20986855411E+04  0.20986855411E+04  0.00000000000E+00 0. -1.
         25    2    1    2    0    0 -0.64876326918E+02 -0.43429571559E+02 -0.17200484335E+04  0.17263568921E+04  0.12508573005E+03 0.  0.
          5    1    3    3  502    0 -0.40898181089E+02  0.39366172643E+02 -0.89476393816E+03  0.89657254821E+03  0.41800000000E+01 0.  1.
         -5    1    3    3    0  502 -0.23978145829E+02 -0.82795744202E+02 -0.82528449529E+03  0.82978434386E+03  0.41800000000E+01 0.  1.
        -11    1    1    2    0    0  0.79712056118E+02  0.33716836141E+02 -0.30192616236E+03  0.31408636463E+03  0.00000000000E+00 0.  1.
         11    1    1    2    0    0 -0.14835729200E+02  0.97127354180E+01 -0.66311633151E+02  0.68641596582E+02  0.00000000000E+00 0. -1.
</event>
<event>
 7    1  0.2719869E-009  0.1113328E+03  0.7561462E-02  0.1258121E+00
          2   -1    0    0  501    0  0.00000000000E+00  0.00000000000E+00  0.40282082476E+03  0.40282082476E+03  0.00000000000E+00 0. -1.
         -2   -1    0    0    0  501 -0.00000000000E+00 -0.00000000000E+00 -0.46625529065E+02  0.46625529065E+02  0.00000000000E+00 0.  1.
         25    2    1    2    0    0 -0.71941940751E+02 -0.40435235687E+02  0.19920303684E+03  0.24928067429E+03  0.12509337938E+03 0.  0.
          5    1    3    3  502    0 -0.60549469882E+02  0.25885366775E+02  0.41964819693E+02  0.78197244248E+02  0.41800000000E+01 0.  1.
         -5    1    3    3    0  502 -0.11392470868E+02 -0.66320602462E+02  0.15723821715E+03  0.17108343004E+03  0.41800000000E+01 0.  1.
        -11    1    1    2    0    0  0.35917378187E+02  0.11171535883E+01  0.13948453403E+03  0.14403902707E+03  0.00000000000E+00 0. -1.
         11    1    1    2    0    0  0.36024562564E+02  0.39318082099E+02  0.17507724831E+02  0.56126652462E+02  0.00000000000E+00 0.  1.
</event>
<event>
 7    1  0.2719869E-009  0.1173732E+03  0.7561462E-02  0.1247494E+00
         -2   -1    0    0    0  501 -0.00000000000E+00  0.00000000000E+00  0.14032030819E+03  0.14032030819E+03  0.00000000000E+00 0.  1.
          2   -1    0    0  501    0  0.00000000000E+00 -0.00000000000E+00 -0.13806460020E+03  0.13806460020E+03  0.00000000000E+00 0. -1.
         25    2    1    2    0    0 -0.70438517495E+02 -0.43534446418E+02 -0.22005617516E+02  0.15161978387E+03  0.12508988323E+03 0.  0.
          5    1    3    3  502    0  0.30028927242E+02  0.13301823416E+02 -0.13652519218E+02  0.35812548897E+02  0.41800000000E+01 0.  1.
         -5    1    3    3    0  502 -0.10046744474E+03 -0.56836269834E+02 -0.83530982981E+01  0.11580723497E+03  0.41800000000E+01 0.  1.
        -11    1    1    2    0    0  0.50620196362E+02  0.17815519910E+02 -0.31510025026E+02  0.62230850119E+02  0.00000000000E+00 0. -1.
         11    1    1    2    0    0  0.19818321133E+02  0.25718926508E+02  0.55771350530E+02  0.64534274407E+02  0.00000000000E+00 0.  1.
</event>
<event>
 7    1  0.2719869E-009  0.1135862E+03  0.7561462E-02  0.1254069E+00
          3   -1    0    0  501    0  0.00000000000E+00  0.00000000000E+00  0.52279376633E+03  0.52279376633E+03  0.00000000000E+00 0. -1.
         -3   -1    0    0    0  501 -0.00000000000E+00 -0.00000000000E+00 -0.30908647744E+02  0.30908647744E+02  0.00000000000E+00 0.  1.
         25    2    1    2    0    0 -0.36316646517E+02 -0.31812330874E+02  0.38110507367E+03  0.40400582104E+03  0.12509477626E+03 0.  0.
          5    1    3    3  502    0  0.27731973685E+02  0.32113566248E+02  0.10146492148E+03  0.11005883060E+03  0.41800000000E+01 0. -1.
         -5    1    3    3    0  502 -0.64048620203E+02 -0.63925897122E+02  0.27964015219E+03  0.29394699044E+03  0.41800000000E+01 0. -1.
        -11    1    1    2    0    0 -0.23142971738E+02 -0.54520803189E+01  0.55457901627E+02  0.60339880456E+02  0.00000000000E+00 0. -1.
         11    1    1    2    0    0  0.59459618255E+02  0.37264411193E+02  0.55322143285E+02  0.89356712575E+02  0.00000000000E+00 0.  1.
</event>
<event>
 7    1  0.2719869E-009  0.1362336E+03  0.7561462E-02  0.1218489E+00
         -2   -1    0    0    0  501 -0.00000000000E+00  0.00000000000E+00  0.16029359210E+03  0.16029359210E+03  0.00000000000E+00 0.  1.
          2   -1    0    0  501    0  0.00000000000E+00 -0.00000000000E+00 -0.12571460939E+03  0.12571460939E+03  0.00000000000E+00 0. -1.
         25    2    1    2    0    0  0.62226527450E+02  0.88011282549E+02 -0.29212247031E+01  0.16514758143E+03  0.12508822296E+03 0.  0.
          5    1    3    3  502    0 -0.35208354556E+02  0.47006336772E+02  0.47863741356E+01  0.59072884682E+02  0.41800000000E+01 0. -1.
         -5    1    3    3    0  502  0.97434882006E+02  0.41004945777E+02 -0.77075988387E+01  0.10607469675E+03  0.41800000000E+01 0. -1.
        -11    1    1    2    0    0 -0.45454133525E+02 -0.63352373081E+02  0.45112736328E+02  0.90081964946E+02  0.00000000000E+00 0.  1.
         11    1    1    2    0    0 -0.16772393925E+02 -0.24658909468E+02 -0.76125289122E+01  0.30778655113E+02  0.00000000000E+00 0. -1.
</event>
<event>
 7    1  0.2719869E-009  0.2614838E+03  0.7561462E-02  0.1106255E+00
          1   -1    0    0  501    0  0.00000000000E+00  0.00000000000E+00  0.85957909927E+02  0.85957909927E+02  0.00000000000E+00 0. -1.
         -1   -1    0    0    0  501 -0.00000000000E+00 -0.00000000000E+00 -0.91952816183E+03  0.91952816183E+03  0.00000000000E+00 0.  1.
         25    2    1    2    0    0  0.99038914060E+02  0.22817128397E+03 -0.55694874751E+03  0.62266476418E+03  0.12509460370E+03 0.  0.
          5    1    3    3  502    0 -0.20365947977E+02  0.55947879668E+02 -0.20006540080E+03  0.20877876825E+03  0.41800000000E+01 0.  1.
         -5    1    3    3    0  502  0.11940486204E+03  0.17222340430E+03 -0.35688334672E+03  0.41388599594E+03  0.41800000000E+01 0.  1.
        -11    1    1    2    0    0 -0.23173190182E+02 -0.11575552347E+03 -0.18391432288E+03  0.21854248127E+03  0.00000000000E+00 0. -1.
         11    1    1    2    0    0 -0.75865723878E+02 -0.11241576050E+03 -0.92707181505E+02  0.16427882630E+03  0.00000000000E+00 0.  1.
</event>
<event>
 7    1  0.2719869E-009  0.1093638E+03  0.7561462E-02  0.1261753E+00
         -2   -1    0    0    0  501 -0.00000000000E+00  0.00000000000E+00  0.21509973878E+03  0.21509973878E+03  0.00000000000E+00 0.  1.
          2   -1    0    0  501    0  0.00000000000E+00 -0.00000000000E+00 -0.81910437883E+02  0.81910437883E+02  0.00000000000E+00 0. -1.
         25    2    1    2    0    0 -0.60047502461E+02  0.25311976215E+02  0.27778682010E+02  0.14375575292E+03  0.12509061768E+03 0.  0.
          5    1    3    3  502    0 -0.49805446219E+02 -0.43837762799E+02  0.31626950312E+02  0.73621113183E+02  0.41800000000E+01 0.  1.
         -5    1    3    3    0  502 -0.10242056242E+02  0.69149739015E+02 -0.38482683017E+01  0.70134639735E+02  0.41800000000E+01 0.  1.
        -11    1    1    2    0    0  0.65980953842E+02 -0.11221788546E+02  0.25066275087E+02  0.71468405291E+02  0.00000000000E+00 0. -1.
         11    1    1    2    0    0 -0.59334513809E+01 -0.14090187669E+02  0.80344343799E+02  0.81786018453E+02  0.00000000000E+00 0.  1.
</event>
<event>
 6    1  0.2719869E-009  0.1498803E+03  0.7561462E-02  0.1200620E+00
         -3   -1    0    0    0  501 -0.00000000000E+00  0.00000000000E+00  0.12700740567E+04  0.12700740567E+04  0.00000000000E+00 0.  1.
          3   -1    0    0  501    0  0.00000000000E+00 -0.00000000000E+00 -0.22616649957E+02  0.22616649957E+02  0.00000000000E+00 0. -1.
          5    1    1    2  502    0  0.54607915441E+02  0.81637546221E+02  0.40813875737E+03  0.41981118500E+03  0.41800000000E+01 0.  1.
         -5    1    1    2    0  502 -0.54974104241E+02  0.32210244144E+02  0.48597150697E+03  0.49014837544E+03  0.41800000000E+01 0.  1.
        -11    1    1    2    0    0  0.32920251769E+02 -0.20598985443E+02  0.47625698635E+02  0.61451349442E+02  0.00000000000E+00 0. -1.
         11    1    1    2    0    0 -0.32554062970E+02 -0.93248804923E+02  0.30572144381E+03  0.32127979681E+03  0.00000000000E+00 0.  1.
</event>
<event>
 7    1  0.2719869E-009  0.1292364E+03  0.7561462E-02  0.1228593E+00
         -2   -1    0    0    0  501 -0.00000000000E+00  0.00000000000E+00  0.46244867031E+02  0.46244867031E+02  0.00000000000E+00 0.  1.
          2   -1    0    0  501    0  0.00000000000E+00 -0.00000000000E+00 -0.49609804963E+03  0.49609804963E+03  0.00000000000E+00 0. -1.
         25    2    1    2    0    0 -0.85556063922E+02 -0.13829658606E+02 -0.13661277441E+03  0.20450121168E+03  0.12508635383E+03 0.  0.
          5    1    3    3  502    0 -0.36375683655E+02 -0.64111174118E+02 -0.37257057307E+02  0.82698208731E+02  0.41800000000E+01 0. -1.
         -5    1    3    3    0  502 -0.49180380267E+02  0.50281515512E+02 -0.99355717106E+02  0.12180300295E+03  0.41800000000E+01 0. -1.
        -11    1    1    2    0    0  0.14401148165E+02 -0.28113204634E+02 -0.16634318669E+03  0.16931568475E+03  0.00000000000E+00 0. -1.
         11    1    1    2    0    0  0.71154915757E+02  0.41942863239E+02 -0.14689722150E+03  0.16852602024E+03  0.00000000000E+00 0.  1.
</event>
<event>
 7    1  0.2719869E-009  0.1401718E+03  0.7561462E-02  0.1213098E+00
         -2   -1    0    0    0  501 -0.00000000000E+00  0.00000000000E+00  0.68638849999E+02  0.68638849999E+02  0.00000000000E+00 0.  1.
          2   -1    0    0  501    0  0.00000000000E+00 -0.00000000000E+00 -0.41186102614E+03  0.41186102614E+03  0.00000000000E+00 0. -1.
         25    2    1    2    0    0 -0.20333545295E+02  0.12020733941E+03 -0.12552196011E+03  0.21509928513E+03  0.12509469405E+03 0.  0.
          5    1    3    3  502    0  0.36241108714E+02  0.43329228818E+02  0.88268546125E+00  0.56648844334E+02  0.41800000000E+01 0.  1.
         -5    1    3    3    0  502 -0.56574654008E+02  0.76878110595E+02 -0.12640464558E+03  0.15845044079E+03  0.41800000000E+01 0.  1.
        -11    1    1    2    0    0  0.22265871196E+02 -0.27287058419E+02 -0.13968653467E+03  0.14405790692E+03  0.00000000000E+00 0.  1.
         11    1    1    2    0    0 -0.19323259017E+01 -0.92920280994E+02 -0.78013681348E+02  0.12134268408E+03  0.00000000000E+00 0. -1.
</event>
<event>
 7    1  0.2719869E-009  0.8653957E+02  0.7561462E-02  0.1311455E+00
         -2   -1    0    0    0  501 -0.00000000000E+00  0.00000000000E+00  0.20932558587E+02  0.20932558587E+02  0.00000000000E+00 0.  1.
          2   -1    0    0  501    0  0.00000000000E+00 -0.00000000000E+00 -0.77222316499E+03  0.77222316499E+03  0.00000000000E+00 0. -1.
         25    2    1    2    0    0 -0.34931971831E+02  0.86550306449E-01 -0.58210695128E+03  0.59641971689E+03  0.12509087026E+03 0.  0.
          5    1    3    3  502    0 -0.14021391138E+02  0.42587952249E+02 -0.77926746331E+02  0.90002129308E+02  0.41800000000E+01 0. -1.
         -5    1    3    3    0  502 -0.20910580693E+02 -0.42501401943E+02 -0.50418020494E+03  0.50641758758E+03  0.41800000000E+01 0. -1.
        -11    1    1    2    0    0 -0.46361171130E+01  0.30271677727E+02 -0.13884020119E+02  0.33624902512E+02  0.00000000000E+00 0.  1.
         11    1    1    2    0    0  0.39568088944E+02 -0.30358228033E+02 -0.15529963501E+03  0.16311110418E+03  0.00000000000E+00 0. -1.
</event>
<event>
 7    1  0.2719869E-009  0.8177809E+02  0.7561462E-02  0.1324080E+00
          2   -1    0    0  501    0  0.00000000000E+00  0.00000000000E+00  0.12753680826E+04  0.12753680826E+04  0.00000000000E+00 0. -1.
         -2   -1    0    0    0  501 -0.00000000000E+00 -0.00000000000E+00 -0.12730334011E+02  0.12730334011E+02  0.00000000000E+00 0.  1.
         25    2    1    2    0    0 -0.48221704592E+02  0.18542515595E+02  0.86003060197E+03  0.87061471842E+03  0.12509274126E+03 0.  0.
          5    1    3    3  502    0 -0.95005688837E+01 -0.14729210319E+02  0.73863450633E+03  0.73885425950E+03  0.41800000000E+01 0. -1.
         -5    1    3    3    0  502 -0.38721135709E+02  0.33271725914E+02  0.12139609564E+03  0.13176045891E+03  0.41800000000E+01 0. -1.
        -11    1    1    2    0    0 -0.55336483972E+00  0.27342525954E+02  0.38234346676E+02  0.47008352491E+02  0.00000000000E+00 0.  1.
         11    1    1    2    0    0  0.48775069432E+02 -0.45885041549E+02  0.36437279990E+03  0.37047534566E+03  0.00000000000E+00 0. -1.
</event>
<event>
 7    1  0.2719869E-009  0.8894447E+02  0.7561462E-02  0.1305428E+00
          2   -1    0    0  501    0  0.00000000000E+00  0.00000000000E+00  0.17277901103E+02  0.17277901103E+02  0.00000000000E+00 0. -1.
         -2   -1    0    0    0  501 -0.00000000000E+00 -0.00000000000E+00 -0.84773461637E+03  0.84773461637E+03  0.00000000000E+00 0.  1.
         25    2    1    2    0    0  0.11565479281E+00 -0.97144864935E+01 -0.67585967576E+03  0.68740707451E+03  0.12509116734E+03 0.  0.
          5    1    3    3  502    0  0.11024907768E+02  0.39834442706E+02 -0.55106129265E+03  0.55262496512E+03  0.41800000000E+01 0. -1.
         -5    1    3    3    0  502 -0.10909252975E+02 -0.49548929200E+02 -0.12479838311E+03  0.13478210940E+03  0.41800000000E+01 0. -1.
        -11    1    1    2    0    0 -0.39496463100E+02  0.20648168392E+02 -0.61679418303E+02  0.76096439454E+02  0.00000000000E+00 0. -1.
         11    1    1    2    0    0  0.39380808307E+02 -0.10933681898E+02 -0.92917621200E+02  0.10150900350E+03  0.00000000000E+00 0.  1.
</event>
<event>
 7    1  0.2719869E-009  0.1004789E+03  0.7561462E-02  0.1279292E+00
          1   -1    0    0  501    0  0.00000000000E+00  0.00000000000E+00  0.25998696114E+03  0.25998696114E+03  0.00000000000E+00 0. -1.
         -1   -1    0    0    0  501 -0.00000000000E+00 -0.00000000000E+00 -0.73762437613E+02  0.73762437613E+02  0.00000000000E+00 0.  1.
         25    2    1    2    0    0  0.77888810597E+02 -0.32264365866E+02  0.12349178050E+03  0.19494523263E+03  0.12508304342E+03 0.  0.
          5    1    3    3  502    0  0.71470110700E+02 -0.54851325839E+02  0.13957514193E+03  0.16617863074E+03  0.41800000000E+01 0. -1.
         -5    1    3    3    0  502  0.64186998970E+01  0.22586959973E+02 -0.16083361429E+02  0.28766601886E+02  0.41800000000E+01 0. -1.
        -11    1    1    2    0    0 -0.12620005217E+02 -0.26533713394E+01 -0.22488710208E+02  0.25923869270E+02  0.00000000000E+00 0.  1.
         11    1    1    2    0    0 -0.65268805380E+02  0.34917737205E+02  0.85221453233E+02  0.11288029686E+03  0.00000000000E+00 0. -1.
</event>
<event>
 7    1  0.2719869E-009  0.1585889E+03  0.7561462E-02  0.1190299E+00
          3   -1    0    0  501    0  0.00000000000E+00  0.00000000000E+00  0.69719099081E+03  0.69719099081E+03  0.00000000000E+00 0. -1.
         -3   -1    0    0    0  501 -0.00000000000E+00 -0.00000000000E+00 -0.37863755637E+02  0.37863755637E+02  0.00000000000E+00 0.  1.
         25    2    1    2    0    0  0.25742166799E+02  0.11387159956E+03  0.41184635731E+03  0.44597535418E+03  0.12508874518E+03 0.  0.
          5    1    3    3  502    0  0.39130733200E+02  0.13747410598E+03  0.33009329781E+03  0.35973518281E+03  0.41800000000E+01 0. -1.
         -5    1    3    3    0  502 -0.13388566401E+02 -0.23602506422E+02  0.81753059504E+02  0.86240171370E+02  0.41800000000E+01 0. -1.
        -11    1    1    2    0    0  0.32656696826E+02 -0.53879890870E+02  0.13384273882E+03  0.14793032557E+03  0.00000000000E+00 0. -1.
         11    1    1    2    0    0 -0.58398863625E+02 -0.59991708690E+02  0.11363813904E+03  0.14114906670E+03  0.00000000000E+00 0.  1.
</event>
<event>
 7    1  0.2719869E-009  0.1056903E+03  0.7561462E-02  0.1268766E+00
         -2   -1    0    0    0  501 -0.00000000000E+00  0.00000000000E+00  0.86572847370E+02  0.86572847370E+02  0.00000000000E+00 0.  1.
          2   -1    0    0  501    0  0.00000000000E+00 -0.00000000000E+00 -0.17831751833E+03  0.17831751833E+03  0.00000000000E+00 0. -1.
         25    2    1    2    0    0  0.21380224053E+02 -0.45304795266E+02 -0.12341173816E+02  0.13533507211E+03  0.12511450243E+03 0.  0.
          5    1    3    3  502    0 -0.35456908312E+02 -0.42866862633E+02 -0.43128262642E+02  0.70514393549E+02  0.41800000000E+01 0. -1.
         -5    1    3    3    0  502  0.56837132364E+02 -0.24379326330E+01  0.30787088826E+02  0.64820678562E+02  0.41800000000E+01 0. -1.
        -11    1    1    2    0    0  0.16623264057E+02 -0.18133448585E+02 -0.36635118824E+02  0.44128072660E+02  0.00000000000E+00 0. -1.
         11    1    1    2    0    0 -0.38003488109E+02  0.63438243851E+02 -0.42768378319E+02  0.85427220928E+02  0.00000000000E+00 0.  1.
</event>
<event>
 7    1  0.2719869E-009  0.1289565E+03  0.7561462E-02  0.1229012E+00
         -1   -1    0    0    0  501 -0.00000000000E+00  0.00000000000E+00  0.14790943690E+03  0.14790943690E+03  0.00000000000E+00 0.  1.
          1   -1    0    0  501    0  0.00000000000E+00 -0.00000000000E+00 -0.11507479733E+03  0.11507479733E+03  0.00000000000E+00 0. -1.
         25    2    1    2    0    0 -0.52635912906E+02  0.49461103452E+02  0.18717235617E+02  0.14565125821E+03  0.12508802511E+03 0.  0.
          5    1    3    3  502    0 -0.88085174061E+02  0.58875985591E+02  0.22969012065E+02  0.10849160098E+03  0.41800000000E+01 0. -1.
         -5    1    3    3    0  502  0.35449261156E+02 -0.94148821392E+01 -0.42517764485E+01  0.37159657226E+02  0.41800000000E+01 0. -1.
        -11    1    1    2    0    0 -0.23522171855E+02 -0.26472553935E+02  0.13147770918E+02  0.37775025622E+02  0.00000000000E+00 0.  1.
         11    1    1    2    0    0  0.76158084761E+02 -0.22988549517E+02  0.96963303654E+00  0.79557950398E+02  0.00000000000E+00 0. -1.
</event>
<event>
 7    1  0.2719869E-009  0.1546310E+03  0.7561462E-02  0.1194895E+00
         -2   -1    0    0    0  501 -0.00000000000E+00  0.00000000000E+00  0.76564910689E+02  0.76564910689E+02  0.00000000000E+00 0. -1.
          2   -1    0    0  501    0  0.00000000000E+00 -0.00000000000E+00 -0.41278593356E+03  0.41278593356E+03  0.00000000000E+00 0.  1.
         25    2    1    2    0    0 -0.13877081956E+03 -0.94854848369E+01 -0.15599361925E+03  0.24357470830E+03  0.12508922613E+03 0.  0.
          5    1    3    3  502    0 -0.75612987137E+02  0.10015564205E+02 -0.25310976716E+01  0.76429799199E+02  0.41800000000E+01 0. -1.
         -5    1    3    3    0  502 -0.63157832424E+02 -0.19501049042E+02 -0.15346252158E+03  0.16714490910E+03  0.41800000000E+01 0. -1.
        -11    1    1    2    0    0 -0.76654877002E+01  0.18401829623E+02 -0.15985234465E+02  0.25552196697E+02  0.00000000000E+00 0.  1.
         11    1    1    2    0    0  0.14643630726E+03 -0.89163447859E+01 -0.16424216915E+03  0.22022393925E+03  0.00000000000E+00 0. -1.
</event>
<event>
 7    1  0.2719869E-009  0.1145149E+03  0.7561462E-02  0.1252430E+00
          1   -1    0    0  501    0  0.00000000000E+00  0.00000000000E+00  0.52188873628E+03  0.52188873628E+03  0.00000000000E+00 0. -1.
         -1   -1    0    0    0  501 -0.00000000000E+00 -0.00000000000E+00 -0.30980029699E+02  0.30980029699E+02  0.00000000000E+00 0.  1.
         25    2    1    2    0    0 -0.52100722237E+02  0.35382287223E+02  0.28233791725E+03  0.31516470367E+03  0.12509076469E+03 0.  0.
          5    1    3    3  502    0  0.27164051859E+02 -0.47440151976E+01  0.11625607474E+02  0.30216196695E+02  0.41800000000E+01 0.  1.
         -5    1    3    3    0  502 -0.79264774096E+02  0.40126302421E+02  0.27071230978E+03  0.28494850697E+03  0.41800000000E+01 0.  1.
        -11    1    1    2    0    0  0.35010112953E+02 -0.67374364699E+02  0.15983296535E+03  0.17695081193E+03  0.00000000000E+00 0. -1.
         11    1    1    2    0    0  0.17090609284E+02  0.31992077476E+02  0.48737823971E+02  0.60753250385E+02  0.00000000000E+00 0.  1.
</event>
<event>
 7    1  0.2719869E-009  0.9053596E+02  0.7561462E-02  0.1301559E+00
         -1   -1    0    0    0  501 -0.00000000000E+00  0.00000000000E+00  0.50746539291E+02  0.50746539291E+02  0.00000000000E+00 0.  1.
          1   -1    0    0  501    0  0.00000000000E+00 -0.00000000000E+00 -0.25762102083E+03  0.25762102083E+03  0.00000000000E+00 0. -1.
         25    2    1    2    0    0  0.19232697544E+02  0.31232026955E+02 -0.11578735291E+03  0.17435561759E+03  0.12509130317E+03 0.  0.
          5    1    3    3  502    0 -0.15141343390E+02  0.53509911312E+02 -0.47966528909E+01  0.55973664944E+02  0.41800000000E+01 0.  1.
         -5    1    3    3    0  502  0.34374040935E+02 -0.22277884357E+02 -0.11099070002E+03  0.11838195265E+03  0.41800000000E+01 0.  1.
        -11    1    1    2    0    0  0.29307901347E+02 -0.15164733184E+02 -0.42931328517E+01  0.33276916978E+02  0.00000000000E+00 0.  1.
         11    1    1    2    0    0 -0.48540598891E+02 -0.16067293771E+02 -0.86793995774E+02  0.10073502555E+03  0.00000000000E+00 0. -1.
</event>
<event>
 7    1  0.2719869E-009  0.1448287E+03  0.7561462E-02  0.1206975E+00
          2   -1    0    0  501    0  0.00000000000E+00  0.00000000000E+00  0.56183067200E+02  0.56183067200E+02  0.00000000000E+00 0. -1.
         -2   -1    0    0    0  501 -0.00000000000E+00 -0.00000000000E+00 -0.54922387832E+03  0.54922387832E+03  0.00000000000E+00 0.  1.
         25    2    1    2    0    0 -0.54222212238E+01  0.13718479119E+03 -0.25001170778E+03  0.31145190309E+03  0.12508943398E+03 0.  0.
          5    1    3    3  502    0 -0.93959042449E+01  0.64202620137E+02 -0.16995226142E+02  0.67205428060E+02  0.41800000000E+01 0.  1.
         -5    1    3    3    0  502  0.39736830211E+01  0.72982171050E+02 -0.23301648164E+03  0.24424647503E+03  0.41800000000E+01 0.  1.
        -11    1    1    2    0    0  0.33857029869E+02 -0.56378748299E+02 -0.16676115266E+03  0.17925998931E+03  0.00000000000E+00 0.  1.
         11    1    1    2    0    0 -0.28434808645E+02 -0.80806042888E+02 -0.76267950684E+02  0.11469505313E+03  0.00000000000E+00 0. -1.
</event>
<event>
 7    1  0.2719869E-009  0.1010299E+03  0.7561462E-02  0.1278145E+00
         -1   -1    0    0    0  501 -0.00000000000E+00  0.00000000000E+00  0.10335957725E+03  0.10335957725E+03  0.00000000000E+00 0.  1.
          1   -1    0    0  501    0  0.00000000000E+00 -0.00000000000E+00 -0.12750376766E+03  0.12750376766E+03  0.00000000000E+00 0. -1.
         25    2    1    2    0    0 -0.27909810270E+02  0.10276690021E+02 -0.38540516331E+02  0.13422695321E+03  0.12508771203E+03 0.  0.
          5    1    3    3  502    0  0.10541671148E+02 -0.40952268754E+02  0.20350149213E+02  0.47114924596E+02  0.41800000000E+01 0.  1.
         -5    1    3    3    0  502 -0.38451481418E+02  0.51228958775E+02 -0.58890665544E+02  0.87112028610E+02  0.41800000000E+01 0.  1.
        -11    1    1    2    0    0  0.61236564082E+02 -0.10003915197E+02  0.12199113134E+02  0.63236172094E+02  0.00000000000E+00 0.  1.
         11    1    1    2    0    0 -0.33326753812E+02 -0.27277482321E+00  0.21972127922E+01  0.33400219607E+02  0.00000000000E+00 0. -1.
</event>
<event>
 7    1  0.2719869E-009  0.1063375E+03  0.7561462E-02  0.1267507E+00
         -1   -1    0    0    0  501 -0.00000000000E+00  0.00000000000E+00  0.32915590070E+03  0.32915590070E+03  0.00000000000E+00 0.  1.
          1   -1    0    0  501    0  0.00000000000E+00 -0.00000000000E+00 -0.48992454312E+02  0.48992454312E+02  0.00000000000E+00 0. -1.
         25    2    1    2    0    0 -0.23044402597E+02  0.52487076161E+02  0.10786363971E+03  0.17483397563E+03  0.12508563709E+03 0.  0.
          5    1    3    3  502    0 -0.26056854893E+01  0.89755436105E+02  0.93677116485E+02  0.12982951306E+03  0.41800000000E+01 0. -1.
         -5    1    3    3    0  502 -0.20438717108E+02 -0.37268359944E+02  0.14186523227E+02  0.45004462570E+02  0.41800000000E+01 0. -1.
        -11    1    1    2    0    0 -0.11654223373E+02 -0.42351656378E+02  0.22769317896E+02  0.49476515215E+02  0.00000000000E+00 0. -1.
         11    1    1    2    0    0  0.34698625969E+02 -0.10135419783E+02  0.14953048878E+03  0.15383786417E+03  0.00000000000E+00 0.  1.
</event>
<event>
 7    1  0.2719869E-009  0.1058588E+03  0.7561462E-02  0.1268437E+00
         -2   -1    0    0    0  501 -0.00000000000E+00  0.00000000000E+00  0.21976692792E+02  0.21976692792E+02  0.00000000000E+00 0.  1.
          2   -1    0    0  501    0  0.00000000000E+00 -0.00000000000E+00 -0.59400055190E+03  0.59400055190E+03  0.00000000000E+00 0. -1.
         25    2    1    2    0    0  0.23995735432E+02  0.26804400956E+02 -0.35103510369E+03  0.37438910444E+03  0.12508911333E+03 0.  0.
          5    1    3    3  502    0  0.69894342145E+02  0.17212667443E+02 -0.28026630410E+03  0.28939275837E+03  0.41800000000E+01 0.  1.
         -5    1    3    3    0  502 -0.45898606712E+02  0.95917335131E+01 -0.70768799591E+02  0.84996346071E+02  0.41800000000E+01 0.  1.
        -11    1    1    2    0    0  0.11134634152E+02  0.26473697358E+02 -0.36952035530E+02  0.46800530545E+02  0.00000000000E+00 0.  1.
         11    1    1    2    0    0 -0.35130369585E+02 -0.53278098315E+02 -0.18403671989E+03  0.19478760971E+03  0.00000000000E+00 0. -1.
</event>
<event>
 6    1  0.2719869E-009  0.1439412E+03  0.7561462E-02  0.1208122E+00
         -2   -1    0    0    0  501 -0.00000000000E+00  0.00000000000E+00  0.29130694777E+03  0.29130694777E+03  0.00000000000E+00 0.  1.
          2   -1    0    0  501    0  0.00000000000E+00 -0.00000000000E+00 -0.84915535431E+02  0.84915535431E+02  0.00000000000E+00 0. -1.
          5    1    1    2  502    0  0.76432880395E+02  0.35250407930E+02  0.15148655585E+02  0.85624357696E+02  0.41800000000E+01 0.  1.
         -5    1    1    2    0  502 -0.19346535198E+02  0.64593301853E+02  0.95918197142E+02  0.11732159226E+03  0.41800000000E+01 0.  1.
        -11    1    1    2    0    0 -0.39555906089E+02 -0.53160797250E+01  0.57433664742E+02  0.69939661536E+02  0.00000000000E+00 0.  1.
         11    1    1    2    0    0 -0.17530439108E+02 -0.94527630058E+02  0.37890894871E+02  0.10333687171E+03  0.00000000000E+00 0. -1.
</event>
<event>
 7    1  0.2719869E-009  0.1716625E+03  0.7561462E-02  0.1176125E+00
          2   -1    0    0  501    0  0.00000000000E+00  0.00000000000E+00  0.73593147250E+03  0.73593147250E+03  0.00000000000E+00 0.  1.
         -2   -1    0    0    0  501 -0.00000000000E+00 -0.00000000000E+00 -0.69205440358E+02  0.69205440358E+02  0.00000000000E+00 0. -1.
         25    2    1    2    0    0  0.11779371676E+03 -0.12257028148E+03  0.16563310584E+03  0.26829229130E+03  0.12509034419E+03 0.  0.
          5    1    3    3  502    0  0.87450540746E+01 -0.25121877594E+02 -0.18826167870E+02  0.32855466840E+02  0.41800000000E+01 0.  1.
         -5    1    3    3    0  502  0.10904866269E+03 -0.97448403888E+02  0.18445927371E+03  0.23543682446E+03  0.41800000000E+01 0.  1.
        -11    1    1    2    0    0 -0.37366179307E+02  0.42771514847E+02  0.30611355023E+03  0.31133766151E+03  0.00000000000E+00 0.  1.
         11    1    1    2    0    0 -0.80427537456E+02  0.79798766636E+02  0.19497937608E+03  0.22550696006E+03  0.00000000000E+00 0. -1.
</event>
<event>
 7    1  0.2719869E-009  0.2835479E+03  0.7561462E-02  0.1093767E+00
         -2   -1    0    0    0  501 -0.00000000000E+00  0.00000000000E+00  0.13736453219E+03  0.13736453219E+03  0.00000000000E+00 0. -1.
          2   -1    0    0  501    0  0.00000000000E+00 -0.00000000000E+00 -0.65609707562E+03  0.65609707562E+03  0.00000000000E+00 0.  1.
         25    2    1    2    0    0 -0.22964200936E+03  0.14918696673E+03 -0.33897351018E+03  0.45336868003E+03  0.12509163010E+03 0.  0.
          5    1    3    3  502    0 -0.21961857868E+03  0.16003629683E+03 -0.27143371264E+03  0.38410632533E+03  0.41800000000E+01 0.  1.
         -5    1    3    3    0  502 -0.10023430682E+02 -0.10849330095E+02 -0.67539797541E+02  0.69262354696E+02  0.41800000000E+01 0.  1.
        -11    1    1    2    0    0  0.18682464769E+03 -0.91221837696E+02 -0.94263651262E+02  0.22827726257E+03  0.00000000000E+00 0.  1.
         11    1    1    2    0    0  0.42817361670E+02 -0.57965129034E+02 -0.85495381988E+02  0.11181566521E+03  0.00000000000E+00 0. -1.
</event>
<event>
 7    1  0.2719869E-009  0.1011843E+03  0.7561462E-02  0.1277825E+00
          3   -1    0    0  501    0  0.00000000000E+00  0.00000000000E+00  0.18553087071E+03  0.18553087071E+03  0.00000000000E+00 0. -1.
         -3   -1    0    0    0  501 -0.00000000000E+00 -0.00000000000E+00 -0.85721943683E+02  0.85721943683E+02  0.00000000000E+00 0.  1.
         25    2    1    2    0    0  0.10992017514E+02 -0.55526033450E+02  0.91090715706E+02  0.16476905957E+03  0.12508940669E+03 0.  0.
          5    1    3    3  502    0 -0.25548971985E+02  0.17729215830E+02  0.74911913022E+02  0.81217868577E+02  0.41800000000E+01 0.  1.
         -5    1    3    3    0  502  0.36540989499E+02 -0.73255249280E+02  0.16178802683E+02  0.83551190996E+02  0.41800000000E+01 0.  1.
        -11    1    1    2    0    0  0.15665420012E+02 -0.97912518693E+01 -0.22690902640E+02  0.29260059124E+02  0.00000000000E+00 0.  1.
         11    1    1    2    0    0 -0.26657437526E+02  0.65317285320E+02  0.31409113961E+02  0.77223695695E+02  0.00000000000E+00 0. -1.
</event>
<event>
 7    1  0.2719869E-009  0.9690823E+02  0.7561462E-02  0.1286935E+00
          2   -1    0    0  501    0  0.00000000000E+00  0.00000000000E+00  0.60274629180E+03  0.60274629180E+03  0.00000000000E+00 0. -1.
         -2   -1    0    0    0  501 -0.00000000000E+00 -0.00000000000E+00 -0.22966843007E+02  0.22966843007E+02  0.00000000000E+00 0.  1.
         25    2    1    2    0    0  0.41795899441E+02 -0.26581816488E+02  0.36751770757E+03  0.39136746065E+03  0.12508290731E+03 0.  0.
          5    1    3    3  502    0  0.33731480622E+01 -0.53722286783E+02  0.31945378382E+03  0.32398403452E+03  0.41800000000E+01 0. -1.
         -5    1    3    3    0  502  0.38422751379E+02  0.27140470295E+02  0.48063923756E+02  0.67383426139E+02  0.41800000000E+01 0. -1.
        -11    1    1    2    0    0 -0.35152105244E+02 -0.23367385239E+02  0.55778454270E+02  0.69949561519E+02  0.00000000000E+00 0.  1.
         11    1    1    2    0    0 -0.66437941969E+01  0.49949201727E+02  0.15648328695E+03  0.16439611264E+03  0.00000000000E+00 0. -1.
</event>
<event>
 7    1  0.2719869E-009  0.1519022E+03  0.7561462E-02  0.1198155E+00
         -2   -1    0    0    0  501 -0.00000000000E+00  0.00000000000E+00  0.93776784152E+02  0.93776784152E+02  0.00000000000E+00 0.  1.
          2   -1    0    0  501    0  0.00000000000E+00 -0.00000000000E+00 -0.32703896915E+03  0.32703896915E+03  0.00000000000E+00 0. -1.
         25    2    1    2    0    0 -0.63923070263E+02 -0.12155634519E+03 -0.12509930862E+03  0.22396261973E+03  0.12508922436E+03 0.  0.
          5    1    3    3  502    0 -0.28116585497E+02 -0.29336812909E+02  0.22188634504E+02  0.46486545073E+02  0.41800000000E+01 0.  1.
         -5    1    3    3    0  502 -0.35806484766E+02 -0.92219532280E+02 -0.14728794313E+03  0.17747607466E+03  0.41800000000E+01 0.  1.
        -11    1    1    2    0    0  0.38405344552E+02  0.13116586799E+03 -0.84016560390E+02  0.16043141162E+03  0.00000000000E+00 0. -1.
         11    1    1    2    0    0  0.25517725711E+02 -0.96095228016E+01 -0.24146315982E+02  0.36421721945E+02  0.00000000000E+00 0.  1.
</event>
<event>
 7    1  0.3638014E-009  0.2119238E+03  0.7561462E-02  0.1140052E+00
          2   -1    0    0  501    0  0.00000000000E+00  0.00000000000E+00  0.76914312145E+03  0.76914312145E+03  0.00000000000E+00 0. -1.
         -2   -1    0    0    0  501 -0.00000000000E+00 -0.00000000000E+00 -0.64011905258E+02  0.64011905258E+02  0.00000000000E+00 0.  1.
         25    2    1    2    0    0 -0.64171659044E+02  0.17748404401E+03  0.28832032724E+03  0.36659874779E+03  0.12508974012E+03 0.  0.
          5    1    3    3  502    0  0.27045107230E+02  0.55223723138E+02  0.35025547138E+02  0.70889764950E+02  0.41800000000E+01 0. -1.
         -5    1    3    3    0  502 -0.91216766274E+02  0.12226032087E+03  0.25329478010E+03  0.29570898284E+03  0.41800000000E+01 0. -1.
        -11    1    1    2    0    0 -0.23331083235E+02 -0.47584574500E+02  0.10362518656E+03  0.11639076624E+03  0.00000000000E+00 0.  1.
         11    1    1    2    0    0  0.87502742279E+02 -0.12989946951E+03  0.31318570239E+03  0.35016551268E+03  0.00000000000E+00 0. -1.
</event>
<event>
 7    1  0.2719869E-009  0.1332541E+03  0.7561462E-02  0.1222706E+00
         -2   -1    0    0    0  501 -0.00000000000E+00  0.00000000000E+00  0.18563894439E+02  0.18563894439E+02  0.00000000000E+00 0.  1.
          2   -1    0    0  501    0  0.00000000000E+00 -0.00000000000E+00 -0.13949620150E+04  0.13949620150E+04  0.00000000000E+00 0. -1.
         25    2    1    2    0    0 -0.34713689021E+02  0.10787963666E+03 -0.59268919760E+03  0.61625538022E+03  0.12508857859E+03 0.  0.
          5    1    3    3  502    0  0.83814726071E+01  0.21791949472E+02 -0.40106941876E+03  0.40177019452E+03  0.41800000000E+01 0. -1.
         -5    1    3    3    0  502 -0.43095161628E+02  0.86087687192E+02 -0.19161977884E+03  0.21448518570E+03  0.41800000000E+01 0. -1.
        -11    1    1    2    0    0 -0.29533432060E+02 -0.58011157908E+02 -0.34854843214E+03  0.35457513675E+03  0.00000000000E+00 0. -1.
         11    1    1    2    0    0  0.64247121081E+02 -0.49868478755E+02 -0.43516049082E+03  0.44269539246E+03  0.00000000000E+00 0.  1.
</event>
<event>
 7    1  0.2719869E-009  0.9885241E+02  0.7561462E-02  0.1282728E+00
          3   -1    0    0  501    0  0.00000000000E+00  0.00000000000E+00  0.10802383277E+03  0.10802383277E+03  0.00000000000E+00 0. -1.
         -3   -1    0    0    0  501 -0.00000000000E+00 -0.00000000000E+00 -0.11316791981E+03  0.11316791981E+03  0.00000000000E+00 0.  1.
         25    2    1    2    0    0 -0.15287544416E+02 -0.15249372951E+02 -0.10685290128E+00  0.12693707105E+03  0.12508699453E+03 0.  0.
          5    1    3    3  502    0 -0.15050502809E+02  0.46769955621E+02  0.30157603499E+02  0.57800517579E+02  0.41800000000E+01 0. -1.
         -5    1    3    3    0  502 -0.23704160681E+00 -0.62019328572E+02 -0.30264456400E+02  0.69136553475E+02  0.41800000000E+01 0. -1.
        -11    1    1    2    0    0  0.47378618414E+02  0.23805262186E+02  0.15455073698E+02  0.55229369846E+02  0.00000000000E+00 0. -1.
         11    1    1    2    0    0 -0.32091073997E+02 -0.85558892352E+01 -0.20492307844E+02  0.39025311679E+02  0.00000000000E+00 0.  1.
</event>
<event>
 7    1  0.2719869E-009  0.8046522E+02  0.7561462E-02  0.1327736E+00
         -1   -1    0    0    0  501 -0.00000000000E+00  0.00000000000E+00  0.11395272338E+02  0.11395272338E+02  0.00000000000E+00 0.  1.
          1   -1    0    0  501    0  0.00000000000E+00 -0.00000000000E+00 -0.11908019781E+04  0.11908019781E+04  0.00000000000E+00 0. -1.
         25    2    1    2    0    0 -0.29646132008E+01  0.29583802414E+02 -0.83644883192E+03  0.84627276913E+03  0.12508781338E+03 0.  0.
          5    1    3    3  502    0 -0.22756996800E+00 -0.23164178986E+02 -0.30225888592E+02  0.38310673674E+02  0.41800000000E+01 0. -1.
         -5    1    3    3    0  502 -0.27370432328E+01  0.52747981400E+02 -0.80622294333E+03  0.80796209546E+03  0.41800000000E+01 0. -1.
        -11    1    1    2    0    0 -0.20610168423E+02 -0.49452977388E+02 -0.28771312255E+03  0.29265887463E+03  0.00000000000E+00 0. -1.
         11    1    1    2    0    0  0.23574781624E+02  0.19869174974E+02 -0.55244751320E+02  0.63265606700E+02  0.00000000000E+00 0.  1.
</event>
<event>
 7    1  0.2719869E-009  0.2187493E+03  0.7561462E-02  0.1134819E+00
         -2   -1    0    0    0  501 -0.00000000000E+00  0.00000000000E+00  0.80942911168E+02  0.80942911168E+02  0.00000000000E+00 0.  1.
          2   -1    0    0  501    0  0.00000000000E+00 -0.00000000000E+00 -0.64975046278E+03  0.64975046278E+03  0.00000000000E+00 0. -1.
         25    2    1    2    0    0 -0.34238922601E+02 -0.19962024953E+03 -0.33482038782E+03  0.41081943331E+03  0.12508943536E+03 0.  0.
          5    1    3    3  502    0 -0.76038808616E+02 -0.14867256403E+03 -0.19913044811E+03  0.25991506204E+03  0.41800000000E+01 0. -1.
         -5    1    3    3    0  502  0.41799886015E+02 -0.50947685500E+02 -0.13568993971E+03  0.15090437127E+03  0.41800000000E+01 0. -1.
        -11    1    1    2    0    0  0.71950511108E+01  0.12228499113E+03 -0.82611832270E+02  0.14775013587E+03  0.00000000000E+00 0. -1.
         11    1    1    2    0    0  0.27043871490E+02  0.77335258400E+02 -0.15137533153E+03  0.17212380478E+03  0.00000000000E+00 0.  1.
</event>
<event>
 7    1  0.2719869E-009  0.1684813E+03  0.7561462E-02  0.1179441E+00
          3   -1    0    0  501    0  0.00000000000E+00  0.00000000000E+00  0.24324919140E+02  0.24324919140E+02  0.00000000000E+00 0. -1.
         -3   -1    0    0    0  501 -0.00000000000E+00 -0.00000000000E+00 -0.17569124943E+04  0.17569124943E+04  0.00000000000E+00 0.  1.
         25    2    1    2    0    0  0.75536196993E+02  0.11454247000E+03 -0.13728144468E+04  0.13853134749E+04  0.12509286102E+03 0.  0.
          5    1    3    3  502    0  0.34211633733E+02  0.12876046234E+03 -0.11831320142E+04  0.11906168687E+04  0.41800000000E+01 0.  1.
         -5    1    3    3    0  502  0.41324563260E+02 -0.14217992342E+02 -0.18968243257E+03  0.19469660619E+03  0.41800000000E+01 0.  1.
        -11    1    1    2    0    0 -0.75728937740E+01  0.13115882434E+02 -0.75200795861E+02  0.76710721482E+02  0.00000000000E+00 0.  1.
         11    1    1    2    0    0 -0.67963303219E+02 -0.12765835243E+03 -0.28457233254E+03  0.31921321711E+03  0.00000000000E+00 0. -1.
</event>
<event>
 7    1  0.2719869E-009  0.1085233E+03  0.7561462E-02  0.1263329E+00
         -1   -1    0    0    0  501 -0.00000000000E+00  0.00000000000E+00  0.39774962451E+02  0.39774962451E+02  0.00000000000E+00 0.  1.
          1   -1    0    0  501    0  0.00000000000E+00 -0.00000000000E+00 -0.39476307566E+03  0.39476307566E+03  0.00000000000E+00 0. -1.
         25    2    1    2    0    0  0.35338190011E+02  0.30993701840E+02 -0.27077443270E+03  0.30195381710E+03  0.12509163453E+03 0.  0.
          5    1    3    3  502    0  0.55829664208E+02 -0.31569126521E+02 -0.99915940170E+02  0.11880331921E+03  0.41800000000E+01 0.  1.
         -5    1    3    3    0  502 -0.20491474197E+02  0.62562828361E+02 -0.17085849253E+03  0.18315049789E+03  0.41800000000E+01 0.  1.
        -11    1    1    2    0    0  0.21849977462E+02 -0.18937066623E+00  0.48175201979E+01  0.22375564287E+02  0.00000000000E+00 0.  1.
         11    1    1    2    0    0 -0.57188167473E+02 -0.30804331174E+02 -0.89031200702E+02  0.11020865672E+03  0.00000000000E+00 0. -1.
</event>
<event>
 7    1  0.2719869E-009  0.8980230E+02  0.7561462E-02  0.1303331E+00
          1   -1    0    0  501    0  0.00000000000E+00  0.00000000000E+00  0.14412384777E+03  0.14412384777E+03  0.00000000000E+00 0. -1.
         -1   -1    0    0    0  501 -0.00000000000E+00 -0.00000000000E+00 -0.13026852454E+03  0.13026852454E+03  0.00000000000E+00 0.  1.
         25    2    1    2    0    0 -0.33622689495E+01  0.26043519276E+01  0.96270279603E+02  0.15789853990E+03  0.12508355074E+03 0.  0.
          5    1    3    3  502    0 -0.58912241881E+02 -0.23477026471E+02  0.45925802517E+02  0.78412210479E+02  0.41800000000E+01 0. -1.
         -5    1    3    3    0  502  0.55549972931E+02  0.26081378398E+02  0.50344477086E+02  0.79486329421E+02  0.41800000000E+01 0. -1.
        -11    1    1    2    0    0 -0.25523012560E+02 -0.25853021661E+01 -0.83736809707E+02  0.87578314995E+02  0.00000000000E+00 0.  1.
         11    1    1    2    0    0  0.28885281509E+02 -0.19049761506E-01  0.13218533335E+01  0.28915517409E+02  0.00000000000E+00 0. -1.
</event>
<event>
 7    1  0.2719869E-009  0.9776007E+02  0.7561462E-02  0.1285078E+00
         -1   -1    0    0    0  501 -0.00000000000E+00  0.00000000000E+00  0.58795737513E+02  0.58795737513E+02  0.00000000000E+00 0.  1.
          1   -1    0    0  501    0  0.00000000000E+00 -0.00000000000E+00 -0.22313796562E+03  0.22313796562E+03  0.00000000000E+00 0. -1.
         25    2    1    2    0    0  0.31962131749E+02 -0.11804511119E+02 -0.11177839662E+03  0.17117917073E+03  0.12508786589E+03 0.  0.
          5    1    3    3  502    0  0.18021886285E+02  0.52929425956E+02 -0.79791256783E+02  0.97521431369E+02  0.41800000000E+01 0. -1.
         -5    1    3    3    0  502  0.13940245464E+02 -0.64733937074E+02 -0.31987139840E+02  0.73657739362E+02  0.41800000000E+01 0. -1.
        -11    1    1    2    0    0  0.19484845765E+02  0.93067157956E+01 -0.55104544566E+02  0.59184330740E+02  0.00000000000E+00 0. -1.
         11    1    1    2    0    0 -0.51446977514E+02  0.24977953232E+01  0.25407130801E+01  0.51570201665E+02  0.00000000000E+00 0.  1.
</event>
<event>
 7    1  0.2719869E-009  0.8924527E+02  0.7561462E-02  0.1304690E+00
         -2   -1    0    0    0  501 -0.00000000000E+00  0.00000000000E+00  0.48233395638E+02  0.48233395638E+02  0.00000000000E+00 0.  1.
          2   -1    0    0  501    0  0.00000000000E+00 -0.00000000000E+00 -0.32489430818E+03  0.32489430818E+03  0.00000000000E+00 0. -1.
         25    2    1    2    0    0  0.19861153721E+02  0.57136391167E+02 -0.17543083324E+03  0.22379187983E+03  0.12509114918E+03 0.  0.
          5    1    3    3  502    0  0.59117474516E+02  0.17718911722E+02 -0.15044334778E+03  0.16266379105E+03  0.41800000000E+01 0. -1.
         -5    1    3    3    0  502 -0.39256320795E+02  0.39417479445E+02 -0.24987485457E+02  0.61128088778E+02  0.41800000000E+01 0. -1.
        -11    1    1    2    0    0 -0.13814474507E+02 -0.47510693608E+02 -0.11863971272E+03  0.12854371687E+03  0.00000000000E+00 0. -1.
         11    1    1    2    0    0 -0.60466792144E+01 -0.96256975590E+01  0.17409633415E+02  0.20792107124E+02  0.00000000000E+00 0.  1.
</event>
<event>
 7    1  0.2719869E-009  0.8427500E+02  0.7561462E-02  0.1317339E+00
          2   -1    0    0  501    0  0.00000000000E+00  0.00000000000E+00  0.83295254969E+02  0.83295254969E+02  0.00000000000E+00 0. -1.
         -2   -1    0    0    0  501 -0.00000000000E+00 -0.00000000000E+00 -0.18380981398E+03  0.18380981398E+03  0.00000000000E+00 0.  1.
         25    2    1    2    0    0  0.53960384297E+02  0.66287487626E+01 -0.27941336960E+02  0.13922307100E+03  0.12508669715E+03 0.  0.
          5    1    3    3  502    0  0.76894860837E+02 -0.36981535347E-01 -0.60989407435E+02  0.98234419681E+02  0.41800000000E+01 0.  1.
         -5    1    3    3    0  502 -0.22934476541E+02  0.66657302980E+01  0.33048070475E+02  0.40988651316E+02  0.41800000000E+01 0.  1.
        -11    1    1    2    0    0 -0.22639204521E+02 -0.22727172679E+02  0.13560384394E+02  0.34827316638E+02  0.00000000000E+00 0. -1.
         11    1    1    2    0    0 -0.31321179776E+02  0.16098423916E+02 -0.86133606446E+02  0.93054681315E+02  0.00000000000E+00 0.  1.
</event>
<event>
 7    1  0.2719869E-009  0.1233663E+03  0.7561462E-02  0.1237645E+00
          1   -1    0    0  501    0  0.00000000000E+00  0.00000000000E+00  0.18244420900E+04  0.18244420900E+04  0.00000000000E+00 0. -1.
         -1   -1    0    0    0  501 -0.00000000000E+00 -0.00000000000E+00 -0.13945834197E+02  0.13945834197E+02  0.00000000000E+00 0.  1.
         25    2    1    2    0    0  0.17596903342E+02 -0.61812888021E+02  0.15456112741E+04  0.15519967463E+04  0.12509678607E+03 0.  0.
          5    1    3    3  502    0  0.70010191426E+02 -0.48409559037E+02  0.84451694101E+03  0.84880577776E+03  0.41800000000E+01 0.  1.
         -5    1    3    3    0  502 -0.52413288084E+02 -0.13403328985E+02  0.70109433308E+03  0.70319096856E+03  0.41800000000E+01 0.  1.
        -11    1    1    2    0    0  0.35005802120E+02  0.26274573921E+02  0.84526846136E+02  0.95186906318E+02  0.00000000000E+00 0.  1.
         11    1    1    2    0    0 -0.52602705462E+02  0.35538314100E+02  0.18035813560E+03  0.19120427157E+03  0.00000000000E+00 0. -1.
</event>
<event>
 7    1  0.2719869E-009  0.1473117E+03  0.7561462E-02  0.1203816E+00
          2   -1    0    0  501    0  0.00000000000E+00  0.00000000000E+00  0.14084450798E+03  0.14084450798E+03  0.00000000000E+00 0. -1.
         -2   -1    0    0    0  501 -0.00000000000E+00 -0.00000000000E+00 -0.23342688353E+03  0.23342688353E+03  0.00000000000E+00 0.  1.
         25    2    1    2    0    0 -0.13720507848E+03 -0.29317231529E+02 -0.86514591813E+02  0.20692176136E+03  0.12508839715E+03 0.  0.
          5    1    3    3  502    0 -0.84812454773E+02 -0.40327653224E+02 -0.11304614369E+03  0.14702508324E+03  0.41800000000E+01 0.  1.
         -5    1    3    3    0  502 -0.52392623706E+02  0.11010421695E+02  0.26531551873E+02  0.59896678117E+02  0.41800000000E+01 0.  1.
        -11    1    1    2    0    0  0.11401861036E+03  0.40730339662E+02 -0.37413684039E+02  0.12672406176E+03  0.00000000000E+00 0.  1.
         11    1    1    2    0    0  0.23186468122E+02 -0.11413108133E+02  0.31345900303E+02  0.40625568391E+02  0.00000000000E+00 0. -1.
</event>
<event>
 7    1  0.2719869E-009  0.1130599E+03  0.7561462E-02  0.1255006E+00
          2   -1    0    0  501    0  0.00000000000E+00  0.00000000000E+00  0.92891187550E+03  0.92891187550E+03  0.00000000000E+00 0. -1.
         -2   -1    0    0    0  501 -0.00000000000E+00 -0.00000000000E+00 -0.18284623434E+02  0.18284623434E+02  0.00000000000E+00 0.  1.
         25    2    1    2    0    0  0.31038442709E+02  0.21265397954E+01  0.73669644182E+03  0.74788864790E+03  0.12509146722E+03 0.  0.
          5    1    3    3  502    0 -0.37383618352E+02  0.36259513795E+02  0.31160736636E+03  0.31595713386E+03  0.41800000000E+01 0.  1.
         -5    1    3    3    0  502  0.68422061061E+02 -0.34132974000E+02  0.42508907545E+03  0.43193151404E+03  0.41800000000E+01 0.  1.
        -11    1    1    2    0    0 -0.51823026303E+02  0.29363980229E+02  0.10416833464E+03  0.11999546379E+03  0.00000000000E+00 0.  1.
         11    1    1    2    0    0  0.20784583594E+02 -0.31490520024E+02  0.69762475614E+02  0.79312387244E+02  0.00000000000E+00 0. -1.
</event>
<event>
 7    1  0.2719869E-009  0.1064689E+03  0.7561462E-02  0.1267252E+00
         -2   -1    0    0    0  501 -0.00000000000E+00  0.00000000000E+00  0.25231496098E+02  0.25231496098E+02  0.00000000000E+00 0.  1.
          2   -1    0    0  501    0  0.00000000000E+00 -0.00000000000E+00 -0.55625607594E+03  0.55625607594E+03  0.00000000000E+00 0. -1.
         25    2    1    2    0    0  0.24979091116E+02 -0.35976765797E+02 -0.36238766839E+03  0.38586955046E+03  0.12510877309E+03 0.  0.
          5    1    3    3  502    0 -0.78183101237E+01 -0.76412299997E+02 -0.17144434249E+03  0.18791115064E+03  0.41800000000E+01 0.  1.
         -5    1    3    3    0  502  0.32797401239E+02  0.40435534201E+02 -0.19094332590E+03  0.19795839982E+03  0.41800000000E+01 0.  1.
        -11    1    1    2    0    0  0.59779190704E+01  0.49599968955E+02 -0.44326674994E+02  0.66788820567E+02  0.00000000000E+00 0.  1.
         11    1    1    2    0    0 -0.30957010186E+02 -0.13623203158E+02 -0.12431023646E+03  0.12882920101E+03  0.00000000000E+00 0. -1.
</event>
<event>
 7    1  0.2719869E-009  0.1056243E+03  0.7561462E-02  0.1268895E+00
          4   -1    0    0  501    0  0.00000000000E+00  0.00000000000E+00  0.64376381980E+02  0.64376381980E+02  0.00000000000E+00 0. -1.
         -4   -1    0    0    0  501 -0.00000000000E+00 -0.00000000000E+00 -0.34212792513E+03  0.34212792513E+03  0.00000000000E+00 0.  1.
         25    2    1    2    0    0 -0.57373636533E+02  0.26964921735E+02 -0.26589531767E+03  0.30061007920E+03  0.12508900265E+03 0.  0.
          5    1    3    3  502    0 -0.35336223413E+02 -0.48465831345E+02 -0.94407103014E+02  0.11192747202E+03  0.41800000000E+01 0. -1.
         -5    1    3    3    0  502 -0.22037413120E+02  0.75430753080E+02 -0.17148821466E+03  0.18868260718E+03  0.41800000000E+01 0. -1.
        -11    1    1    2    0    0  0.14382610212E+02 -0.25661577670E+02 -0.43488722011E+02  0.52503761648E+02  0.00000000000E+00 0.  1.
         11    1    1    2    0    0  0.42991026321E+02 -0.13033440647E+01  0.31632496536E+02  0.53390466256E+02  0.00000000000E+00 0. -1.
</event>
<event>
 7    1  0.2719869E-009  0.7872670E+02  0.7561462E-02  0.1332704E+00
         -3   -1    0    0    0  501 -0.00000000000E+00  0.00000000000E+00  0.14161097831E+02  0.14161097831E+02  0.00000000000E+00 0.  1.
          3   -1    0    0  501    0  0.00000000000E+00 -0.00000000000E+00 -0.82612086098E+03  0.82612086098E+03  0.00000000000E+00 0. -1.
         25    2    1    2    0    0 -0.65473037568E+01  0.30975730864E+02 -0.51573139102E+03  0.53162869982E+03  0.12509134140E+03 0.  0.
          5    1    3    3  502    0 -0.11075296036E+02  0.58222674583E+02 -0.49018905436E+03  0.49377659263E+03  0.41800000000E+01 0.  1.
         -5    1    3    3    0  502  0.45279922792E+01 -0.27246943719E+02 -0.25542336664E+02  0.37852107186E+02  0.41800000000E+01 0.  1.
        -11    1    1    2    0    0  0.22575553987E+02 -0.43998700356E+02 -0.27353586827E+03  0.27797016477E+03  0.00000000000E+00 0. -1.
         11    1    1    2    0    0 -0.16028250230E+02  0.13022969493E+02 -0.22692503848E+02  0.30683094217E+02  0.00000000000E+00 0.  1.
</event>
<event>
 7    1  0.2719869E-009  0.1147530E+03  0.7561462E-02  0.1252013E+00
         -1   -1    0    0    0  501 -0.00000000000E+00  0.00000000000E+00  0.10160013655E+03  0.10160013655E+03  0.00000000000E+00 0.  1.
          1   -1    0    0  501    0  0.00000000000E+00 -0.00000000000E+00 -0.17681377493E+03  0.17681377493E+03  0.00000000000E+00 0. -1.
         25    2    1    2    0    0  0.68046464267E+02  0.88711035207E+01 -0.35227254095E+01  0.14271282270E+03  0.12508206263E+03 0.  0.
          5    1    3    3  502    0 -0.33418238365E+02  0.83868678538E+01  0.17710632803E+02  0.38964819031E+02  0.41800000000E+01 0.  1.
         -5    1    3    3    0  502  0.10146470263E+03  0.48423566685E+00 -0.21233358213E+02  0.10374800367E+03  0.41800000000E+01 0.  1.
        -11    1    1    2    0    0 -0.15497611726E+02  0.25937686125E+02 -0.65786197043E+02  0.72393116055E+02  0.00000000000E+00 0. -1.
         11    1    1    2    0    0 -0.52548852541E+02 -0.34808789646E+02 -0.59047159310E+01  0.63307972722E+02  0.00000000000E+00 0.  1.
</event>
<event>
 7    1  0.2719869E-009  0.1171204E+03  0.7561462E-02  0.1247924E+00
          2   -1    0    0  501    0  0.00000000000E+00  0.00000000000E+00  0.26845504931E+03  0.26845504931E+03  0.00000000000E+00 0. -1.
         -2   -1    0    0    0  501 -0.00000000000E+00 -0.00000000000E+00 -0.81006785056E+02  0.81006785056E+02  0.00000000000E+00 0.  1.
         25    2    1    2    0    0  0.20490683743E+02 -0.96460815153E+02  0.88402930062E+02  0.18217430424E+03  0.12509133504E+03 0.  0.
          5    1    3    3  502    0  0.67109378083E+01 -0.56323290442E+02  0.11750619732E+03  0.13054703574E+03  0.41800000000E+01 0.  1.
         -5    1    3    3    0  502  0.13779745935E+02 -0.40137524711E+02 -0.29103267257E+02  0.51627268502E+02  0.41800000000E+01 0.  1.
        -11    1    1    2    0    0 -0.32024869128E+02 -0.51702201014E+01  0.26529680042E+02  0.41906411701E+02  0.00000000000E+00 0.  1.
         11    1    1    2    0    0  0.11534185385E+02  0.10163103525E+03  0.72515654146E+02  0.12538111842E+03  0.00000000000E+00 0. -1.
</event>
<event>
 7    1  0.2719869E-009  0.1917689E+03  0.7561462E-02  0.1156876E+00
         -2   -1    0    0    0  501 -0.00000000000E+00  0.00000000000E+00  0.18903584131E+02  0.18903584131E+02  0.00000000000E+00 0. -1.
          2   -1    0    0  501    0  0.00000000000E+00 -0.00000000000E+00 -0.23552674530E+04  0.23552674530E+04  0.00000000000E+00 0.  1.
         25    2    1    2    0    0  0.15121194462E+03  0.76286320920E+02 -0.15651295307E+04  0.15792282345E+04  0.12508682465E+03 0.  0.
          5    1    3    3  502    0  0.15983491477E+03  0.85487891353E+02 -0.15414512892E+04  0.15520776169E+04  0.41800000000E+01 0.  1.
         -5    1    3    3    0  502 -0.86229701509E+01 -0.92015704333E+01 -0.23678241483E+02  0.27150617533E+02  0.41800000000E+01 0.  1.
        -11    1    1    2    0    0 -0.15330827359E+03 -0.48095827695E+02 -0.70213503680E+03  0.72028483623E+03  0.00000000000E+00 0.  1.
         11    1    1    2    0    0  0.20963289715E+01 -0.28190493225E+02 -0.69099301348E+02  0.74657966421E+02  0.00000000000E+00 0. -1.
</event>
<event>
 7    1  0.2719869E-009  0.1195224E+03  0.7561462E-02  0.1243887E+00
          2   -1    0    0  501    0  0.00000000000E+00  0.00000000000E+00  0.14947889654E+04  0.14947889654E+04  0.00000000000E+00 0. -1.
         -2   -1    0    0    0  501 -0.00000000000E+00 -0.00000000000E+00 -0.11242560702E+02  0.11242560702E+02  0.00000000000E+00 0.  1.
         25    2    1    2    0    0  0.49247473710E+02  0.46633857426E+02  0.90005106158E+03  0.91122982179E+03  0.12509134401E+03 0.  0.
          5    1    3    3  502    0 -0.26213821422E+02  0.39695270105E+02  0.59371386900E+03  0.59563118584E+03  0.41800000000E+01 0.  1.
         -5    1    3    3    0  502  0.75461295132E+02  0.69385873207E+01  0.30633719258E+03  0.31559863595E+03  0.41800000000E+01 0.  1.
        -11    1    1    2    0    0 -0.74272124087E+02 -0.50861184637E+02  0.44996421493E+03  0.45888016217E+03  0.00000000000E+00 0.  1.
         11    1    1    2    0    0  0.25024650377E+02  0.42273272113E+01  0.13353112823E+03  0.13592154218E+03  0.00000000000E+00 0. -1.
</event>
<event>
 7    1  0.2719869E-009  0.1168557E+03  0.7561462E-02  0.1248376E+00
         -2   -1    0    0    0  501 -0.00000000000E+00  0.00000000000E+00  0.56427878007E+02  0.56427878007E+02  0.00000000000E+00 0.  1.
          2   -1    0    0  501    0  0.00000000000E+00 -0.00000000000E+00 -0.37777767591E+03  0.37777767591E+03  0.00000000000E+00 0. -1.
         25    2    1    2    0    0 -0.10584840080E+02 -0.68805213958E+02 -0.27548537067E+03  0.31046422124E+03  0.12509854881E+03 0.  0.
          5    1    3    3  502    0 -0.30385099568E+02 -0.95965285598E+02 -0.24495806427E+03  0.26486697787E+03  0.41800000000E+01 0. -1.
         -5    1    3    3    0  502  0.19800259488E+02  0.27160071640E+02 -0.30527306395E+02  0.45597243371E+02  0.41800000000E+01 0. -1.
        -11    1    1    2    0    0 -0.27760886424E+02  0.11292412579E+02  0.13268231357E+02  0.32775468880E+02  0.00000000000E+00 0.  1.
         11    1    1    2    0    0  0.38345726505E+02  0.57512801378E+02 -0.59132658596E+02  0.90965863796E+02  0.00000000000E+00 0. -1.
</event>
<event>
 7    1  0.2719869E-009  0.1159855E+03  0.7561462E-02  0.1249871E+00
          4   -1    0    0  501    0  0.00000000000E+00  0.00000000000E+00  0.34430098675E+03  0.34430098675E+03  0.00000000000E+00 0. -1.
         -4   -1    0    0    0  501 -0.00000000000E+00 -0.00000000000E+00 -0.42635420407E+02  0.42635420407E+02  0.00000000000E+00 0.  1.
         25    2    1    2    0    0 -0.41514519699E+01  0.47527619954E+02  0.21595171176E+03  0.25408380635E+03  0.12508928660E+03 0.  0.
          5    1    3    3  502    0 -0.53290039186E+02 -0.10331459644E+02  0.62892032686E+02  0.83183216517E+02  0.41800000000E+01 0. -1.
         -5    1    3    3    0  502  0.49138587216E+02  0.57859079598E+02  0.15305967908E+03  0.17090058983E+03  0.41800000000E+01 0. -1.
        -11    1    1    2    0    0  0.23426047299E+02  0.20295305231E+02  0.26117444452E+02  0.40531469393E+02  0.00000000000E+00 0.  1.
         11    1    1    2    0    0 -0.19274595329E+02 -0.67822925185E+02  0.59596410126E+02  0.92321131414E+02  0.00000000000E+00 0. -1.
</event>
<event>
 7    1  0.2719869E-009  0.9319044E+02  0.7561462E-02  0.1295304E+00
         -1   -1    0    0    0  501 -0.00000000000E+00  0.00000000000E+00  0.64357033575E+02  0.64357033575E+02  0.00000000000E+00 0.  1.
          1   -1    0    0  501    0  0.00000000000E+00 -0.00000000000E+00 -0.23364803279E+03  0.23364803279E+03  0.00000000000E+00 0. -1.
         25    2    1    2    0    0  0.56010636077E+02  0.11528289374E+02 -0.77607245120E+02  0.15791942815E+03  0.12508224687E+03 0.  0.
          5    1    3    3  502    0  0.82631396801E+02 -0.35069890921E+01 -0.92076513449E+02  0.12383781102E+03  0.41800000000E+01 0.  1.
         -5    1    3    3    0  502 -0.26620760724E+02  0.15035278466E+02  0.14469268329E+02  0.34081617128E+02  0.41800000000E+01 0.  1.
        -11    1    1    2    0    0 -0.39329200603E+02  0.14398634579E+02  0.15257510800E+01  0.41909839109E+02  0.00000000000E+00 0.  1.
         11    1    1    2    0    0 -0.16681435474E+02 -0.25926923953E+02 -0.93209505172E+02  0.98175799103E+02  0.00000000000E+00 0. -1.
</event>
<event>
 7    1  0.2719869E-009  0.8940201E+02  0.7561462E-02  0.1304306E+00
          2   -1    0    0  501    0  0.00000000000E+00  0.00000000000E+00  0.39470822099E+02  0.39470822099E+02  0.00000000000E+00 0. -1.
         -2   -1    0    0    0  501 -0.00000000000E+00 -0.00000000000E+00 -0.38650980629E+03  0.38650980629E+03  0.00000000000E+00 0.  1.
         25    2    1    2    0    0  0.32215537644E+02 -0.34823885041E+02 -0.25760615098E+03  0.29027804037E+03  0.12509943190E+03 0.  0.
          5    1    3    3  502    0 -0.44730289791E+02 -0.27332824561E+02 -0.71894319036E+02  0.89073832481E+02  0.41800000000E+01 0. -1.
         -5    1    3    3    0  502  0.76945827435E+02 -0.74910604794E+01 -0.18571183195E+03  0.20120420789E+03  0.41800000000E+01 0. -1.
        -11    1    1    2    0    0 -0.25570394370E+02  0.19711611484E+02 -0.10689956396E+03  0.11166874886E+03  0.00000000000E+00 0.  1.
         11    1    1    2    0    0 -0.66451432741E+01  0.15112273556E+02  0.17466730761E+02  0.24033839157E+02  0.00000000000E+00 0. -1.
</event>
<event>
 7    1  0.2719869E-009  0.8742571E+02  0.7561462E-02  0.1309208E+00
          3   -1    0    0  501    0  0.00000000000E+00  0.00000000000E+00  0.15718470458E+03  0.15718470458E+03  0.00000000000E+00 0. -1.
         -3   -1    0    0    0  501 -0.00000000000E+00 -0.00000000000E+00 -0.98652394303E+02  0.98652394303E+02  0.00000000000E+00 0.  1.
         25    2    1    2    0    0  0.22440597892E+02 -0.81813114118E+01  0.90592842349E+02  0.15628505087E+03  0.12508972680E+03 0.  0.
          5    1    3    3  502    0 -0.18984254495E+02  0.40032256586E+02 -0.12411027036E+01  0.44519616149E+02  0.41800000000E+01 0.  1.
         -5    1    3    3    0  502  0.41424852387E+02 -0.48213567998E+02  0.91833945052E+02  0.11176543472E+03  0.41800000000E+01 0.  1.
        -11    1    1    2    0    0 -0.36795015841E+02 -0.14710204994E+02  0.17332685254E+02  0.43251419627E+02  0.00000000000E+00 0. -1.
         11    1    1    2    0    0  0.14354417948E+02  0.22891516406E+02 -0.49393217330E+02  0.56300628382E+02  0.00000000000E+00 0.  1.
</event>
<event>
 7    1  0.2719869E-009  0.1133639E+03  0.7561462E-02  0.1254464E+00
          2   -1    0    0  501    0  0.00000000000E+00  0.00000000000E+00  0.22074441976E+03  0.22074441976E+03  0.00000000000E+00 0. -1.
         -2   -1    0    0    0  501 -0.00000000000E+00 -0.00000000000E+00 -0.90941381061E+02  0.90941381061E+02  0.00000000000E+00 0.  1.
         25    2    1    2    0    0 -0.28002876689E+02 -0.77208903337E+02  0.28425845327E+02  0.15231742951E+03  0.12508874767E+03 0.  0.
          5    1    3    3  502    0 -0.64352427150E+02 -0.84958515653E+02  0.22835013949E+01  0.10668585211E+03  0.41800000000E+01 0.  1.
         -5    1    3    3    0  502  0.36349550461E+02  0.77496123165E+01  0.26142343932E+02  0.45631577400E+02  0.41800000000E+01 0.  1.
        -11    1    1    2    0    0  0.19252537644E+02  0.39333691518E+02  0.11099634824E+03  0.11932304394E+03  0.00000000000E+00 0. -1.
         11    1    1    2    0    0  0.87503390448E+01  0.37875211819E+02 -0.96191548627E+01  0.40045327367E+02  0.00000000000E+00 0.  1.
</event>
<event>
 7    1  0.2719869E-009  0.5793272E+02  0.7561462E-02  0.1406718E+00
          2   -1    0    0  501    0  0.00000000000E+00  0.00000000000E+00  0.89738077589E+03  0.89738077589E+03  0.00000000000E+00 0. -1.
         -2   -1    0    0    0  501 -0.00000000000E+00 -0.00000000000E+00 -0.16189803523E+02  0.16189803523E+02  0.00000000000E+00 0.  1.
         25    2    1    2    0    0  0.46765352774E+00 -0.64270665056E+01  0.69249533209E+03  0.70373277397E+03  0.12509398989E+03 0.  0.
          5    1    3    3  502    0  0.39820388195E+00 -0.17294569249E+02  0.86490139491E+01  0.19787332668E+02  0.41800000000E+01 0. -1.
         -5    1    3    3    0  502  0.69449645791E-01  0.10867502743E+02  0.68384631814E+03  0.68394544130E+03  0.41800000000E+01 0. -1.
        -11    1    1    2    0    0 -0.40233843050E+02  0.19304378602E+02  0.61746673404E+02  0.76184465846E+02  0.00000000000E+00 0. -1.
         11    1    1    2    0    0  0.39766189523E+02 -0.12877312096E+02  0.12694896687E+03  0.13365333960E+03  0.00000000000E+00 0.  1.
</event>
<event>
 7    1  0.2719869E-009  0.1189330E+03  0.7561462E-02  0.1244868E+00
         -1   -1    0    0    0  501 -0.00000000000E+00  0.00000000000E+00  0.30971249928E+03  0.30971249928E+03  0.00000000000E+00 0.  1.
          1   -1    0    0  501    0  0.00000000000E+00 -0.00000000000E+00 -0.77111899291E+02  0.77111899291E+02  0.00000000000E+00 0. -1.
         25    2    1    2    0    0 -0.93331163242E+02 -0.47776426194E+02  0.14719112248E+03  0.21978500520E+03  0.12508768541E+03 0.  0.
          5    1    3    3  502    0  0.98456178986E+01 -0.11820564019E+02 -0.16493808877E+02  0.22938614972E+02  0.41800000000E+01 0.  1.
         -5    1    3    3    0  502 -0.10317678114E+03 -0.35955862175E+02  0.16368493136E+03  0.19684639023E+03  0.41800000000E+01 0.  1.
        -11    1    1    2    0    0  0.40190221587E+02  0.43569005053E+02  0.95870920945E+02  0.11271532990E+03  0.00000000000E+00 0.  1.
         11    1    1    2    0    0  0.53140941655E+02  0.42074211416E+01 -0.10461443440E+02  0.54324063466E+02  0.00000000000E+00 0. -1.
</event>
<event>
 7    1  0.2719869E-009  0.1336724E+03  0.7561462E-02  0.1222106E+00
          2   -1    0    0  501    0  0.00000000000E+00  0.00000000000E+00  0.61273088027E+03  0.61273088027E+03  0.00000000000E+00 0. -1.
         -2   -1    0    0    0  501 -0.00000000000E+00 -0.00000000000E+00 -0.36124790647E+02  0.36124790647E+02  0.00000000000E+00 0.  1.
         25    2    1    2    0    0  0.81981507549E+02  0.23665934170E+01  0.43900112161E+03  0.46378464758E+03  0.12509055204E+03 0.  0.
          5    1    3    3  502    0  0.51355086807E+01  0.52014508828E+02  0.10372509306E+03  0.11622499692E+03  0.41800000000E+01 0.  1.
         -5    1    3    3    0  502  0.76845998868E+02 -0.49647915411E+02  0.33527602855E+03  0.34755965066E+03  0.41800000000E+01 0.  1.
        -11    1    1    2    0    0 -0.31187774737E+01 -0.37044691044E+02  0.34573954156E+02  0.50768043230E+02  0.00000000000E+00 0.  1.
         11    1    1    2    0    0 -0.78862730075E+02  0.34678097627E+02  0.10303101386E+03  0.13430298011E+03  0.00000000000E+00 0. -1.
</event>
<event>
 7    1  0.2719869E-009  0.1006745E+03  0.7561462E-02  0.1278884E+00
          2   -1    0    0  501    0  0.00000000000E+00  0.00000000000E+00  0.64174521749E+03  0.64174521749E+03  0.00000000000E+00 0. -1.
         -2   -1    0    0    0  501 -0.00000000000E+00 -0.00000000000E+00 -0.24432368768E+02  0.24432368768E+02  0.00000000000E+00 0.  1.
         25    2    1    2    0    0  0.45087919736E+02  0.45848087511E+02  0.36014895676E+03  0.38663936263E+03  0.12509099906E+03 0.  0.
          5    1    3    3  502    0  0.31302112283E+00 -0.26393654321E+02  0.22735380632E+03  0.22891908749E+03  0.41800000000E+01 0.  1.
         -5    1    3    3    0  502  0.44774898613E+02  0.72241741832E+02  0.13279515044E+03  0.15772027514E+03  0.41800000000E+01 0.  1.
        -11    1    1    2    0    0  0.40957961534E+01 -0.39760181322E+02  0.39104026363E+02  0.55917550399E+02  0.00000000000E+00 0.  1.
         11    1    1    2    0    0 -0.49183715889E+02 -0.60879061889E+01  0.21805986560E+03  0.22362067323E+03  0.00000000000E+00 0. -1.
</event>
<event>
 7    1  0.2719869E-009  0.2626229E+03  0.7561462E-02  0.1105578E+00
         -2   -1    0    0    0  501 -0.00000000000E+00  0.00000000000E+00  0.23304587974E+03  0.23304587974E+03  0.00000000000E+00 0.  1.
          2   -1    0    0  501    0  0.00000000000E+00 -0.00000000000E+00 -0.32145970565E+03  0.32145970565E+03  0.00000000000E+00 0. -1.
         25    2    1    2    0    0 -0.74273395281E+02  0.23643787950E+03 -0.86742877317E+02  0.29084459167E+03  0.12508733601E+03 0.  0.
          5    1    3    3  502    0  0.27887366457E+02  0.10343180162E+03 -0.14486321221E+02  0.10818118458E+03  0.41800000000E+01 0.  1.
         -5    1    3    3    0  502 -0.10216076174E+03  0.13300607788E+03 -0.72256556096E+02  0.18266340710E+03  0.41800000000E+01 0.  1.
        -11    1    1    2    0    0  0.58682639573E+02 -0.12911455120E+03  0.40195336941E+02  0.14741059877E+03  0.00000000000E+00 0.  1.
         11    1    1    2    0    0  0.15590755708E+02 -0.10732332830E+03 -0.41866285530E+02  0.11625039495E+03  0.00000000000E+00 0. -1.
</event>
<event>
 7    1  0.2719869E-009  0.1053589E+03  0.7561462E-02  0.1269414E+00
          2   -1    0    0  501    0  0.00000000000E+00  0.00000000000E+00  0.45735861613E+03  0.45735861613E+03  0.00000000000E+00 0. -1.
         -2   -1    0    0    0  501 -0.00000000000E+00 -0.00000000000E+00 -0.33681643116E+02  0.33681643116E+02  0.00000000000E+00 0.  1.
         25    2    1    2    0    0  0.52769908827E+02 -0.21241388856E+02  0.31504676440E+03  0.34370843499E+03  0.12508063256E+03 0.  0.
          5    1    3    3  502    0  0.22025844603E+02 -0.60125696741E+02  0.26680236329E+03  0.27441066068E+03  0.41800000000E+01 0.  1.
         -5    1    3    3    0  502  0.30744064224E+02  0.38884307885E+02  0.48244401115E+02  0.69297774305E+02  0.41800000000E+01 0.  1.
        -11    1    1    2    0    0 -0.32367408393E+02  0.51189999858E+02  0.83833962057E+02  0.10342242700E+03  0.00000000000E+00 0.  1.
         11    1    1    2    0    0 -0.20402500434E+02 -0.29948611002E+02  0.24796246552E+02  0.43909397263E+02  0.00000000000E+00 0. -1.
</event>
<event>
 7    1  0.2719869E-009  0.1057277E+03  0.7561462E-02  0.1268692E+00
         -2   -1    0    0    0  501 -0.00000000000E+00  0.00000000000E+00  0.19002347285E+02  0.19002347285E+02  0.00000000000E+00 0.  1.
          2   -1    0    0  501    0  0.00000000000E+00 -0.00000000000E+00 -0.11289351403E+04  0.11289351403E+04  0.00000000000E+00 0. -1.
         25    2    1    2    0    0  0.32382008950E+02  0.11720559956E+02 -0.94740838141E+03  0.95625159913E+03  0.12509401919E+03 0.  0.
          5    1    3    3  502    0  0.10162626072E+02 -0.54603493654E+02 -0.30607679083E+03  0.31110335063E+03  0.41800000000E+01 0.  1.
         -5    1    3    3    0  502  0.22219382878E+02  0.66324053610E+02 -0.64133159059E+03  0.64514824850E+03  0.41800000000E+01 0.  1.
        -11    1    1    2    0    0 -0.49503172422E+02  0.16922237520E+02 -0.43394735610E+02  0.67970797268E+02  0.00000000000E+00 0.  1.
         11    1    1    2    0    0  0.17121163472E+02 -0.28642797476E+02 -0.11912967598E+03  0.12371509118E+03  0.00000000000E+00 0. -1.
</event>
<event>
 7    1  0.2719869E-009  0.1265283E+03  0.7561462E-02  0.1232700E+00
         -1   -1    0    0    0  501 -0.00000000000E+00  0.00000000000E+00  0.30467047900E+02  0.30467047900E+02  0.00000000000E+00 0.  1.
          1   -1    0    0  501    0  0.00000000000E+00 -0.00000000000E+00 -0.65679598960E+03  0.65679598960E+03  0.00000000000E+00 0. -1.
         25    2    1    2    0    0 -0.56398294991E+02  0.53257826032E+02 -0.46906801148E+03  0.49161951488E+03  0.12509110404E+03 0.  0.
          5    1    3    3  502    0 -0.28089018517E+02 -0.40290472082E+02 -0.16439429015E+03  0.17162537730E+03  0.41800000000E+01 0.  1.
         -5    1    3    3    0  502 -0.28309276474E+02  0.93548298114E+02 -0.30467372133E+03  0.31999413758E+03  0.41800000000E+01 0.  1.
        -11    1    1    2    0    0  0.14746596464E+02 -0.61700082400E+02 -0.51659372592E+02  0.81811081475E+02  0.00000000000E+00 0.  1.
         11    1    1    2    0    0  0.41651698527E+02  0.84422563682E+01 -0.10560155763E+03  0.11383244114E+03  0.00000000000E+00 0. -1.
</event>
<event>
 7    1  0.2719869E-009  0.1415871E+03  0.7561462E-02  0.1211209E+00
          2   -1    0    0  501    0  0.00000000000E+00  0.00000000000E+00  0.16221559575E+03  0.16221559575E+03  0.00000000000E+00 0.  1.
         -2   -1    0    0    0  501 -0.00000000000E+00 -0.00000000000E+00 -0.15081239464E+03  0.15081239464E+03  0.00000000000E+00 0. -1.
         25    2    1    2    0    0 -0.74754350275E+02 -0.68677777890E+02  0.51917726252E+02  0.16925894866E+03  0.12509313067E+03 0.  0.
          5    1    3    3  502    0  0.18992415810E+02 -0.56719381501E+02 -0.27069285399E+01  0.60021662409E+02  0.41800000000E+01 0. -1.
         -5    1    3    3    0  502 -0.93746766085E+02 -0.11958396388E+02  0.54624654792E+02  0.10923728625E+03  0.41800000000E+01 0. -1.
        -11    1    1    2    0    0  0.83410768668E+02  0.29471501265E+02 -0.25337186733E+01  0.88500539247E+02  0.00000000000E+00 0.  1.
         11    1    1    2    0    0 -0.86564183927E+01  0.39206276624E+02 -0.37980806469E+02  0.55268502478E+02  0.00000000000E+00 0. -1.
</event>
<event>
 7    1  0.2719869E-009  0.4967147E+02  0.7561462E-02  0.1447122E+00
          3   -1    0    0  501    0  0.00000000000E+00  0.00000000000E+00  0.62761275771E+02  0.62761275771E+02  0.00000000000E+00 0. -1.
         -3   -1    0    0    0  501 -0.00000000000E+00 -0.00000000000E+00 -0.15781392027E+03  0.15781392027E+03  0.00000000000E+00 0.  1.
         25    2    1    2    0    0  0.29842442843E+01  0.31763904577E+01 -0.54976735607E+02  0.13671905112E+03  0.12510260713E+03 0.  0.
          5    1    3    3  502    0  0.41253839283E+01  0.13424019440E+02  0.39219907800E+02  0.41867608701E+02  0.41800000000E+01 0. -1.
         -5    1    3    3    0  502 -0.11411396440E+01 -0.10247628983E+02 -0.94196643407E+02  0.94851442417E+02  0.41800000000E+01 0. -1.
        -11    1    1    2    0    0  0.33914400162E+02 -0.11365157711E+02 -0.17354092563E+02  0.39755727598E+02  0.00000000000E+00 0. -1.
         11    1    1    2    0    0 -0.36898644447E+02  0.81887672533E+01 -0.22721816334E+02  0.44100417330E+02  0.00000000000E+00 0.  1.
</event>
<event>
 7    1  0.4636263E-009  0.1153530E+03  0.7561462E-02  0.1250966E+00
         -1   -1    0    0    0  501 -0.00000000000E+00  0.00000000000E+00  0.14986958076E+02  0.14986958076E+02  0.00000000000E+00 0.  1.
          1   -1    0    0  501    0  0.00000000000E+00 -0.00000000000E+00 -0.12988065950E+04  0.12988065950E+04  0.00000000000E+00 0. -1.
         25    2    1    2    0    0 -0.63365865533E+02 -0.21795084882E+02 -0.97226669137E+03  0.98256856046E+03  0.12509275844E+03 0.  0.
          5    1    3    3  502    0 -0.55506430141E+02  0.40353470621E+02 -0.32085341544E+03  0.32813679004E+03  0.41800000000E+01 0.  1.
         -5    1    3    3    0  502 -0.78594353927E+01 -0.62148555503E+02 -0.65141327593E+03  0.65443177042E+03  0.41800000000E+01 0.  1.
        -11    1    1    2    0    0  0.38938615295E+02  0.49013900571E+02 -0.26352254431E+03  0.27085551420E+03  0.00000000000E+00 0.  1.
         11    1    1    2    0    0  0.24427250239E+02 -0.27218815688E+02 -0.48030401258E+02  0.60369478437E+02  0.00000000000E+00 0. -1.
</event>
<event>
 7    1  0.2719869E-009  0.9625992E+02  0.7561462E-02  0.1288363E+00
         -2   -1    0    0    0  501 -0.00000000000E+00  0.00000000000E+00  0.39703934727E+03  0.39703934727E+03  0.00000000000E+00 0.  1.
          2   -1    0    0  501    0  0.00000000000E+00 -0.00000000000E+00 -0.33527617207E+02  0.33527617207E+02  0.00000000000E+00 0. -1.
         25    2    1    2    0    0 -0.56957172916E+01 -0.38048636386E+02  0.20351646280E+03  0.24196459392E+03  0.12509106344E+03 0.  0.
          5    1    3    3  502    0  0.57830973132E+02 -0.28334482979E+02  0.12260371958E+03  0.13855110550E+03  0.41800000000E+01 0.  1.
         -5    1    3    3    0  502 -0.63526690423E+02 -0.97141534067E+01  0.80912743220E+02  0.10341348842E+03  0.41800000000E+01 0.  1.
        -11    1    1    2    0    0 -0.21501454421E+02  0.26266213077E+02  0.15484079776E+03  0.15851781964E+03  0.00000000000E+00 0.  1.
         11    1    1    2    0    0  0.27197171713E+02  0.11782423309E+02  0.51544695029E+01  0.30084550920E+02  0.00000000000E+00 0. -1.
</event>
<event>
 7    1  0.3568931E-009  0.1671531E+03  0.7561462E-02  0.1180850E+00
          2   -1    0    0  501    0  0.00000000000E+00  0.00000000000E+00  0.15737739348E+04  0.15737739348E+04  0.00000000000E+00 0. -1.
         -2   -1    0    0    0  501 -0.00000000000E+00 -0.00000000000E+00 -0.20084729581E+02  0.20084729581E+02  0.00000000000E+00 0.  1.
         25    2    1    2    0    0  0.12872542813E+03 -0.54575331731E+02  0.75215055892E+03  0.77519410518E+03  0.12508690877E+03 0.  0.
          5    1    3    3  502    0  0.59461905398E+02 -0.76887396392E+02  0.58220188556E+03  0.59027442590E+03  0.41800000000E+01 0.  1.
         -5    1    3    3    0  502  0.69263522733E+02  0.22312064662E+02  0.16994867336E+03  0.18491967929E+03  0.41800000000E+01 0.  1.
        -11    1    1    2    0    0 -0.59194022818E+02  0.71246283648E+02  0.52017038334E+03  0.52835328424E+03  0.00000000000E+00 0. -1.
         11    1    1    2    0    0 -0.69531405313E+02 -0.16670951918E+02  0.28136826299E+03  0.29031127498E+03  0.00000000000E+00 0.  1.
</event>
<event>
 7    1  0.2719869E-009  0.1456124E+03  0.7561462E-02  0.1205971E+00
          2   -1    0    0  501    0  0.00000000000E+00  0.00000000000E+00  0.10316731751E+04  0.10316731751E+04  0.00000000000E+00 0. -1.
         -2   -1    0    0    0  501 -0.00000000000E+00 -0.00000000000E+00 -0.28362347321E+02  0.28362347321E+02  0.00000000000E+00 0.  1.
         25    2    1    2    0    0 -0.11111937533E+03 -0.56668317033E+02  0.40043948331E+03  0.43767835016E+03  0.12510693294E+03 0.  0.
          5    1    3    3  502    0 -0.93919222085E+02 -0.14830680424E+02  0.11795270412E+03  0.15156213962E+03  0.41800000000E+01 0.  1.
         -5    1    3    3    0  502 -0.17200153244E+02 -0.41837636609E+02  0.28248677920E+03  0.28611621053E+03  0.41800000000E+01 0.  1.
        -11    1    1    2    0    0  0.12402981268E+03  0.41693380110E+02  0.56091956373E+03  0.57597959109E+03  0.00000000000E+00 0. -1.
         11    1    1    2    0    0 -0.12910437352E+02  0.14974936923E+02  0.41951780717E+02  0.46377581155E+02  0.00000000000E+00 0.  1.
</event>
<event>
 7    1  0.2719869E-009  0.1205895E+03  0.7561462E-02  0.1242128E+00
         -1   -1    0    0    0  501 -0.00000000000E+00  0.00000000000E+00  0.18496575173E+03  0.18496575173E+03  0.00000000000E+00 0.  1.
          1   -1    0    0  501    0  0.00000000000E+00 -0.00000000000E+00 -0.15181269277E+03  0.15181269277E+03  0.00000000000E+00 0. -1.
         25    2    1    2    0    0  0.10288790822E+03  0.61008533854E+02 -0.24374968323E+02  0.17478417632E+03  0.12508959329E+03 0.  0.
          5    1    3    3  502    0  0.25772678705E+02  0.12959550441E+02  0.49608799403E+02  0.57538563534E+02  0.41800000000E+01 0.  1.
         -5    1    3    3    0  502  0.77115229518E+02  0.48048983413E+02 -0.73983767726E+02  0.11724561279E+03  0.41800000000E+01 0.  1.
        -11    1    1    2    0    0 -0.49447363844E+02 -0.40196801860E+02  0.78339754587E+02  0.10098485936E+03  0.00000000000E+00 0.  1.
         11    1    1    2    0    0 -0.53440544379E+02 -0.20811731995E+02 -0.20811727301E+02  0.61009408827E+02  0.00000000000E+00 0. -1.
</event>
<event>
 7    1  0.2719869E-009  0.1095741E+03  0.7561462E-02  0.1261361E+00
         -1   -1    0    0    0  501 -0.00000000000E+00  0.00000000000E+00  0.15111603811E+02  0.15111603811E+02  0.00000000000E+00 0.  1.
          1   -1    0    0  501    0  0.00000000000E+00 -0.00000000000E+00 -0.12325493135E+04  0.12325493135E+04  0.00000000000E+00 0. -1.
         25    2    1    2    0    0 -0.75668208921E+02  0.21720841998E+02 -0.79145687306E+03  0.80513910992E+03  0.12509009391E+03 0.  0.
          5    1    3    3  502    0 -0.85838464828E+02  0.19113423096E+02 -0.27907630378E+03  0.29263393638E+03  0.41800000000E+01 0.  1.
         -5    1    3    3    0  502  0.10170255907E+02  0.26074189016E+01 -0.51238056927E+03  0.51250517354E+03  0.41800000000E+01 0.  1.
        -11    1    1    2    0    0  0.13999443807E+02  0.33952769158E+02 -0.13655673421E+03  0.14140904009E+03  0.00000000000E+00 0. -1.
         11    1    1    2    0    0  0.61668765114E+02 -0.55673611155E+02 -0.28942410241E+03  0.30111276729E+03  0.00000000000E+00 0.  1.
</event>
<event>
 6    1  0.2719869E-009  0.1102305E+03  0.7561462E-02  0.1260144E+00
         -1   -1    0    0    0  501 -0.00000000000E+00  0.00000000000E+00  0.11511692290E+02  0.11511692290E+02  0.00000000000E+00 0.  1.
          1   -1    0    0  501    0  0.00000000000E+00 -0.00000000000E+00 -0.13970029404E+04  0.13970029404E+04  0.00000000000E+00 0. -1.
          5    1    1    2  502    0  0.47109893537E+02 -0.26031622107E+02 -0.13518026814E+03  0.14556154956E+03  0.41800000000E+01 0. -1.
         -5    1    1    2    0  502  0.16068729586E+02  0.53168314430E+02 -0.65941150509E+03  0.66175983496E+03  0.41800000000E+01 0. -1.
        -11    1    1    2    0    0 -0.37616524582E+01 -0.47739179396E+02 -0.25456425965E+03  0.25902922918E+03  0.00000000000E+00 0.  1.
         11    1    1    2    0    0 -0.59416970665E+02  0.20602487073E+02 -0.33633521526E+03  0.34216401900E+03  0.00000000000E+00 0. -1.
</event>
<event>
 7    1  0.2719869E-009  0.5539114E+02  0.7561462E-02  0.1418258E+00
         -1   -1    0    0    0  501 -0.00000000000E+00  0.00000000000E+00  0.44170736541E+03  0.44170736541E+03  0.00000000000E+00 0.  1.
          1   -1    0    0  501    0  0.00000000000E+00 -0.00000000000E+00 -0.34153997454E+02  0.34153997454E+02  0.00000000000E+00 0. -1.
         25    2    1    2    0    0 -0.91405338827E+00  0.38983673047E+01  0.32310685586E+03  0.34649919533E+03  0.12509044446E+03 0.  0.
          5    1    3    3  502    0  0.18842468028E+02  0.20520880476E+02  0.31873920211E+03  0.31998171276E+03  0.41800000000E+01 0. -1.
         -5    1    3    3    0  502 -0.19756521417E+02 -0.16622513172E+02  0.43676537525E+01  0.26517482571E+02  0.41800000000E+01 0. -1.
        -11    1    1    2    0    0  0.57448720937E+01 -0.29677232973E+02 -0.96086958269E+01  0.31718586787E+02  0.00000000000E+00 0. -1.
         11    1    1    2    0    0 -0.48308187055E+01  0.25778865668E+02  0.94055207916E+02  0.97643580745E+02  0.00000000000E+00 0.  1.
</event>
<event>
 7    1  0.2719869E-009  0.1363219E+03  0.7561462E-02  0.1218366E+00
         -1   -1    0    0    0  501 -0.00000000000E+00  0.00000000000E+00  0.80979902114E+02  0.80979902114E+02  0.00000000000E+00 0.  1.
          1   -1    0    0  501    0  0.00000000000E+00 -0.00000000000E+00 -0.41923906016E+03  0.41923906016E+03  0.00000000000E+00 0. -1.
         25    2    1    2    0    0 -0.27158613192E+02 -0.79917641009E+02 -0.34442834234E+03  0.37603751072E+03  0.12509559085E+03 0.  0.
          5    1    3    3  502    0  0.48013663924E+02 -0.18500854611E+02 -0.15093727833E+03  0.15952155946E+03  0.41800000000E+01 0. -1.
         -5    1    3    3    0  502 -0.75172277116E+02 -0.61416786398E+02 -0.19349106401E+03  0.21651595126E+03  0.41800000000E+01 0. -1.
        -11    1    1    2    0    0  0.34108970212E+00  0.93703784284E+02  0.18709253029E+01  0.93723080897E+02  0.00000000000E+00 0. -1.
         11    1    1    2    0    0  0.26817523490E+02 -0.13786143275E+02  0.42982589880E+01  0.30458370654E+02  0.00000000000E+00 0.  1.
</event>
<event>
 7    1  0.2719869E-009  0.1861551E+03  0.7561462E-02  0.1161976E+00
         -1   -1    0    0    0  501 -0.00000000000E+00  0.00000000000E+00  0.55013505043E+03  0.55013505043E+03  0.00000000000E+00 0.  1.
          1   -1    0    0  501    0  0.00000000000E+00 -0.00000000000E+00 -0.70974379913E+02  0.70974379913E+02  0.00000000000E+00 0. -1.
         25    2    1    2    0    0 -0.12773953362E+03 -0.10318289452E+03  0.27465305032E+03  0.34357736458E+03  0.12508800595E+03 0.  0.
          5    1    3    3  502    0 -0.42922466329E+02  0.24408852160E+02  0.97162276224E+02  0.10906929220E+03  0.41800000000E+01 0. -1.
         -5    1    3    3    0  502 -0.84817067291E+02 -0.12759174668E+03  0.17749077410E+03  0.23450807238E+03  0.41800000000E+01 0. -1.
        -11    1    1    2    0    0  0.10865864030E+03  0.64513342089E+02  0.19657328475E+03  0.23368724333E+03  0.00000000000E+00 0.  1.
         11    1    1    2    0    0  0.19080893323E+02  0.38669552429E+02  0.79343354478E+01  0.43844822431E+02  0.00000000000E+00 0. -1.
</event>
<event>
 7    1  0.2719869E-009  0.1167907E+03  0.7561462E-02  0.1248487E+00
          3   -1    0    0  501    0  0.00000000000E+00  0.00000000000E+00  0.19774863482E+02  0.19774863482E+02  0.00000000000E+00 0. -1.
         -3   -1    0    0    0  501 -0.00000000000E+00 -0.00000000000E+00 -0.81936860769E+03  0.81936860769E+03  0.00000000000E+00 0.  1.
         25    2    1    2    0    0  0.28525409965E+02 -0.55167032828E+02 -0.53477315673E+03  0.55270794708E+03  0.12508655040E+03 0.  0.
          5    1    3    3  502    0  0.70966958624E+02 -0.58518631972E+02 -0.29132283815E+03  0.30552775313E+03  0.41800000000E+01 0. -1.
         -5    1    3    3    0  502 -0.42441548658E+02  0.33515991446E+01 -0.24345031857E+03  0.24718019395E+03  0.41800000000E+01 0. -1.
        -11    1    1    2    0    0  0.54559552832E+01 -0.17594084829E+02 -0.14185903346E+02  0.23249927371E+02  0.00000000000E+00 0. -1.
         11    1    1    2    0    0 -0.33981365248E+02  0.72761117657E+02 -0.25063468414E+03  0.26318559672E+03  0.00000000000E+00 0.  1.
</event>
<event>
 7    1  0.2719869E-009  0.1049294E+03  0.7561462E-02  0.1270259E+00
         -2   -1    0    0    0  501 -0.00000000000E+00  0.00000000000E+00  0.54238230915E+03  0.54238230915E+03  0.00000000000E+00 0.  1.
          2   -1    0    0  501    0  0.00000000000E+00 -0.00000000000E+00 -0.23436842062E+02  0.23436842062E+02  0.00000000000E+00 0. -1.
         25    2    1    2    0    0 -0.19325539479E+02  0.13235769277E+02  0.38402870685E+03  0.40456548548E+03  0.12508605956E+03 0.  0.
          5    1    3    3  502    0  0.51494147790E+02  0.20712481559E+02  0.15549739932E+03  0.16515921937E+03  0.41800000000E+01 0.  1.
         -5    1    3    3    0  502 -0.70819687268E+02 -0.74767122821E+01  0.22853130753E+03  0.23940626611E+03  0.41800000000E+01 0.  1.
        -11    1    1    2    0    0 -0.26268062874E+02 -0.24475502673E+02  0.31854561310E+02  0.47997650302E+02  0.00000000000E+00 0. -1.
         11    1    1    2    0    0  0.45593602353E+02  0.11239733396E+02  0.10306219893E+03  0.11325601543E+03  0.00000000000E+00 0.  1.
</event>
<event>
 7    1  0.2719869E-009  0.1620535E+03  0.7561462E-02  0.1186398E+00
          2   -1    0    0  501    0  0.00000000000E+00  0.00000000000E+00  0.24629360770E+03  0.24629360770E+03  0.00000000000E+00 0.  1.
         -2   -1    0    0    0  501 -0.00000000000E+00 -0.00000000000E+00 -0.12681595418E+03  0.12681595418E+03  0.00000000000E+00 0. -1.
         25    2    1    2    0    0 -0.91537410567E+02 -0.93534697564E+02  0.11667774769E+03  0.21538036615E+03  0.12508864111E+03 0.  0.
          5    1    3    3  502    0 -0.24601026408E+02 -0.10774101859E+03  0.56644675062E+02  0.12425549967E+03  0.41800000000E+01 0. -1.
         -5    1    3    3    0  502 -0.66936384159E+02  0.14206321022E+02  0.60033072627E+02  0.91124866476E+02  0.41800000000E+01 0. -1.
        -11    1    1    2    0    0  0.88001673713E+00  0.39315619152E+02  0.29039380821E+02  0.48885355447E+02  0.00000000000E+00 0.  1.
         11    1    1    2    0    0  0.90657393830E+02  0.54219078412E+02 -0.26239474989E+02  0.10884384028E+03  0.00000000000E+00 0. -1.
</event>
<event>
 7    1  0.3261000E-009  0.1482239E+03  0.7561462E-02  0.1202673E+00
          2   -1    0    0  501    0  0.00000000000E+00  0.00000000000E+00  0.78188011024E+03  0.78188011024E+03  0.00000000000E+00 0. -1.
         -2   -1    0    0    0  501 -0.00000000000E+00 -0.00000000000E+00 -0.53062073695E+02  0.53062073695E+02  0.00000000000E+00 0.  1.
         25    2    1    2    0    0  0.40845025526E+02 -0.13915234268E+03  0.19096393727E+03  0.27045676988E+03  0.12509176015E+03 0.  0.
          5    1    3    3  502    0 -0.86591301053E+01 -0.25490210321E+02  0.12890749894E+03  0.13175487482E+03  0.41800000000E+01 0.  1.
         -5    1    3    3    0  502  0.49504155631E+02 -0.11366213236E+03  0.62056438326E+02  0.13870189506E+03  0.41800000000E+01 0.  1.
        -11    1    1    2    0    0 -0.31578859063E+02  0.97415744252E+02  0.48881434986E+03  0.49942619094E+03  0.00000000000E+00 0. -1.
         11    1    1    2    0    0 -0.92661664636E+01  0.41736598424E+02  0.49039749427E+02  0.65059223119E+02  0.00000000000E+00 0.  1.
</event>
<event>
 7    1  0.2719869E-009  0.1111992E+03  0.7561462E-02  0.1258365E+00
         -2   -1    0    0    0  501 -0.00000000000E+00  0.00000000000E+00  0.14053579256E+03  0.14053579256E+03  0.00000000000E+00 0.  1.
          2   -1    0    0  501    0  0.00000000000E+00 -0.00000000000E+00 -0.18797565715E+03  0.18797565715E+03  0.00000000000E+00 0. -1.
         25    2    1    2    0    0  0.31268242676E+01 -0.87252629494E+02  0.58538235038E+02  0.16339159088E+03  0.12508912273E+03 0.  0.
          5    1    3    3  502    0  0.69934863214E+01  0.88709373799E+01 -0.30158363888E+02  0.32474631535E+02  0.41800000000E+01 0. -1.
         -5    1    3    3    0  502 -0.38666620538E+01 -0.96123566873E+02  0.88696598926E+02  0.13091695935E+03  0.41800000000E+01 0. -1.
        -11    1    1    2    0    0 -0.36420852728E+02  0.63359694668E+02 -0.30411700393E+02  0.79156812358E+02  0.00000000000E+00 0.  1.
         11    1    1    2    0    0  0.33294028460E+02  0.23892934826E+02 -0.75566399233E+02  0.85963046472E+02  0.00000000000E+00 0. -1.
</event>
<event>
 7    1  0.2719869E-009  0.1583528E+03  0.7561462E-02  0.1190569E+00
         -2   -1    0    0    0  501 -0.00000000000E+00  0.00000000000E+00  0.34133979480E+02  0.34133979480E+02  0.00000000000E+00 0.  1.
          2   -1    0    0  501    0  0.00000000000E+00 -0.00000000000E+00 -0.10806067552E+04  0.10806067552E+04  0.00000000000E+00 0. -1.
         25    2    1    2    0    0  0.65303027108E+02  0.11067755065E+03 -0.82556990042E+03  0.84482306204E+03  0.12508533135E+03 0.  0.
          5    1    3    3  502    0  0.74643953567E+02  0.12400515996E+03 -0.80654678349E+03  0.81944138647E+03  0.41800000000E+01 0. -1.
         -5    1    3    3    0  502 -0.93409264588E+01 -0.13327609318E+02 -0.19023116927E+02  0.25381675572E+02  0.41800000000E+01 0. -1.
        -11    1    1    2    0    0 -0.62797366490E+02 -0.22221882687E+02 -0.94594561518E+02  0.11569551580E+03  0.00000000000E+00 0.  1.
         11    1    1    2    0    0 -0.25056606181E+01 -0.88455667960E+02 -0.12630831382E+03  0.15422215687E+03  0.00000000000E+00 0. -1.
</event>
<event>
 7    1  0.2719869E-009  0.8519369E+02  0.7561462E-02  0.1314927E+00
          3   -1    0    0  501    0  0.00000000000E+00  0.00000000000E+00  0.15724155398E+03  0.15724155398E+03  0.00000000000E+00 0. -1.
         -3   -1    0    0    0  501 -0.00000000000E+00 -0.00000000000E+00 -0.10430906345E+03  0.10430906345E+03  0.00000000000E+00 0.  1.
         25    2    1    2    0    0 -0.32259600235E+02 -0.86914047205E+00  0.91049056475E+02  0.15804820472E+03  0.12509143503E+03 0.  0.
          5    1    3    3  502    0  0.35393657926E+02  0.65944545157E+01  0.81493491419E+02  0.89190018474E+02  0.41800000000E+01 0.  1.
         -5    1    3    3    0  502 -0.67653258162E+02 -0.74635949877E+01  0.95555650568E+01  0.68858186250E+02  0.41800000000E+01 0.  1.
        -11    1    1    2    0    0  0.84201878645E+01  0.28348074436E+02  0.19456751324E+02  0.35398842636E+02  0.00000000000E+00 0. -1.
         11    1    1    2    0    0  0.23839412371E+02 -0.27478933964E+02 -0.57573317274E+02  0.68103570067E+02  0.00000000000E+00 0.  1.
</event>
<event>
 7    1  0.2719869E-009  0.1871762E+03  0.7561462E-02  0.1161033E+00
          1   -1    0    0  501    0  0.00000000000E+00  0.00000000000E+00  0.88345989603E+03  0.88345989603E+03  0.00000000000E+00 0. -1.
         -1   -1    0    0    0  501 -0.00000000000E+00 -0.00000000000E+00 -0.50849397545E+02  0.50849397545E+02  0.00000000000E+00 0.  1.
         25    2    1    2    0    0 -0.16881105673E+03 -0.49986151572E+02  0.53622269408E+03  0.57808133798E+03  0.12508983750E+03 0.  0.
          5    1    3    3  502    0 -0.33487835340E+02  0.20131668792E+01  0.14872198795E+02  0.36934301857E+02  0.41800000000E+01 0.  1.
         -5    1    3    3    0  502 -0.13532322139E+03 -0.51999318451E+02  0.52135049529E+03  0.54114703612E+03  0.41800000000E+01 0.  1.
        -11    1    1    2    0    0  0.72352369611E+02  0.65763658175E+02  0.12230290932E+03  0.15658137103E+03  0.00000000000E+00 0.  1.
         11    1    1    2    0    0  0.96458687115E+02 -0.15777506603E+02  0.17408489509E+03  0.19964658458E+03  0.00000000000E+00 0. -1.
</event>
<event>
 7    1  0.2719869E-009  0.2534968E+03  0.7561462E-02  0.1111115E+00
          2   -1    0    0  501    0  0.00000000000E+00  0.00000000000E+00  0.19215862681E+04  0.19215862681E+04  0.00000000000E+00 0. -1.
         -2   -1    0    0    0  501 -0.00000000000E+00 -0.00000000000E+00 -0.37969579401E+02  0.37969579401E+02  0.00000000000E+00 0.  1.
         25    2    1    2    0    0  0.66667535421E+02  0.22708323780E+03  0.71372750999E+03  0.76227771009E+03  0.12509592964E+03 0.  0.
          5    1    3    3  502    0  0.84945770403E+02  0.21194938490E+03  0.69558308125E+03  0.73211448625E+03  0.41800000000E+01 0.  1.
         -5    1    3    3    0  502 -0.18278234982E+02  0.15133852896E+02  0.18144428744E+02  0.30163223833E+02  0.41800000000E+01 0.  1.
        -11    1    1    2    0    0 -0.19862536562E+02 -0.19889379343E+03  0.90440947741E+03  0.92623418435E+03  0.00000000000E+00 0. -1.
         11    1    1    2    0    0 -0.46804998859E+02 -0.28189444361E+02  0.26547970128E+03  0.27104395305E+03  0.00000000000E+00 0.  1.
</event>
<event>
 7    1  0.2719869E-009  0.1344265E+03  0.7561462E-02  0.1221032E+00
          3   -1    0    0  501    0  0.00000000000E+00  0.00000000000E+00  0.40353743546E+03  0.40353743546E+03  0.00000000000E+00 0. -1.
         -3   -1    0    0    0  501 -0.00000000000E+00 -0.00000000000E+00 -0.48144571109E+02  0.48144571109E+02  0.00000000000E+00 0.  1.
         25    2    1    2    0    0 -0.80338809861E+02 -0.11582461844E+02  0.14272101731E+03  0.20641386808E+03  0.12509563687E+03 0.  0.
          5    1    3    3  502    0  0.33618205026E+02  0.35803790504E+01  0.34001484484E+02  0.48130823497E+02  0.41800000000E+01 0.  1.
         -5    1    3    3    0  502 -0.11395701489E+03 -0.15162840894E+02  0.10871953283E+03  0.15828304459E+03  0.41800000000E+01 0.  1.
        -11    1    1    2    0    0  0.39353327301E+01  0.38532230185E+02  0.47446565890E+02  0.61248642609E+02  0.00000000000E+00 0. -1.
         11    1    1    2    0    0  0.76403477131E+02 -0.26949768341E+02  0.16522528115E+03  0.18401949588E+03  0.00000000000E+00 0.  1.
</event>
<event>
 7    1  0.2719869E-009  0.1373099E+03  0.7561462E-02  0.1216995E+00
          1   -1    0    0  501    0  0.00000000000E+00  0.00000000000E+00  0.74636148898E+02  0.74636148898E+02  0.00000000000E+00 0. -1.
         -1   -1    0    0    0  501 -0.00000000000E+00 -0.00000000000E+00 -0.40859859612E+03  0.40859859612E+03  0.00000000000E+00 0.  1.
         25    2    1    2    0    0 -0.64959934862E+02 -0.11630204513E+03 -0.24373637569E+03  0.30465024778E+03  0.12513350390E+03 0.  0.
          5    1    3    3  502    0  0.20690514551E+01 -0.17727895670E+02 -0.15475929200E+03  0.15584116952E+03  0.41800000000E+01 0. -1.
         -5    1    3    3    0  502 -0.67028986317E+02 -0.98574149463E+02 -0.88977083694E+02  0.14880907826E+03  0.41800000000E+01 0. -1.
        -11    1    1    2    0    0  0.13609357955E+02  0.56831865467E+02  0.66145048341E+00  0.58442391063E+02  0.00000000000E+00 0. -1.
         11    1    1    2    0    0  0.51350576907E+02  0.59470179666E+02 -0.90887522015E+02  0.12014210617E+03  0.00000000000E+00 0.  1.
</event>
<event>
 7    1  0.2719869E-009  0.2097955E+03  0.7561462E-02  0.1141728E+00
         -2   -1    0    0    0  501 -0.00000000000E+00  0.00000000000E+00  0.83014816823E+02  0.83014816823E+02  0.00000000000E+00 0.  1.
          2   -1    0    0  501    0  0.00000000000E+00 -0.00000000000E+00 -0.76454409589E+03  0.76454409589E+03  0.00000000000E+00 0. -1.
         25    2    1    2    0    0 -0.86772226888E+02  0.16883315315E+03 -0.56070752676E+03  0.60504059543E+03  0.12508852301E+03 0.  0.
          5    1    3    3  502    0 -0.76117422721E+02  0.23071131897E+02 -0.23172474970E+03  0.24503055155E+03  0.41800000000E+01 0. -1.
         -5    1    3    3    0  502 -0.10654804167E+02  0.14576202126E+03 -0.32898277706E+03  0.36001004388E+03  0.41800000000E+01 0. -1.
        -11    1    1    2    0    0  0.10681150782E+02 -0.59971250642E+02 -0.85684211107E+02  0.10513049947E+03  0.00000000000E+00 0. -1.
         11    1    1    2    0    0  0.76091076106E+02 -0.10886190251E+03 -0.35137541196E+02  0.13738781781E+03  0.00000000000E+00 0.  1.
</event>
<event>
 7    1  0.2719869E-009  0.8794260E+02  0.7561462E-02  0.1307912E+00
         -1   -1    0    0    0  501 -0.00000000000E+00  0.00000000000E+00  0.55839083891E+03  0.55839083891E+03  0.00000000000E+00 0.  1.
          1   -1    0    0  501    0  0.00000000000E+00 -0.00000000000E+00 -0.32581259250E+02  0.32581259250E+02  0.00000000000E+00 0. -1.
         25    2    1    2    0    0 -0.13581253621E+02 -0.20725223285E+02  0.43081363069E+03  0.44928880746E+03  0.12508422278E+03 0.  0.
          5    1    3    3  502    0 -0.39062448145E+02 -0.48911218981E+02  0.11352440419E+03  0.12970522327E+03  0.41800000000E+01 0.  1.
         -5    1    3    3    0  502  0.25481194524E+02  0.28185995696E+02  0.31728922650E+03  0.31958358419E+03  0.41800000000E+01 0.  1.
        -11    1    1    2    0    0 -0.61975474646E+01  0.43969502775E+02  0.27159418864E+01  0.44487111720E+02  0.00000000000E+00 0. -1.
         11    1    1    2    0    0  0.19778801086E+02 -0.23244279490E+02  0.92280007083E+02  0.97196178981E+02  0.00000000000E+00 0.  1.
</event>
<event>
 7    1  0.2719869E-009  0.7660844E+02  0.7561462E-02  0.1338961E+00
         -4   -1    0    0    0  501 -0.00000000000E+00  0.00000000000E+00  0.18702581673E+03  0.18702581673E+03  0.00000000000E+00 0.  1.
          4   -1    0    0  501    0  0.00000000000E+00 -0.00000000000E+00 -0.58480204594E+02  0.58480204594E+02  0.00000000000E+00 0. -1.
         25    2    1    2    0    0  0.15872757045E+01  0.22221387406E+02  0.48976667337E+02  0.13616580696E+03  0.12508438568E+03 0.  0.
          5    1    3    3  502    0 -0.34823086185E+02  0.34739485299E+02  0.74797291150E+02  0.89619118126E+02  0.41800000000E+01 0. -1.
         -5    1    3    3    0  502  0.36410361889E+02 -0.12518097893E+02 -0.25820623813E+02  0.46546688839E+02  0.41800000000E+01 0. -1.
        -11    1    1    2    0    0  0.25537844136E+01 -0.43434470956E+02  0.75801181037E+02  0.87400767323E+02  0.00000000000E+00 0.  1.
         11    1    1    2    0    0 -0.41410601181E+01  0.21213083550E+02  0.37677637643E+01  0.21939447039E+02  0.00000000000E+00 0. -1.
</event>
<event>
 7    1  0.2870600E-009  0.1213287E+03  0.7561462E-02  0.1240921E+00
          4   -1    0    0  501    0  0.00000000000E+00  0.00000000000E+00  0.67697396630E+02  0.67697396630E+02  0.00000000000E+00 0. -1.
         -4   -1    0    0    0  501 -0.00000000000E+00 -0.00000000000E+00 -0.28136723579E+03  0.28136723579E+03  0.00000000000E+00 0.  1.
         25    2    1    2    0    0 -0.55959088036E+02 -0.45321152039E+02 -0.17434093302E+03  0.22633378270E+03  0.12508714527E+03 0.  0.
          5    1    3    3  502    0 -0.85715235665E+02 -0.47026856430E+02 -0.77217661052E+02  0.12465418737E+03  0.41800000000E+01 0.  1.
         -5    1    3    3    0  502  0.29756147629E+02  0.17057043916E+01 -0.97123271968E+02  0.10167959533E+03  0.41800000000E+01 0.  1.
        -11    1    1    2    0    0  0.59573518105E+02 -0.90108290604E+01 -0.10639814006E+02  0.61183369815E+02  0.00000000000E+00 0. -1.
         11    1    1    2    0    0 -0.36144300694E+01  0.54331981099E+02 -0.28689092135E+02  0.61547479903E+02  0.00000000000E+00 0.  1.
</event>
<event>
 7    1  0.2719869E-009  0.5842112E+02  0.7561462E-02  0.1404580E+00
          2   -1    0    0  501    0  0.00000000000E+00  0.00000000000E+00  0.87743841525E+02  0.87743841525E+02  0.00000000000E+00 0. -1.
         -2   -1    0    0    0  501 -0.00000000000E+00 -0.00000000000E+00 -0.21996168743E+03  0.21996168743E+03  0.00000000000E+00 0.  1.
         25    2    1    2    0    0  0.15202826999E+02 -0.35521606847E+02  0.23207303163E+02  0.13296156719E+03  0.12508912394E+03 0.  0.
          5    1    3    3  502    0 -0.63245211926E+00 -0.47626540408E+01 -0.50780411147E+02  0.51178173331E+02  0.41800000000E+01 0.  1.
         -5    1    3    3    0  502  0.15835279118E+02 -0.30758952806E+02  0.73987714310E+02  0.81783393861E+02  0.41800000000E+01 0.  1.
        -11    1    1    2    0    0  0.18015616054E+02  0.38266131947E+02 -0.11387992747E+03  0.12148043940E+03  0.00000000000E+00 0. -1.
         11    1    1    2    0    0 -0.33218443053E+02 -0.27445251000E+01 -0.41545221596E+02  0.53263522362E+02  0.00000000000E+00 0.  1.
</event>
<event>
 7    1  0.2719869E-009  0.6907536E+02  0.7561462E-02  0.1363266E+00
          1   -1    0    0  501    0  0.00000000000E+00  0.00000000000E+00  0.24730454285E+03  0.24730454285E+03  0.00000000000E+00 0. -1.
         -1   -1    0    0    0  501 -0.00000000000E+00 -0.00000000000E+00 -0.58353199799E+02  0.58353199799E+02  0.00000000000E+00 0.  1.
         25    2    1    2    0    0  0.67865004648E+01 -0.54776937190E+02  0.11814620383E+03  0.18069989180E+03  0.12508939196E+03 0.  0.
          5    1    3    3  502    0  0.17535925290E+02 -0.26475714600E+02  0.13968568695E+03  0.14331097543E+03  0.41800000000E+01 0.  1.
         -5    1    3    3    0  502 -0.10749424825E+02 -0.28301222590E+02 -0.21539483125E+02  0.37388916372E+02  0.41800000000E+01 0.  1.
        -11    1    1    2    0    0 -0.13367735971E+02  0.63353576793E+02  0.12860503796E+02  0.66013366944E+02  0.00000000000E+00 0.  1.
         11    1    1    2    0    0  0.65812355064E+01 -0.85766396032E+01  0.57944635424E+02  0.58944483899E+02  0.00000000000E+00 0. -1.
</event>
<event>
 7    1  0.2719869E-009  0.1835232E+03  0.7561462E-02  0.1164436E+00
         -1   -1    0    0    0  501 -0.00000000000E+00  0.00000000000E+00  0.15779745699E+03  0.15779745699E+03  0.00000000000E+00 0.  1.
          1   -1    0    0  501    0  0.00000000000E+00 -0.00000000000E+00 -0.27129516976E+03  0.27129516976E+03  0.00000000000E+00 0. -1.
         25    2    1    2    0    0  0.13124654474E+03  0.99040294828E+02 -0.11886619464E+03  0.23835091975E+03  0.12508938089E+03 0.  0.
          5    1    3    3  502    0 -0.38456955141E+01  0.35977956668E+02  0.13593100759E+02  0.38877339521E+02  0.41800000000E+01 0. -1.
         -5    1    3    3    0  502  0.13509224026E+03  0.63062338159E+02 -0.13245929540E+03  0.19947358023E+03  0.41800000000E+01 0. -1.
        -11    1    1    2    0    0 -0.62198755349E+02 -0.18107142787E+01 -0.25990415463E+02  0.67434898599E+02  0.00000000000E+00 0.  1.
         11    1    1    2    0    0 -0.69047789396E+02 -0.97229580549E+02  0.31358897338E+02  0.12330680839E+03  0.00000000000E+00 0. -1.
</event>
<event>
 7    1  0.2719869E-009  0.1172162E+03  0.7561462E-02  0.1247761E+00
          2   -1    0    0  501    0  0.00000000000E+00  0.00000000000E+00  0.34393806643E+03  0.34393806643E+03  0.00000000000E+00 0. -1.
         -2   -1    0    0    0  501 -0.00000000000E+00 -0.00000000000E+00 -0.40948021652E+02  0.40948021652E+02  0.00000000000E+00 0.  1.
         25    2    1    2    0    0  0.21662253786E+02  0.74740593464E+01  0.14934879321E+03  0.19615739111E+03  0.12509014850E+03 0.  0.
          5    1    3    3  502    0 -0.29828041739E+02 -0.44298890291E+02  0.54942105439E+02  0.76734679937E+02  0.41800000000E+01 0. -1.
         -5    1    3    3    0  502  0.51490295525E+02  0.51772949638E+02  0.94406687774E+02  0.11942271117E+03  0.41800000000E+01 0. -1.
        -11    1    1    2    0    0  0.32885848505E+02  0.27550872827E+02  0.78756476490E+02  0.89683399883E+02  0.00000000000E+00 0.  1.
         11    1    1    2    0    0 -0.54548102292E+02 -0.35024932174E+02  0.74884775075E+02  0.99045297089E+02  0.00000000000E+00 0. -1.
</event>
<event>
 7    1  0.2719869E-009  0.1214970E+03  0.7561462E-02  0.1240648E+00
          1   -1    0    0  501    0  0.00000000000E+00  0.00000000000E+00  0.81644837601E+02  0.81644837601E+02  0.00000000000E+00 0. -1.
         -1   -1    0    0    0  501 -0.00000000000E+00 -0.00000000000E+00 -0.21719481521E+03  0.21719481521E+03  0.00000000000E+00 0.  1.
         25    2    1    2    0    0 -0.11473802357E+02  0.75392616942E+02 -0.82110791728E+02  0.16794275875E+03  0.12508754242E+03 0.  0.
          5    1    3    3  502    0  0.41970074082E+02  0.17974980311E+02 -0.76503982792E+02  0.89190351601E+02  0.41800000000E+01 0.  1.
         -5    1    3    3    0  502 -0.53443876439E+02  0.57417636631E+02 -0.56068089356E+01  0.78752407147E+02  0.41800000000E+01 0.  1.
        -11    1    1    2    0    0 -0.30486971940E+02 -0.69919315699E+02 -0.41937077786E+02  0.87045302338E+02  0.00000000000E+00 0.  1.
         11    1    1    2    0    0  0.41960774297E+02 -0.54733012432E+01 -0.11502108095E+02  0.43851591724E+02  0.00000000000E+00 0. -1.
</event>
<event>
 7    1  0.2719869E-009  0.1035293E+03  0.7561462E-02  0.1273045E+00
          3   -1    0    0  501    0  0.00000000000E+00  0.00000000000E+00  0.45437269089E+02  0.45437269089E+02  0.00000000000E+00 0. -1.
         -3   -1    0    0    0  501 -0.00000000000E+00 -0.00000000000E+00 -0.35194331186E+03  0.35194331186E+03  0.00000000000E+00 0.  1.
         25    2    1    2    0    0  0.64411029062E+02 -0.14571546175E+01 -0.18834621549E+03  0.23510083833E+03  0.12508878180E+03 0.  0.
          5    1    3    3  502    0  0.76717174989E+01 -0.35775691628E+02 -0.15767909584E+03  0.16192258961E+03  0.41800000000E+01 0. -1.
         -5    1    3    3    0  502  0.56739311563E+02  0.34318537010E+02 -0.30667119649E+02  0.73178248727E+02  0.41800000000E+01 0. -1.
        -11    1    1    2    0    0 -0.90009956511E+01  0.36920814537E+02 -0.17050229620E+02  0.41651828277E+02  0.00000000000E+00 0. -1.
         11    1    1    2    0    0 -0.55410033411E+02 -0.35463659919E+02 -0.10110959766E+03  0.12062791434E+03  0.00000000000E+00 0.  1.
</event>
<event>
 7    1  0.2719869E-009  0.1014681E+03  0.7561462E-02  0.1277239E+00
          1   -1    0    0  501    0  0.00000000000E+00  0.00000000000E+00  0.20581411718E+02  0.20581411718E+02  0.00000000000E+00 0. -1.
         -1   -1    0    0    0  501 -0.00000000000E+00 -0.00000000000E+00 -0.12427126835E+04  0.12427126835E+04  0.00000000000E+00 0.  1.
         25    2    1    2    0    0 -0.11011742816E+02 -0.98155543152E+02 -0.89669963218E+03  0.91075558611E+03  0.12509891341E+03 0.  0.
          5    1    3    3  502    0 -0.85781201366E+01 -0.20334507678E+02 -0.68143316304E+03  0.68180327400E+03  0.41800000000E+01 0. -1.
         -5    1    3    3    0  502 -0.24336226791E+01 -0.77821035474E+02 -0.21526646914E+03  0.22895231211E+03  0.41800000000E+01 0. -1.
        -11    1    1    2    0    0 -0.28397166609E+01  0.77970501534E+02 -0.31728612667E+03  0.32673834988E+03  0.00000000000E+00 0.  1.
         11    1    1    2    0    0  0.13851459477E+02  0.20185041618E+02 -0.81455128994E+01  0.25800159208E+02  0.00000000000E+00 0. -1.
</event>
<event>
 7    1  0.2719869E-009  0.1001828E+03  0.7561462E-02  0.1279912E+00
          2   -1    0    0  501    0  0.00000000000E+00  0.00000000000E+00  0.14973528854E+04  0.14973528854E+04  0.00000000000E+00 0. -1.
         -2   -1    0    0    0  501 -0.00000000000E+00 -0.00000000000E+00 -0.96590804538E+01  0.96590804538E+01  0.00000000000E+00 0.  1.
         25    2    1    2    0    0 -0.28259719278E+02 -0.36811791444E+02  0.99537133530E+03  0.10042735388E+04  0.12509007126E+03 0.  0.
          5    1    3    3  502    0 -0.19242979567E+02 -0.65882407289E+02  0.92419741595E+03  0.92675191928E+03  0.41800000000E+01 0. -1.
         -5    1    3    3    0  502 -0.90167397106E+01  0.29070615845E+02  0.71173919358E+02  0.77521619549E+02  0.41800000000E+01 0. -1.
        -11    1    1    2    0    0 -0.16211343084E+02  0.51543828391E+02  0.22964500121E+03  0.23591608777E+03  0.00000000000E+00 0.  1.
         11    1    1    2    0    0  0.44471062361E+02 -0.14732036947E+02  0.26267746841E+03  0.26682233923E+03  0.00000000000E+00 0. -1.
</event>
<event>
 7    1  0.2719869E-009  0.1417969E+03  0.7561462E-02  0.1210931E+00
         -2   -1    0    0    0  501 -0.00000000000E+00  0.00000000000E+00  0.57554790751E+03  0.57554790751E+03  0.00000000000E+00 0.  1.
          2   -1    0    0  501    0  0.00000000000E+00 -0.00000000000E+00 -0.51510558010E+02  0.51510558010E+02  0.00000000000E+00 0. -1.
         25    2    1    2    0    0 -0.91241228338E+02 -0.14233822241E+02  0.45307844156E+03  0.47901492580E+03  0.12509061311E+03 0.  0.
          5    1    3    3  502    0  0.67677160499E+01 -0.50326617164E+02  0.14661524049E+03  0.15521620895E+03  0.41800000000E+01 0. -1.
         -5    1    3    3    0  502 -0.98008944388E+02  0.36092794923E+02  0.30646320106E+03  0.32379871685E+03  0.41800000000E+01 0. -1.
        -11    1    1    2    0    0  0.36560703741E+02 -0.37832201545E+02  0.17181116202E+02  0.55345743158E+02  0.00000000000E+00 0. -1.
         11    1    1    2    0    0  0.54680524597E+02  0.52066023787E+02  0.53777791737E+02  0.92697796561E+02  0.00000000000E+00 0.  1.
</event>
<event>
 7    1  0.2719869E-009  0.1691624E+03  0.7561462E-02  0.1178724E+00
         -1   -1    0    0    0  501 -0.00000000000E+00  0.00000000000E+00  0.75697285282E+02  0.75697285282E+02  0.00000000000E+00 0.  1.
          1   -1    0    0  501    0  0.00000000000E+00 -0.00000000000E+00 -0.48588814438E+03  0.48588814438E+03  0.00000000000E+00 0. -1.
         25    2    1    2    0    0 -0.13513884084E+03  0.71715483698E+02 -0.15674266414E+03  0.25222818640E+03  0.12508068735E+03 0.  0.
          5    1    3    3  502    0 -0.25945198166E+02  0.41419090088E+02  0.10503035615E+02  0.50164534172E+02  0.41800000000E+01 0.  1.
         -5    1    3    3    0  502 -0.10919364267E+03  0.30296393610E+02 -0.16724569975E+03  0.20206365223E+03  0.41800000000E+01 0.  1.
        -11    1    1    2    0    0  0.49467764343E+02 -0.75339976619E+02 -0.14996043767E+03  0.17496086606E+03  0.00000000000E+00 0.  1.
         11    1    1    2    0    0  0.85671076494E+02  0.36244929212E+01 -0.10348775729E+03  0.13439637721E+03  0.00000000000E+00 0. -1.
</event>
<event>
 7    1  0.2719869E-009  0.1062170E+03  0.7561462E-02  0.1267740E+00
          3   -1    0    0  501    0  0.00000000000E+00  0.00000000000E+00  0.44975846706E+03  0.44975846706E+03  0.00000000000E+00 0. -1.
         -3   -1    0    0    0  501 -0.00000000000E+00 -0.00000000000E+00 -0.30827796150E+02  0.30827796150E+02  0.00000000000E+00 0.  1.
         25    2    1    2    0    0  0.38459435734E+02  0.58647418420E+01  0.22637022633E+03  0.26153380602E+03  0.12507169516E+03 0.  0.
          5    1    3    3  502    0  0.76962987455E+02  0.13615327824E+02  0.88633421776E+02  0.11824565297E+03  0.41800000000E+01 0.  1.
         -5    1    3    3    0  502 -0.38503551722E+02 -0.77505859820E+01  0.13773680455E+03  0.14328815305E+03  0.41800000000E+01 0.  1.
        -11    1    1    2    0    0  0.22778067400E+01 -0.40883318858E+02  0.39721519756E+02  0.57047640584E+02  0.00000000000E+00 0.  1.
         11    1    1    2    0    0 -0.40737242474E+02  0.35018577016E+02  0.15283892483E+03  0.16200481661E+03  0.00000000000E+00 0. -1.
</event>
<event>
 7    1  0.2719869E-009  0.1011505E+03  0.7561462E-02  0.1277895E+00
         -2   -1    0    0    0  501 -0.00000000000E+00  0.00000000000E+00  0.13723763690E+03  0.13723763690E+03  0.00000000000E+00 0.  1.
          2   -1    0    0  501    0  0.00000000000E+00 -0.00000000000E+00 -0.90194597361E+02  0.90194597361E+02  0.00000000000E+00 0. -1.
         25    2    1    2    0    0 -0.24011201332E+02  0.19785471893E+02  0.39836451192E+02  0.13491602429E+03  0.12508952026E+03 0.  0.
          5    1    3    3  502    0  0.22071918187E+02 -0.41570882079E+02  0.33264601453E+02  0.57786797100E+02  0.41800000000E+01 0.  1.
         -5    1    3    3    0  502 -0.46083119519E+02  0.61356353972E+02  0.65718497385E+01  0.77129227186E+02  0.41800000000E+01 0.  1.
        -11    1    1    2    0    0 -0.15763000117E+02  0.17590718283E+02  0.25683729878E+02  0.34893545576E+02  0.00000000000E+00 0.  1.
         11    1    1    2    0    0  0.39774201449E+02 -0.37376190175E+02 -0.18477141534E+02  0.57622664397E+02  0.00000000000E+00 0. -1.
</event>
<event>
 7    1  0.2719869E-009  0.1056193E+03  0.7561462E-02  0.1268904E+00
          2   -1    0    0  501    0  0.00000000000E+00  0.00000000000E+00  0.11977577216E+03  0.11977577216E+03  0.00000000000E+00 0.  1.
         -2   -1    0    0    0  501 -0.00000000000E+00 -0.00000000000E+00 -0.16555263105E+03  0.16555263105E+03  0.00000000000E+00 0. -1.
         25    2    1    2    0    0 -0.13487369747E+01 -0.56552269144E+02 -0.95682828619E+02  0.16733952857E+03  0.12508931166E+03 0.  0.
          5    1    3    3  502    0 -0.34556107960E+02  0.16873565558E+02  0.42268934819E+01  0.38912476669E+02  0.41800000000E+01 0. -1.
         -5    1    3    3    0  502  0.33207370985E+02 -0.73425834702E+02 -0.99909722101E+02  0.12842705190E+03  0.41800000000E+01 0. -1.
        -11    1    1    2    0    0  0.23121101630E+02  0.64628704731E+02  0.61384978774E+02  0.92084583046E+02  0.00000000000E+00 0.  1.
         11    1    1    2    0    0 -0.21772364655E+02 -0.80764355870E+01 -0.11479009048E+02  0.25904291598E+02  0.00000000000E+00 0. -1.
</event>
<event>
 7    1  0.2719869E-009  0.1146754E+03  0.7561462E-02  0.1252149E+00
         -1   -1    0    0    0  501 -0.00000000000E+00  0.00000000000E+00  0.14023275899E+03  0.14023275899E+03  0.00000000000E+00 0.  1.
          1   -1    0    0  501    0  0.00000000000E+00 -0.00000000000E+00 -0.11057231463E+03  0.11057231463E+03  0.00000000000E+00 0. -1.
         25    2    1    2    0    0 -0.19641754344E+02 -0.45767068358E+02 -0.19432635793E+02  0.13603501374E+03  0.12508986598E+03 0.  0.
          5    1    3    3  502    0 -0.68807384805E+02 -0.33719627693E+02 -0.32889029333E+02  0.83490299712E+02  0.41800000000E+01 0. -1.
         -5    1    3    3    0  502  0.49165630462E+02 -0.12047440665E+02  0.13456393540E+02  0.52544714029E+02  0.41800000000E+01 0. -1.
        -11    1    1    2    0    0 -0.35380196313E+02  0.23434404112E+02  0.97659491572E+01  0.43546565308E+02  0.00000000000E+00 0.  1.
         11    1    1    2    0    0  0.55021950656E+02  0.22332664246E+02  0.39327130998E+02  0.71223494571E+02  0.00000000000E+00 0. -1.
</event>
<event>
 7    1  0.2719869E-009  0.4044532E+03  0.7561462E-02  0.1042249E+00
          3   -1    0    0  501    0  0.00000000000E+00  0.00000000000E+00  0.23286607929E+03  0.23286607929E+03  0.00000000000E+00 0. -1.
         -3   -1    0    0    0  501 -0.00000000000E+00 -0.00000000000E+00 -0.85721722045E+03  0.85721722045E+03  0.00000000000E+00 0.  1.
         25    2    1    2    0    0 -0.49268073298E+02  0.39234300831E+03 -0.99299032134E+02  0.42645929242E+03  0.12508737384E+03 0.  0.
          5    1    3    3  502    0 -0.77482527673E+02  0.14945286038E+03 -0.21158429729E+02  0.16971991963E+03  0.41800000000E+01 0.  1.
         -5    1    3    3    0  502  0.28214454374E+02  0.24289014793E+03 -0.78140602406E+02  0.25673937280E+03  0.41800000000E+01 0.  1.
        -11    1    1    2    0    0  0.40470529410E+02 -0.24279524383E+03 -0.39408895081E+03  0.46464340663E+03  0.00000000000E+00 0.  1.
         11    1    1    2    0    0  0.87975438878E+01 -0.14954776449E+03 -0.13096315822E+03  0.19898060069E+03  0.00000000000E+00 0. -1.
</event>
<event>
 7    1  0.2719869E-009  0.1874650E+03  0.7561462E-02  0.1160768E+00
          2   -1    0    0  501    0  0.00000000000E+00  0.00000000000E+00  0.22477143407E+03  0.22477143407E+03  0.00000000000E+00 0. -1.
         -2   -1    0    0    0  501 -0.00000000000E+00 -0.00000000000E+00 -0.17925582452E+03  0.17925582452E+03  0.00000000000E+00 0.  1.
         25    2    1    2    0    0 -0.70958194096E+02  0.15316290771E+03  0.42203987895E+02  0.21429784643E+03  0.12509375997E+03 0.  0.
          5    1    3    3  502    0 -0.24107744954E+02  0.15130095087E+03  0.59125329847E+02  0.16427549461E+03  0.41800000000E+01 0.  1.
         -5    1    3    3    0  502 -0.46850449142E+02  0.18619568399E+01 -0.16921341952E+02  0.50022351819E+02  0.41800000000E+01 0.  1.
        -11    1    1    2    0    0  0.21938529944E+02 -0.11676013160E+02 -0.27275177341E+02  0.36899372331E+02  0.00000000000E+00 0. -1.
         11    1    1    2    0    0  0.49019664152E+02 -0.14148689455E+03  0.30586798989E+02  0.15283003983E+03  0.00000000000E+00 0.  1.
</event>
<event>
 7    1  0.2719869E-009  0.8588867E+02  0.7561462E-02  0.1313125E+00
         -1   -1    0    0    0  501 -0.00000000000E+00  0.00000000000E+00  0.17143579078E+03  0.17143579078E+03  0.00000000000E+00 0.  1.
          1   -1    0    0  501    0  0.00000000000E+00 -0.00000000000E+00 -0.73493977490E+02  0.73493977490E+02  0.00000000000E+00 0. -1.
         25    2    1    2    0    0 -0.62951442055E+01  0.61802082980E+01  0.24194374081E+02  0.12771418293E+03  0.12509085086E+03 0.  0.
          5    1    3    3  502    0  0.61617719472E+01 -0.57683411503E+02 -0.19248940964E-01  0.58161982142E+02  0.41800000000E+01 0.  1.
         -5    1    3    3    0  502 -0.12456916153E+02  0.63863619801E+02  0.24213623022E+02  0.69552200785E+02  0.41800000000E+01 0.  1.
        -11    1    1    2    0    0 -0.16000969161E+02  0.11709688578E+02 -0.14428275217E+02  0.24521887089E+02  0.00000000000E+00 0. -1.
         11    1    1    2    0    0  0.22296113367E+02 -0.17889896876E+02  0.88175714423E+02  0.92693698251E+02  0.00000000000E+00 0.  1.
</event>
<event>
 7    1  0.2719869E-009  0.1099906E+03  0.7561462E-02  0.1260587E+00
         -1   -1    0    0    0  501 -0.00000000000E+00  0.00000000000E+00  0.75548658913E+01  0.75548658913E+01  0.00000000000E+00 0.  1.
          1   -1    0    0  501    0  0.00000000000E+00 -0.00000000000E+00 -0.27194465681E+04  0.27194465681E+04  0.00000000000E+00 0. -1.
         25    2    1    2    0    0  0.69001555096E+02 -0.23457428413E+02 -0.24356696600E+04  0.24399685121E+04  0.12509269354E+03 0.  0.
          5    1    3    3  502    0  0.96300368822E+02 -0.45561301677E+02 -0.15983018988E+04  0.16018539339E+04  0.41800000000E+01 0. -1.
         -5    1    3    3    0  502 -0.27298813727E+02  0.22103873264E+02 -0.83736776120E+03  0.83811457829E+03  0.41800000000E+01 0. -1.
        -11    1    1    2    0    0 -0.44719799785E+02  0.28717196816E+02 -0.19259139688E+03  0.19978984969E+03  0.00000000000E+00 0. -1.
         11    1    1    2    0    0 -0.24281755311E+02 -0.52597684031E+01 -0.83630645316E+02  0.87243072164E+02  0.00000000000E+00 0.  1.
</event>
<event>
 7    1  0.2719869E-009  0.1524372E+03  0.7561462E-02  0.1197510E+00
          2   -1    0    0  501    0  0.00000000000E+00  0.00000000000E+00  0.86297618500E+02  0.86297618500E+02  0.00000000000E+00 0. -1.
         -2   -1    0    0    0  501 -0.00000000000E+00 -0.00000000000E+00 -0.30323456213E+03  0.30323456213E+03  0.00000000000E+00 0.  1.
         25    2    1    2    0    0 -0.38985988736E+02  0.10803067056E+03 -0.15566323159E+03  0.23036634141E+03  0.12508827477E+03 0.  0.
          5    1    3    3  502    0 -0.83263026406E+02  0.52330321852E+02 -0.86213629653E+02  0.13084898352E+03  0.41800000000E+01 0. -1.
         -5    1    3    3    0  502  0.44277037670E+02  0.55700348705E+02 -0.69449601935E+02  0.99517357881E+02  0.41800000000E+01 0. -1.
        -11    1    1    2    0    0  0.49324254462E+02 -0.32814122349E+02 -0.58399966384E+02  0.83187768196E+02  0.00000000000E+00 0.  1.
         11    1    1    2    0    0 -0.10338265726E+02 -0.75216548208E+02 -0.28737456562E+01  0.75978071025E+02  0.00000000000E+00 0. -1.
</event>
<event>
 7    1  0.2719869E-009  0.7929998E+02  0.7561462E-02  0.1331050E+00
         -2   -1    0    0    0  501 -0.00000000000E+00  0.00000000000E+00  0.41955799767E+02  0.41955799767E+02  0.00000000000E+00 0. -1.
          2   -1    0    0  501    0  0.00000000000E+00 -0.00000000000E+00 -0.29999851737E+03  0.29999851737E+03  0.00000000000E+00 0.  1.
         25    2    1    2    0    0  0.14860701428E+02  0.68531357139E+01 -0.14895795734E+03  0.19520887191E+03  0.12510085811E+03 0.  0.
          5    1    3    3  502    0 -0.31287338802E+02  0.45848498672E+02 -0.10976169128E+03  0.12306942623E+03  0.41800000000E+01 0.  1.
         -5    1    3    3    0  502  0.46148040230E+02 -0.38995362959E+02 -0.39196266059E+02  0.72139445675E+02  0.41800000000E+01 0.  1.
        -11    1    1    2    0    0 -0.26450903151E+02 -0.12757533973E+02 -0.12372446040E+03  0.12716189308E+03  0.00000000000E+00 0.  1.
         11    1    1    2    0    0  0.11590201723E+02  0.59043982587E+01  0.14639700136E+02  0.19583552151E+02  0.00000000000E+00 0. -1.
</event>
<event>
 7    1  0.2719869E-009  0.8198819E+02  0.7561462E-02  0.1323502E+00
         -1   -1    0    0    0  501 -0.00000000000E+00  0.00000000000E+00  0.47676902135E+03  0.47676902135E+03  0.00000000000E+00 0. -1.
          1   -1    0    0  501    0  0.00000000000E+00 -0.00000000000E+00 -0.34390498962E+02  0.34390498962E+02  0.00000000000E+00 0.  1.
         25    2    1    2    0    0  0.43475313785E+02  0.16894099281E+02  0.33766837129E+03  0.36309993047E+03  0.12508443963E+03 0.  0.
          5    1    3    3  502    0  0.18724811629E+02 -0.14232560111E+02  0.31734890018E+03  0.31824673005E+03  0.41800000000E+01 0.  1.
         -5    1    3    3    0  502  0.24750502156E+02  0.31126659392E+02  0.20319471105E+02  0.44853200420E+02  0.41800000000E+01 0.  1.
        -11    1    1    2    0    0 -0.26512894965E+02 -0.53526196083E+02  0.40340384889E+02  0.72078664802E+02  0.00000000000E+00 0. -1.
         11    1    1    2    0    0 -0.16962418820E+02  0.36632096803E+02  0.64369766205E+02  0.75980925039E+02  0.00000000000E+00 0.  1.
</event>
<event>
 7    1  0.2719869E-009  0.9939294E+02  0.7561462E-02  0.1281578E+00
         -1   -1    0    0    0  501 -0.00000000000E+00  0.00000000000E+00  0.39145237021E+02  0.39145237021E+02  0.00000000000E+00 0.  1.
          1   -1    0    0  501    0  0.00000000000E+00 -0.00000000000E+00 -0.36808986366E+03  0.36808986366E+03  0.00000000000E+00 0. -1.
         25    2    1    2    0    0 -0.11365763227E+02 -0.44887786183E+02 -0.15322333823E+03  0.20314748946E+03  0.12508963654E+03 0.  0.
          5    1    3    3  502    0 -0.51500568874E+02 -0.65086554120E+02 -0.70767732112E+02  0.10915178620E+03  0.41800000000E+01 0. -1.
         -5    1    3    3    0  502  0.40134805647E+02  0.20198767937E+02 -0.82455606122E+02  0.93995703261E+02  0.41800000000E+01 0. -1.
        -11    1    1    2    0    0 -0.21058426806E+02  0.24277717682E+02 -0.95419952513E+01  0.33524835403E+02  0.00000000000E+00 0.  1.
         11    1    1    2    0    0  0.32424190033E+02  0.20610068501E+02 -0.16617929315E+03  0.17056277582E+03  0.00000000000E+00 0. -1.
</event>
<event>
 7    1  0.2719869E-009  0.1433942E+03  0.7561462E-02  0.1208833E+00
          3   -1    0    0  501    0  0.00000000000E+00  0.00000000000E+00  0.78320633800E+03  0.78320633800E+03  0.00000000000E+00 0. -1.
         -3   -1    0    0    0  501 -0.00000000000E+00 -0.00000000000E+00 -0.41226505515E+02  0.41226505515E+02  0.00000000000E+00 0.  1.
         25    2    1    2    0    0  0.91105523313E+02 -0.10909081768E+03  0.41103390941E+03  0.45254543462E+03  0.12508985901E+03 0.  0.
          5    1    3    3  502    0  0.24735865193E+02 -0.48726722572E+02  0.32965778900E+02  0.63956012211E+02  0.41800000000E+01 0. -1.
         -5    1    3    3    0  502  0.66369658120E+02 -0.60364095105E+02  0.37806813051E+03  0.38858942240E+03  0.41800000000E+01 0. -1.
        -11    1    1    2    0    0 -0.26150271745E+02  0.33740400781E+02  0.23461818917E+02  0.48710453746E+02  0.00000000000E+00 0.  1.
         11    1    1    2    0    0 -0.64955251568E+02  0.75350416896E+02  0.30748410416E+03  0.32317695515E+03  0.00000000000E+00 0. -1.
</event>
<event>
 7    1  0.2719869E-009  0.1837511E+03  0.7561462E-02  0.1164221E+00
         -1   -1    0    0    0  501 -0.00000000000E+00  0.00000000000E+00  0.46196033349E+02  0.46196033349E+02  0.00000000000E+00 0.  1.
          1   -1    0    0  501    0  0.00000000000E+00 -0.00000000000E+00 -0.79572290714E+03  0.79572290714E+03  0.00000000000E+00 0. -1.
         25    2    1    2    0    0 -0.14580553259E+03  0.62379637187E+02 -0.40356466486E+03  0.45129043498E+03  0.12509254776E+03 0.  0.
          5    1    3    3  502    0  0.17991078657E+02  0.11178694048E+02 -0.10227189166E+03  0.10452585487E+03  0.41800000000E+01 0.  1.
         -5    1    3    3    0  502 -0.16379661124E+03  0.51200943140E+02 -0.30129277321E+03  0.34676458011E+03  0.41800000000E+01 0.  1.
        -11    1    1    2    0    0  0.67585025692E+01 -0.30969604926E+02 -0.28486627407E+02  0.42617856906E+02  0.00000000000E+00 0.  1.
         11    1    1    2    0    0  0.13904703002E+03 -0.31410032262E+02 -0.31747558152E+03  0.34801064861E+03  0.00000000000E+00 0. -1.
</event>
<event>
 7    1  0.2719869E-009  0.1561086E+03  0.7561462E-02  0.1193162E+00
          2   -1    0    0  501    0  0.00000000000E+00  0.00000000000E+00  0.27208108954E+03  0.27208108954E+03  0.00000000000E+00 0. -1.
         -2   -1    0    0    0  501 -0.00000000000E+00 -0.00000000000E+00 -0.12672083978E+03  0.12672083978E+03  0.00000000000E+00 0.  1.
         25    2    1    2    0    0  0.15152683201E+03 -0.13679194826E+01  0.73168119391E+02  0.20968023276E+03  0.12509985729E+03 0.  0.
          5    1    3    3  502    0  0.20637224949E+02  0.16416758146E+02  0.72778155464E+02  0.77521205579E+02  0.41800000000E+01 0. -1.
         -5    1    3    3    0  502  0.13088960706E+03 -0.17784677628E+02  0.38996392740E+00  0.13215902718E+03  0.41800000000E+01 0. -1.
        -11    1    1    2    0    0 -0.92740990086E+02  0.12338592356E+02 -0.23115581447E+01  0.93586726647E+02  0.00000000000E+00 0.  1.
         11    1    1    2    0    0 -0.58785841919E+02 -0.10970672874E+02  0.74503688512E+02  0.95534969908E+02  0.00000000000E+00 0. -1.
</event>
<event>
 7    1  0.2719869E-009  0.3489702E+03  0.7561462E-02  0.1063039E+00
          2   -1    0    0  501    0  0.00000000000E+00  0.00000000000E+00  0.25238679472E+04  0.25238679472E+04  0.00000000000E+00 0. -1.
         -2   -1    0    0    0  501 -0.00000000000E+00 -0.00000000000E+00 -0.49322771991E+02  0.49322771991E+02  0.00000000000E+00 0.  1.
         25    2    1    2    0    0 -0.31045603359E+03 -0.12896769067E+03  0.12793401428E+04  0.13286742477E+04  0.12509373038E+03 0.  0.
          5    1    3    3  502    0 -0.23897377966E+03 -0.41558934118E+02  0.78742264855E+03  0.82394630421E+03  0.41800000000E+01 0. -1.
         -5    1    3    3    0  502 -0.71482253931E+02 -0.87408756548E+02  0.49191749430E+03  0.50472794350E+03  0.41800000000E+01 0. -1.
        -11    1    1    2    0    0  0.14726535951E+03  0.96201765041E+02  0.51379639389E+03  0.54307329163E+03  0.00000000000E+00 0.  1.
         11    1    1    2    0    0  0.16319067407E+03  0.32765925625E+02  0.68140863850E+03  0.70144317989E+03  0.00000000000E+00 0. -1.
</event>
<event>
 7    1  0.2719869E-009  0.9805793E+02  0.7561462E-02  0.1284434E+00
         -2   -1    0    0    0  501 -0.00000000000E+00  0.00000000000E+00  0.58747232020E+02  0.58747232020E+02  0.00000000000E+00 0. -1.
          2   -1    0    0  501    0  0.00000000000E+00 -0.00000000000E+00 -0.33200082739E+03  0.33200082739E+03  0.00000000000E+00 0.  1.
         25    2    1    2    0    0 -0.83319735417E+02  0.29984255382E+02 -0.14096695393E+03  0.20822810198E+03  0.12508407762E+03 0.  0.
          5    1    3    3  502    0 -0.76052099418E+02  0.38756666376E+02 -0.16244832699E+03  0.18355634654E+03  0.41800000000E+01 0. -1.
         -5    1    3    3    0  502 -0.72676359993E+01 -0.87724109942E+01  0.21481373064E+02  0.24671755438E+02  0.41800000000E+01 0. -1.
        -11    1    1    2    0    0  0.17277014881E+02  0.11292585084E+02 -0.93053786063E+02  0.95315396561E+02  0.00000000000E+00 0.  1.
         11    1    1    2    0    0  0.66042720536E+02 -0.41276840466E+02 -0.39232855381E+02  0.87204560867E+02  0.00000000000E+00 0. -1.
</event>
<event>
 7    1  0.2719869E-009  0.9506260E+02  0.7561462E-02  0.1291035E+00
         -3   -1    0    0    0  501 -0.00000000000E+00  0.00000000000E+00  0.60017024156E+03  0.60017024156E+03  0.00000000000E+00 0.  1.
          3   -1    0    0  501    0  0.00000000000E+00 -0.00000000000E+00 -0.28115355206E+02  0.28115355206E+02  0.00000000000E+00 0. -1.
         25    2    1    2    0    0  0.53690289779E+02  0.31912007796E+02  0.40206699068E+03  0.42568577266E+03  0.12509791600E+03 0.  0.
          5    1    3    3  502    0  0.57570209722E+02  0.41613409595E+02  0.96434193614E+02  0.11984586352E+03  0.41800000000E+01 0.  1.
         -5    1    3    3    0  502 -0.38799199425E+01 -0.97014017988E+01  0.30563279707E+03  0.30583990914E+03  0.41800000000E+01 0.  1.
        -11    1    1    2    0    0  0.17070379960E+02 -0.32767833467E+02  0.39027010387E+02  0.53742314072E+02  0.00000000000E+00 0. -1.
         11    1    1    2    0    0 -0.70760669739E+02  0.85582567141E+00  0.13096088528E+03  0.14885751004E+03  0.00000000000E+00 0.  1.
</event>
<event>
 7    1  0.2719869E-009  0.1937262E+03  0.7561462E-02  0.1155143E+00
         -2   -1    0    0    0  501 -0.00000000000E+00  0.00000000000E+00  0.39383296701E+02  0.39383296701E+02  0.00000000000E+00 0.  1.
          2   -1    0    0  501    0  0.00000000000E+00 -0.00000000000E+00 -0.12516527569E+04  0.12516527569E+04  0.00000000000E+00 0. -1.
         25    2    1    2    0    0 -0.14038604133E+03 -0.95346007880E+02 -0.39686693049E+03  0.44938841486E+03  0.12508990797E+03 0.  0.
          5    1    3    3  502    0 -0.48921355048E+02 -0.73368228052E+02 -0.81090948708E+02  0.11987247486E+03  0.41800000000E+01 0. -1.
         -5    1    3    3    0  502 -0.91464686287E+02 -0.21977779828E+02 -0.31577598178E+03  0.32951594000E+03  0.41800000000E+01 0. -1.
        -11    1    1    2    0    0 -0.14524646341E+02  0.36525740363E+02 -0.22612309123E+03  0.22951415522E+03  0.00000000000E+00 0. -1.
         11    1    1    2    0    0  0.15491068768E+03  0.58820267517E+02 -0.58927943847E+03  0.61213348351E+03  0.00000000000E+00 0.  1.
</event>
<event>
 7    1  0.2719869E-009  0.1051688E+03  0.7561462E-02  0.1269787E+00
          2   -1    0    0  501    0  0.00000000000E+00  0.00000000000E+00  0.64592579767E+03  0.64592579767E+03  0.00000000000E+00 0. -1.
         -2   -1    0    0    0  501 -0.00000000000E+00 -0.00000000000E+00 -0.28464134001E+02  0.28464134001E+02  0.00000000000E+00 0.  1.
         25    2    1    2    0    0  0.83709111001E+01  0.20150561763E+02  0.53085153748E+03  0.54582722362E+03  0.12509151010E+03 0.  0.
          5    1    3    3  502    0  0.25535605201E+02  0.68563424712E+02  0.35950956823E+03  0.36690272879E+03  0.41800000000E+01 0. -1.
         -5    1    3    3    0  502 -0.17164694101E+02 -0.48412862949E+02  0.17134196925E+03  0.17892449483E+03  0.41800000000E+01 0. -1.
        -11    1    1    2    0    0 -0.27627855159E+02  0.24478577846E+02  0.66301721752E+02  0.75884237239E+02  0.00000000000E+00 0. -1.
         11    1    1    2    0    0  0.19256944059E+02 -0.44629139609E+02  0.20308404429E+02  0.52678470813E+02  0.00000000000E+00 0.  1.
</event>
<event>
 6    1  0.2719869E-009  0.1356130E+03  0.7561462E-02  0.1219357E+00
         -1   -1    0    0    0  501 -0.00000000000E+00  0.00000000000E+00  0.34111402251E+02  0.34111402251E+02  0.00000000000E+00 0.  1.
          1   -1    0    0  501    0  0.00000000000E+00 -0.00000000000E+00 -0.95846522944E+03  0.95846522944E+03  0.00000000000E+00 0. -1.
          5    1    1    2  502    0 -0.59262607591E+01  0.76984843059E+02 -0.21760482649E+03  0.23093531462E+03  0.41800000000E+01 0.  1.
         -5    1    1    2    0  502 -0.66253952309E+02 -0.19755083987E+01 -0.53816364109E+03  0.54224631472E+03  0.41800000000E+01 0.  1.
        -11    1    1    2    0    0  0.10487193325E+02  0.15036645227E+02  0.26672788996E+00  0.18334477557E+02  0.00000000000E+00 0.  1.
         11    1    1    2    0    0  0.61693019743E+02 -0.90045979888E+02 -0.16885208750E+03  0.20106052480E+03  0.00000000000E+00 0. -1.
</event>
<event>
 7    1  0.2719869E-009  0.1091285E+03  0.7561462E-02  0.1262192E+00
         -2   -1    0    0    0  501 -0.00000000000E+00  0.00000000000E+00  0.19217988788E+02  0.19217988788E+02  0.00000000000E+00 0.  1.
          2   -1    0    0  501    0  0.00000000000E+00 -0.00000000000E+00 -0.99073723349E+03  0.99073723349E+03  0.00000000000E+00 0. -1.
         25    2    1    2    0    0  0.13599858123E+00  0.79543990552E+02 -0.51453127741E+03  0.53546175482E+03  0.12509832335E+03 0.  0.
          5    1    3    3  502    0  0.21696348712E+02  0.69590888797E+02 -0.12192281998E+03  0.14211358057E+03  0.41800000000E+01 0.  1.
         -5    1    3    3    0  502 -0.21560350131E+02  0.99531017544E+01 -0.39260845743E+03  0.39334817424E+03  0.41800000000E+01 0.  1.
        -11    1    1    2    0    0  0.22123010405E+02 -0.92680608625E+02 -0.40937297910E+03  0.42031578464E+03  0.00000000000E+00 0.  1.
         11    1    1    2    0    0 -0.22259008986E+02  0.13136618073E+02 -0.47614988185E+02  0.54177682816E+02  0.00000000000E+00 0. -1.
</event>
<event>
 7    1  0.2719869E-009  0.1971440E+03  0.7561462E-02  0.1152171E+00
          2   -1    0    0  501    0  0.00000000000E+00  0.00000000000E+00  0.79761121527E+03  0.79761121527E+03  0.00000000000E+00 0. -1.
         -2   -1    0    0    0  501 -0.00000000000E+00 -0.00000000000E+00 -0.97145527467E+02  0.97145527467E+02  0.00000000000E+00 0.  1.
         25    2    1    2    0    0  0.18152126895E+03 -0.67104323621E+01  0.67676261329E+02  0.23070186016E+03  0.12509304918E+03 0.  0.
          5    1    3    3  502    0  0.52559063456E+02 -0.44218124441E+02 -0.18268433110E+02  0.71196247996E+02  0.41800000000E+01 0. -1.
         -5    1    3    3    0  502  0.12896220549E+03  0.37507692079E+02  0.85944694439E+02  0.15950561217E+03  0.41800000000E+01 0. -1.
        -11    1    1    2    0    0 -0.12461054732E+03  0.32264723908E+02  0.31653830427E+03  0.34170937796E+03  0.00000000000E+00 0.  1.
         11    1    1    2    0    0 -0.56910721627E+02 -0.25554291546E+02  0.31625112220E+03  0.32234550461E+03  0.00000000000E+00 0. -1.
</event>
<event>
 7    1  0.2719869E-009  0.1009876E+03  0.7561462E-02  0.1278233E+00
         -2   -1    0    0    0  501 -0.00000000000E+00  0.00000000000E+00  0.48094150055E+02  0.48094150055E+02  0.00000000000E+00 0.  1.
          2   -1    0    0  501    0  0.00000000000E+00 -0.00000000000E+00 -0.31340794929E+03  0.31340794929E+03  0.00000000000E+00 0. -1.
         25    2    1    2    0    0  0.29440158229E+02 -0.31624358142E+02 -0.10080307819E+03  0.16636016705E+03  0.12509045393E+03 0.  0.
          5    1    3    3  502    0  0.13601259203E+02  0.35573844695E+02 -0.88054612727E+02  0.96029057586E+02  0.41800000000E+01 0.  1.
         -5    1    3    3    0  502  0.15838899027E+02 -0.67198202836E+02 -0.12748465462E+02  0.70331109464E+02  0.41800000000E+01 0.  1.
        -11    1    1    2    0    0 -0.22844207121E+02 -0.27075928970E+02 -0.24194583906E+02  0.42899203011E+02  0.00000000000E+00 0.  1.
         11    1    1    2    0    0 -0.65959511079E+01  0.58700287111E+02 -0.14031613714E+03  0.15224272928E+03  0.00000000000E+00 0. -1.
</event>
<event>
 7    1  0.2719869E-009  0.1644586E+03  0.7561462E-02  0.1183753E+00
         -1   -1    0    0    0  501 -0.00000000000E+00  0.00000000000E+00  0.42053914711E+02  0.42053914711E+02  0.00000000000E+00 0.  1.
          1   -1    0    0  501    0  0.00000000000E+00 -0.00000000000E+00 -0.89484009069E+03  0.89484009069E+03  0.00000000000E+00 0. -1.
         25    2    1    2    0    0 -0.12479088160E+03  0.99668193788E+02 -0.43237447488E+03  0.47760007928E+03  0.12509051210E+03 0.  0.
          5    1    3    3  502    0 -0.93415874161E+02  0.99462103652E+02 -0.19449352935E+03  0.23762247572E+03  0.41800000000E+01 0.  1.
         -5    1    3    3    0  502 -0.31375007434E+02  0.20609013650E+00 -0.23788094553E+03  0.23997760356E+03  0.41800000000E+01 0.  1.
        -11    1    1    2    0    0  0.53794702851E+02 -0.54636896045E+02 -0.31637274885E+03  0.32553152947E+03  0.00000000000E+00 0.  1.
         11    1    1    2    0    0  0.70996178744E+02 -0.45031297743E+02 -0.10403895225E+03  0.13376239665E+03  0.00000000000E+00 0. -1.
</event>
<event>
 7    1  0.2719869E-009  0.7620219E+02  0.7561462E-02  0.1340188E+00
         -2   -1    0    0    0  501 -0.00000000000E+00  0.00000000000E+00  0.31565305971E+03  0.31565305971E+03  0.00000000000E+00 0.  1.
          2   -1    0    0  501    0  0.00000000000E+00 -0.00000000000E+00 -0.51714088149E+02  0.51714088149E+02  0.00000000000E+00 0. -1.
         25    2    1    2    0    0 -0.27665278715E+02  0.49565757437E+02  0.20709368814E+03  0.24850989407E+03  0.12508892768E+03 0.  0.
          5    1    3    3  502    0 -0.34933107271E+02  0.58544184543E+02  0.22019801928E+03  0.23054800720E+03  0.41800000000E+01 0. -1.
         -5    1    3    3    0  502  0.72678285557E+01 -0.89784271054E+01 -0.13104331146E+02  0.17961886872E+02  0.41800000000E+01 0. -1.
        -11    1    1    2    0    0 -0.18232383202E+00 -0.43265931097E+02 -0.11516475802E+02  0.44772795876E+02  0.00000000000E+00 0. -1.
         11    1    1    2    0    0  0.27847602547E+02 -0.62998263401E+01  0.68361759224E+02  0.74084457910E+02  0.00000000000E+00 0.  1.
</event>
<event>
 7    1  0.2719869E-009  0.9565603E+02  0.7561462E-02  0.1289705E+00
          2   -1    0    0  501    0  0.00000000000E+00  0.00000000000E+00  0.25460904471E+03  0.25460904471E+03  0.00000000000E+00 0.  1.
         -2   -1    0    0    0  501 -0.00000000000E+00 -0.00000000000E+00 -0.41736068745E+02  0.41736068745E+02  0.00000000000E+00 0. -1.
         25    2    1    2    0    0 -0.22690298133E+02  0.24551439219E+01  0.18483877105E+03  0.22435389519E+03  0.12509365149E+03 0.  0.
          5    1    3    3  502    0 -0.67329833999E+02 -0.27774503176E+02  0.10108917983E+03  0.12466444662E+03  0.41800000000E+01 0.  1.
         -5    1    3    3    0  502  0.44639535866E+02  0.30229647098E+02  0.83749591228E+02  0.99689448573E+02  0.41800000000E+01 0.  1.
        -11    1    1    2    0    0  0.30102803929E+02 -0.25890423782E+02  0.25709491844E+02  0.47301911366E+02  0.00000000000E+00 0.  1.
         11    1    1    2    0    0 -0.74125057964E+01  0.23435279860E+02  0.23247130691E+01  0.24689306899E+02  0.00000000000E+00 0. -1.
</event>
<event>
 7    1  0.2719869E-009  0.9265047E+02  0.7561462E-02  0.1296557E+00
          2   -1    0    0  501    0  0.00000000000E+00  0.00000000000E+00  0.26786483005E+02  0.26786483005E+02  0.00000000000E+00 0. -1.
         -2   -1    0    0    0  501 -0.00000000000E+00 -0.00000000000E+00 -0.46075121917E+03  0.46075121917E+03  0.00000000000E+00 0.  1.
         25    2    1    2    0    0  0.17713777639E+02 -0.62874065383E+01 -0.19359209582E+03  0.23125019959E+03  0.12508175666E+03 0.  0.
          5    1    3    3  502    0  0.60394931593E+02 -0.29530434291E+01 -0.42172603065E+02  0.73839481830E+02  0.41800000000E+01 0. -1.
         -5    1    3    3    0  502 -0.42681153954E+02 -0.33343631092E+01 -0.15141949276E+03  0.15741071776E+03  0.41800000000E+01 0. -1.
        -11    1    1    2    0    0  0.22070415912E+02 -0.23300801631E+02 -0.14810298496E+03  0.15154050538E+03  0.00000000000E+00 0.  1.
         11    1    1    2    0    0 -0.39784193550E+02  0.29588208170E+02 -0.92269655381E+02  0.10474699720E+03  0.00000000000E+00 0. -1.
</event>
<event>
 7    1  0.2719869E-009  0.1135973E+03  0.7561462E-02  0.1254050E+00
         -2   -1    0    0    0  501 -0.00000000000E+00  0.00000000000E+00  0.25282818664E+02  0.25282818664E+02  0.00000000000E+00 0. -1.
          2   -1    0    0  501    0  0.00000000000E+00 -0.00000000000E+00 -0.98287025503E+03  0.98287025503E+03  0.00000000000E+00 0.  1.
         25    2    1    2    0    0 -0.12400685465E+02  0.77080964049E+02 -0.78511128931E+03  0.79883806447E+03  0.12508902683E+03 0.  0.
          5    1    3    3  502    0  0.17353944612E+02  0.10178146136E+03 -0.65279478805E+03  0.66092294027E+03  0.41800000000E+01 0. -1.
         -5    1    3    3    0  502 -0.29754630077E+02 -0.24700497316E+02 -0.13231650125E+03  0.13791512420E+03  0.41800000000E+01 0. -1.
        -11    1    1    2    0    0 -0.10176468573E+02 -0.42226660821E+02 -0.14224709478E+02  0.45705511226E+02  0.00000000000E+00 0. -1.
         11    1    1    2    0    0  0.22577154038E+02 -0.34854303228E+02 -0.15825143758E+03  0.16360949799E+03  0.00000000000E+00 0.  1.
</event>
<event>
 7    1  0.2719869E-009  0.1605470E+03  0.7561462E-02  0.1188081E+00
          2   -1    0    0  501    0  0.00000000000E+00  0.00000000000E+00  0.62975079432E+03  0.62975079432E+03  0.00000000000E+00 0. -1.
         -2   -1    0    0    0  501 -0.00000000000E+00 -0.00000000000E+00 -0.64775252753E+02  0.64775252753E+02  0.00000000000E+00 0.  1.
         25    2    1    2    0    0 -0.12867419742E+03  0.72136590089E+02  0.14994824620E+03  0.24473090825E+03  0.12509198296E+03 0.  0.
          5    1    3    3  502    0 -0.60430874306E+02  0.86377808045E+00 -0.52106011053E+01  0.60805093913E+02  0.41800000000E+01 0.  1.
         -5    1    3    3    0  502 -0.68243323118E+02  0.71272812008E+02  0.15515884731E+03  0.18392581434E+03  0.41800000000E+01 0.  1.
        -11    1    1    2    0    0  0.10508655177E+03 -0.23483368139E+02  0.34444076697E+03  0.36087961136E+03  0.00000000000E+00 0. -1.
         11    1    1    2    0    0  0.23587645657E+02 -0.48653221950E+02  0.70586528396E+02  0.88915527467E+02  0.00000000000E+00 0.  1.
</event>
<event>
 7    1  0.2719869E-009  0.1199816E+03  0.7561462E-02  0.1243127E+00
          1   -1    0    0  501    0  0.00000000000E+00  0.00000000000E+00  0.79155638211E+02  0.79155638211E+02  0.00000000000E+00 0. -1.
         -1   -1    0    0    0  501 -0.00000000000E+00 -0.00000000000E+00 -0.24761775075E+03  0.24761775075E+03  0.00000000000E+00 0.  1.
         25    2    1    2    0    0 -0.32504104435E+01  0.86862027902E+02 -0.67390727605E+02  0.16655935283E+03  0.12507969774E+03 0.  0.
          5    1    3    3  502    0 -0.50160920185E+02 -0.32678362100E+01 -0.26218464499E+02  0.56847840311E+02  0.41800000000E+01 0. -1.
         -5    1    3    3    0  502  0.46910509742E+02  0.90129864112E+02 -0.41172263106E+02  0.10971151252E+03  0.41800000000E+01 0. -1.
        -11    1    1    2    0    0  0.80113521618E+01 -0.62030591125E+02 -0.11532170122E+03  0.13119097061E+03  0.00000000000E+00 0.  1.
         11    1    1    2    0    0 -0.47609417184E+01 -0.24831436777E+02  0.14250316279E+02  0.29023065526E+02  0.00000000000E+00 0. -1.
</event>
<event>
 7    1  0.2719869E-009  0.1493413E+03  0.7561462E-02  0.1201285E+00
         -2   -1    0    0    0  501 -0.00000000000E+00  0.00000000000E+00  0.25043988564E+02  0.25043988564E+02  0.00000000000E+00 0.  1.
          2   -1    0    0  501    0  0.00000000000E+00 -0.00000000000E+00 -0.12051528611E+04  0.12051528611E+04  0.00000000000E+00 0. -1.
         25    2    1    2    0    0  0.11115652543E+03  0.23527846397E+02 -0.88587118529E+03  0.90184525047E+03  0.12509103150E+03 0.  0.
          5    1    3    3  502    0  0.12353176871E+03 -0.89503708067E+01 -0.53183314593E+03  0.54608073993E+03  0.41800000000E+01 0.  1.
         -5    1    3    3    0  502 -0.12375243286E+02  0.32478217204E+02 -0.35403803936E+03  0.35576451053E+03  0.41800000000E+01 0.  1.
        -11    1    1    2    0    0 -0.16377055470E+02 -0.40297638139E+02 -0.52640960039E+02  0.68287467806E+02  0.00000000000E+00 0.  1.
         11    1    1    2    0    0 -0.94779469958E+02  0.16769791742E+02 -0.24159672725E+03  0.26006413143E+03  0.00000000000E+00 0. -1.
</event>
<event>
 7    1  0.2923721E-009  0.1040111E+03  0.7561462E-02  0.1272080E+00
         -1   -1    0    0    0  501 -0.00000000000E+00  0.00000000000E+00  0.34793065911E+02  0.34793065911E+02  0.00000000000E+00 0.  1.
          1   -1    0    0  501    0  0.00000000000E+00 -0.00000000000E+00 -0.45401080348E+03  0.45401080348E+03  0.00000000000E+00 0. -1.
         25    2    1    2    0    0  0.62071932174E+02 -0.94868990556E+01 -0.20664774916E+03  0.24958906119E+03  0.12509388962E+03 0.  0.
          5    1    3    3  502    0  0.92578550581E+02 -0.25652745745E+02 -0.18535026033E+03  0.20880862721E+03  0.41800000000E+01 0. -1.
         -5    1    3    3    0  502 -0.30506618408E+02  0.16165846690E+02 -0.21297488825E+02  0.40780433986E+02  0.41800000000E+01 0. -1.
        -11    1    1    2    0    0 -0.45994410302E+02  0.26983507694E+02 -0.20836945359E+03  0.21508469182E+03  0.00000000000E+00 0. -1.
         11    1    1    2    0    0 -0.16077521872E+02 -0.17496608639E+02 -0.42005348214E+01  0.24130116373E+02  0.00000000000E+00 0.  1.
</event>
<event>
 7    1  0.2719869E-009  0.1629943E+03  0.7561462E-02  0.1185357E+00
          1   -1    0    0  501    0  0.00000000000E+00  0.00000000000E+00  0.11790178702E+04  0.11790178702E+04  0.00000000000E+00 0. -1.
         -1   -1    0    0    0  501 -0.00000000000E+00 -0.00000000000E+00 -0.24146584980E+02  0.24146584980E+02  0.00000000000E+00 0.  1.
         25    2    1    2    0    0  0.98445800628E+02 -0.77028302209E+02  0.67032385947E+03  0.69325769783E+03  0.12508886453E+03 0.  0.
          5    1    3    3  502    0 -0.19820042511E+02 -0.38959642058E+02  0.95008221868E+02  0.10466480983E+03  0.41800000000E+01 0.  1.
         -5    1    3    3    0  502  0.11826584314E+03 -0.38068660151E+02  0.57531563760E+03  0.58859288800E+03  0.41800000000E+01 0.  1.
        -11    1    1    2    0    0 -0.10747393026E+03  0.32426260723E+02  0.36985647019E+03  0.38651767956E+03  0.00000000000E+00 0. -1.
         11    1    1    2    0    0  0.90281296314E+01  0.44602041486E+02  0.11469095554E+03  0.12338907777E+03  0.00000000000E+00 0.  1.
</event>
<event>
 7    1  0.2719869E-009  0.1135157E+03  0.7561462E-02  0.1254194E+00
          1   -1    0    0  501    0  0.00000000000E+00  0.00000000000E+00  0.12785679685E+03  0.12785679685E+03  0.00000000000E+00 0. -1.
         -1   -1    0    0    0  501 -0.00000000000E+00 -0.00000000000E+00 -0.15192835061E+03  0.15192835061E+03  0.00000000000E+00 0.  1.
         25    2    1    2    0    0  0.37903228090E+02  0.44438828375E+02  0.51225973766E+02  0.14725228922E+03  0.12509065563E+03 0.  0.
          5    1    3    3  502    0  0.63877654947E+02 -0.20058440329E+02  0.35276030306E+02  0.75792918826E+02  0.41800000000E+01 0. -1.
         -5    1    3    3    0  502 -0.25974426858E+02  0.64497268704E+02  0.15949943460E+02  0.71459370395E+02  0.41800000000E+01 0. -1.
        -11    1    1    2    0    0 -0.35664154633E+01  0.18368236418E+02 -0.55051370299E+02  0.58144344524E+02  0.00000000000E+00 0.  1.
         11    1    1    2    0    0 -0.34336812626E+02 -0.62807064793E+02 -0.20246157228E+02  0.74388513708E+02  0.00000000000E+00 0. -1.
</event>
<event>
 7    1  0.2719869E-009  0.1155831E+03  0.7561462E-02  0.1250567E+00
         -4   -1    0    0    0  501 -0.00000000000E+00  0.00000000000E+00  0.12709703206E+03  0.12709703206E+03  0.00000000000E+00 0.  1.
          4   -1    0    0  501    0  0.00000000000E+00 -0.00000000000E+00 -0.12427691148E+03  0.12427691148E+03  0.00000000000E+00 0. -1.
         25    2    1    2    0    0 -0.88308156930E+01 -0.62082513425E+02 -0.10103263688E+02  0.14029144806E+03  0.12508953867E+03 0.  0.
          5    1    3    3  502    0 -0.45632809361E+01 -0.99387962824E+02  0.47553673583E+01  0.99693914588E+02  0.41800000000E+01 0. -1.
         -5    1    3    3    0  502 -0.42675347569E+01  0.37305449399E+02 -0.14858631047E+02  0.40597533476E+02  0.41800000000E+01 0. -1.
        -11    1    1    2    0    0 -0.27762362361E+02  0.46230505453E+02  0.36160154525E+02  0.64927383850E+02  0.00000000000E+00 0.  1.
         11    1    1    2    0    0  0.36593178054E+02  0.15852007972E+02 -0.23236770258E+02  0.46155111622E+02  0.00000000000E+00 0. -1.
</event>
<event>
 7    1  0.2719869E-009  0.1304761E+03  0.7561462E-02  0.1226751E+00
          1   -1    0    0  501    0  0.00000000000E+00  0.00000000000E+00  0.22092589355E+03  0.22092589355E+03  0.00000000000E+00 0. -1.
         -1   -1    0    0    0  501 -0.00000000000E+00 -0.00000000000E+00 -0.84528077093E+02  0.84528077093E+02  0.00000000000E+00 0.  1.
         25    2    1    2    0    0  0.25711649411E+02 -0.78007163316E+02  0.88328009768E+02  0.17376740565E+03  0.12508823891E+03 0.  0.
          5    1    3    3  502    0  0.88052662218E+01 -0.11030412709E+03  0.78639362798E+02  0.13581662250E+03  0.41800000000E+01 0.  1.
         -5    1    3    3    0  502  0.16906383189E+02  0.32296963774E+02  0.96886469696E+01  0.37950783149E+02  0.41800000000E+01 0.  1.
        -11    1    1    2    0    0 -0.19393158626E+02  0.94183059544E+02  0.19292322430E+02  0.98075160012E+02  0.00000000000E+00 0.  1.
         11    1    1    2    0    0 -0.63184907845E+01 -0.16175896228E+02  0.28777484263E+02  0.33611404985E+02  0.00000000000E+00 0. -1.
</event>
<event>
 7    1  0.2719869E-009  0.1322238E+03  0.7561462E-02  0.1224193E+00
          1   -1    0    0  501    0  0.00000000000E+00  0.00000000000E+00  0.10589526065E+03  0.10589526065E+03  0.00000000000E+00 0. -1.
         -1   -1    0    0    0  501 -0.00000000000E+00 -0.00000000000E+00 -0.24492613845E+03  0.24492613845E+03  0.00000000000E+00 0.  1.
         25    2    1    2    0    0 -0.82482327192E+02 -0.81785479331E+02 -0.43967966693E+02  0.17627810443E+03  0.12509432073E+03 0.  0.
          5    1    3    3  502    0  0.79903597782E+00 -0.23377329103E+02 -0.67693386575E+02  0.71742630008E+02  0.41800000000E+01 0. -1.
         -5    1    3    3    0  502 -0.83281363170E+02 -0.58408150228E+02  0.23725419882E+02  0.10453547442E+03  0.41800000000E+01 0. -1.
        -11    1    1    2    0    0  0.39997942930E+02 -0.68566015308E+01 -0.55103908940E+02  0.68434561470E+02  0.00000000000E+00 0.  1.
         11    1    1    2    0    0  0.42484384262E+02  0.88642080862E+02 -0.39959002164E+02  0.10610873319E+03  0.00000000000E+00 0. -1.
</event>
<event>
 7    1  0.2719869E-009  0.8215401E+02  0.7561462E-02  0.1323047E+00
         -3   -1    0    0    0  501 -0.00000000000E+00  0.00000000000E+00  0.33230901066E+03  0.33230901066E+03  0.00000000000E+00 0.  1.
          3   -1    0    0  501    0  0.00000000000E+00 -0.00000000000E+00 -0.49907740778E+02  0.49907740778E+02  0.00000000000E+00 0. -1.
         25    2    1    2    0    0  0.49038370611E+01 -0.65544043634E+02  0.19097974854E+03  0.23756668543E+03  0.12507836103E+03 0.  0.
          5    1    3    3  502    0  0.25584596519E+02 -0.68864397663E+02  0.20094804044E+03  0.21399641165E+03  0.41800000000E+01 0.  1.
         -5    1    3    3    0  502 -0.20680759458E+02  0.33203540290E+01 -0.99682918933E+01  0.23570273777E+02  0.41800000000E+01 0.  1.
        -11    1    1    2    0    0  0.89034352024E+01  0.25765234289E+02  0.98277907117E+02  0.10198855565E+03  0.00000000000E+00 0.  1.
         11    1    1    2    0    0 -0.13807272263E+02  0.39778809345E+02 -0.68563857766E+01  0.42661510360E+02  0.00000000000E+00 0. -1.
</event>
<event>
 7    1  0.2719869E-009  0.2437294E+03  0.7561462E-02  0.1117333E+00
          2   -1    0    0  501    0  0.00000000000E+00  0.00000000000E+00  0.99027625090E+03  0.99027625090E+03  0.00000000000E+00 0.  1.
         -2   -1    0    0    0  501 -0.00000000000E+00 -0.00000000000E+00 -0.80512354298E+02  0.80512354298E+02  0.00000000000E+00 0. -1.
         25    2    1    2    0    0 -0.20861354578E+03 -0.90944738173E+02  0.22315369967E+03  0.34240638100E+03  0.12511594297E+03 0.  0.
          5    1    3    3  502    0 -0.58849647419E+02 -0.76241528734E+02  0.14129150264E+03  0.17104623008E+03  0.41800000000E+01 0.  1.
         -5    1    3    3    0  502 -0.14976389836E+03 -0.14703209439E+02  0.81862197027E+02  0.17136015092E+03  0.41800000000E+01 0.  1.
        -11    1    1    2    0    0  0.12399016354E+03  0.94375060652E+02  0.39181813848E+03  0.42166534879E+03  0.00000000000E+00 0.  1.
         11    1    1    2    0    0  0.84623382242E+02 -0.34303224793E+01  0.29479205845E+03  0.30671687541E+03  0.00000000000E+00 0. -1.
</event>
<event>
 7    1  0.2719869E-009  0.9768862E+02  0.7561462E-02  0.1285233E+00
         -1   -1    0    0    0  501 -0.00000000000E+00  0.00000000000E+00  0.28220857911E+02  0.28220857911E+02  0.00000000000E+00 0.  1.
          1   -1    0    0  501    0  0.00000000000E+00 -0.00000000000E+00 -0.65502359992E+03  0.65502359992E+03  0.00000000000E+00 0. -1.
         25    2    1    2    0    0  0.11911878621E+02 -0.68087371526E+02 -0.42058270168E+03  0.44420156393E+03  0.12508971750E+03 0.  0.
          5    1    3    3  502    0  0.14543491864E+01 -0.62740031864E+02 -0.72846469723E+02  0.96241920601E+02  0.41800000000E+01 0. -1.
         -5    1    3    3    0  502  0.10457529435E+02 -0.53473396620E+01 -0.34773623196E+03  0.34795964332E+03  0.41800000000E+01 0. -1.
        -11    1    1    2    0    0  0.39942047742E+02  0.52305153054E+02 -0.12724721757E+03  0.14325868418E+03  0.00000000000E+00 0. -1.
         11    1    1    2    0    0 -0.51853926363E+02  0.15782218472E+02 -0.78972822760E+02  0.95784209732E+02  0.00000000000E+00 0.  1.
</event>
<event>
 7    1  0.2719869E-009  0.8549506E+02  0.7561462E-02  0.1314143E+00
         -2   -1    0    0    0  501 -0.00000000000E+00  0.00000000000E+00  0.52722913592E+02  0.52722913592E+02  0.00000000000E+00 0.  1.
          2   -1    0    0  501    0  0.00000000000E+00 -0.00000000000E+00 -0.32519464498E+03  0.32519464498E+03  0.00000000000E+00 0. -1.
         25    2    1    2    0    0  0.26929037347E+02  0.23762559820E+02 -0.24839906519E+03  0.28042699938E+03  0.12508946434E+03 0.  0.
          5    1    3    3  502    0  0.62808892609E+02  0.85173657853E+01 -0.57948809561E+02  0.85982785721E+02  0.41800000000E+01 0.  1.
         -5    1    3    3    0  502 -0.35879855262E+02  0.15245194034E+02 -0.19045025563E+03  0.19444421366E+03  0.41800000000E+01 0.  1.
        -11    1    1    2    0    0 -0.39199022892E+02  0.24945471691E+01  0.20513506696E+02  0.44312414945E+02  0.00000000000E+00 0. -1.
         11    1    1    2    0    0  0.12269985545E+02 -0.26257106989E+02 -0.44586172893E+02  0.53178144251E+02  0.00000000000E+00 0.  1.
</event>
<event>
 7    1  0.2719869E-009  0.1577688E+03  0.7561462E-02  0.1191239E+00
         -2   -1    0    0    0  501 -0.00000000000E+00  0.00000000000E+00  0.21311795014E+02  0.21311795014E+02  0.00000000000E+00 0.  1.
          2   -1    0    0  501    0  0.00000000000E+00 -0.00000000000E+00 -0.12474683826E+04  0.12474683826E+04  0.00000000000E+00 0. -1.
         25    2    1    2    0    0 -0.34473532474E+01  0.12138314018E+03 -0.64235843529E+03  0.66559607309E+03  0.12509205473E+03 0.  0.
          5    1    3    3  502    0 -0.60181358263E+02  0.92657026990E+02 -0.40023753807E+03  0.41522846700E+03  0.41800000000E+01 0.  1.
         -5    1    3    3    0  502  0.56734005015E+02  0.28726113193E+02 -0.24212089723E+03  0.25036760609E+03  0.41800000000E+01 0.  1.
        -11    1    1    2    0    0 -0.29643554669E+02 -0.23226630091E+02 -0.74711773575E+02  0.83666395820E+02  0.00000000000E+00 0.  1.
         11    1    1    2    0    0  0.33090907916E+02 -0.98156510092E+02 -0.50908637877E+03  0.51951770875E+03  0.00000000000E+00 0. -1.
</event>
<event>
 7    1  0.2719869E-009  0.1147406E+03  0.7561462E-02  0.1252035E+00
          1   -1    0    0  501    0  0.00000000000E+00  0.00000000000E+00  0.67072602108E+03  0.67072602108E+03  0.00000000000E+00 0. -1.
         -1   -1    0    0    0  501 -0.00000000000E+00 -0.00000000000E+00 -0.33445761822E+02  0.33445761822E+02  0.00000000000E+00 0.  1.
         25    2    1    2    0    0  0.78840203877E+02  0.40587113851E+02  0.23879948854E+03  0.28378863507E+03  0.12509077547E+03 0.  0.
          5    1    3    3  502    0  0.10411728468E+03  0.16397668006E+02  0.11950611080E+03  0.15940036199E+03  0.41800000000E+01 0.  1.
         -5    1    3    3    0  502 -0.25277080806E+02  0.24189445845E+02  0.11929337774E+03  0.12438827307E+03  0.41800000000E+01 0.  1.
        -11    1    1    2    0    0 -0.60405960427E+02 -0.32953636363E+02  0.39396137648E+03  0.39992547851E+03  0.00000000000E+00 0. -1.
         11    1    1    2    0    0 -0.18434243450E+02 -0.76334774878E+01  0.45193942446E+01  0.20457669331E+02  0.00000000000E+00 0.  1.
</event>
<event>
 7    1  0.2719869E-009  0.1207970E+03  0.7561462E-02  0.1241788E+00
          1   -1    0    0  501    0  0.00000000000E+00  0.00000000000E+00  0.34902774216E+03  0.34902774216E+03  0.00000000000E+00 0. -1.
         -1   -1    0    0    0  501 -0.00000000000E+00 -0.00000000000E+00 -0.54692722409E+02  0.54692722409E+02  0.00000000000E+00 0.  1.
         25    2    1    2    0    0  0.22454058832E+02 -0.79051354398E+02  0.19211636947E+03  0.24353632983E+03  0.12509173888E+03 0.  0.
          5    1    3    3  502    0  0.50004021032E+02 -0.20264679041E+02  0.16995708202E+02  0.56722004842E+02  0.41800000000E+01 0. -1.
         -5    1    3    3    0  502 -0.27549962200E+02 -0.58786675357E+02  0.17512066127E+03  0.18681432498E+03  0.41800000000E+01 0. -1.
        -11    1    1    2    0    0 -0.27201888261E+02  0.98610975230E+02  0.77673064797E+02  0.12844131795E+03  0.00000000000E+00 0. -1.
         11    1    1    2    0    0  0.47478294291E+01 -0.19559620832E+02  0.24545585482E+02  0.31742816794E+02  0.00000000000E+00 0.  1.
</event>
<event>
 7    1  0.2719869E-009  0.1225869E+03  0.7561462E-02  0.1238889E+00
          2   -1    0    0  501    0  0.00000000000E+00  0.00000000000E+00  0.63607213697E+03  0.63607213697E+03  0.00000000000E+00 0. -1.
         -2   -1    0    0    0  501 -0.00000000000E+00 -0.00000000000E+00 -0.31545007232E+02  0.31545007232E+02  0.00000000000E+00 0.  1.
         25    2    1    2    0    0  0.64860727318E+02 -0.61239234483E+02  0.35860736527E+03  0.39013310534E+03  0.12508972646E+03 0.  0.
          5    1    3    3  502    0 -0.10274760323E+02 -0.38645214036E+02  0.26449971838E+03  0.26753802850E+03  0.41800000000E+01 0. -1.
         -5    1    3    3    0  502  0.75135487641E+02 -0.22594020447E+02  0.94107646884E+02  0.12259507684E+03  0.41800000000E+01 0. -1.
        -11    1    1    2    0    0 -0.56860219409E+02  0.84471817099E+02  0.17550651701E+03  0.20290665329E+03  0.00000000000E+00 0.  1.
         11    1    1    2    0    0 -0.80005079088E+01 -0.23232582616E+02  0.70413247456E+02  0.74577385574E+02  0.00000000000E+00 0. -1.
</event>
<event>
 7    1  0.2719869E-009  0.1126107E+03  0.7561462E-02  0.1255810E+00
          1   -1    0    0  501    0  0.00000000000E+00  0.00000000000E+00  0.60820865406E+03  0.60820865406E+03  0.00000000000E+00 0. -1.
         -1   -1    0    0    0  501 -0.00000000000E+00 -0.00000000000E+00 -0.30750412358E+02  0.30750412358E+02  0.00000000000E+00 0.  1.
         25    2    1    2    0    0 -0.23304449208E+02 -0.58232913446E+02  0.19001840178E+03  0.23598470669E+03  0.12509044414E+03 0.  0.
          5    1    3    3  502    0  0.21206152631E+02 -0.71449803482E+02  0.16918711302E+03  0.18492302977E+03  0.41800000000E+01 0.  1.
         -5    1    3    3    0  502 -0.44510601839E+02  0.13216890036E+02  0.20831288751E+02  0.51061676914E+02  0.41800000000E+01 0.  1.
        -11    1    1    2    0    0  0.47121989090E+02  0.72415771042E+01  0.24916298137E+03  0.25368309676E+03  0.00000000000E+00 0. -1.
         11    1    1    2    0    0 -0.23817539881E+02  0.50991336342E+02  0.13827685855E+03  0.14929126297E+03  0.00000000000E+00 0.  1.
</event>
<event>
 7    1  0.2719869E-009  0.1374288E+03  0.7561462E-02  0.1216831E+00
          2   -1    0    0  501    0  0.00000000000E+00  0.00000000000E+00  0.78513750252E+02  0.78513750252E+02  0.00000000000E+00 0. -1.
         -2   -1    0    0    0  501 -0.00000000000E+00 -0.00000000000E+00 -0.31272301400E+03  0.31272301400E+03  0.00000000000E+00 0.  1.
         25    2    1    2    0    0  0.92225491379E+02 -0.60089972908E+02 -0.98374108061E+02  0.19351762311E+03  0.12512097831E+03 0.  0.
          5    1    3    3  502    0  0.50982235607E+02 -0.96540771331E+02 -0.79726929872E+02  0.13525222595E+03  0.41800000000E+01 0. -1.
         -5    1    3    3    0  502  0.41243255772E+02  0.36450798424E+02 -0.18647178188E+02  0.58265397165E+02  0.41800000000E+01 0. -1.
        -11    1    1    2    0    0 -0.63117663321E+02  0.36325633084E+02 -0.14205228232E+03  0.15963158195E+03  0.00000000000E+00 0.  1.
         11    1    1    2    0    0 -0.29107828058E+02  0.23764339824E+02  0.62171266372E+01  0.38087559191E+02  0.00000000000E+00 0. -1.
</event>
<event>
 7    1  0.2719869E-009  0.1236610E+03  0.7561462E-02  0.1237177E+00
         -2   -1    0    0    0  501 -0.00000000000E+00  0.00000000000E+00  0.15035634729E+02  0.15035634729E+02  0.00000000000E+00 0. -1.
          2   -1    0    0  501    0  0.00000000000E+00 -0.00000000000E+00 -0.14706577929E+04  0.14706577929E+04  0.00000000000E+00 0.  1.
         25    2    1    2    0    0 -0.56942377374E+02 -0.56245575240E+02 -0.11031012157E+04  0.11130517195E+04  0.12508332909E+03 0.  0.
          5    1    3    3  502    0 -0.44183176548E+02 -0.85908721203E+02 -0.10060082224E+04  0.10106445851E+04  0.41800000000E+01 0. -1.
         -5    1    3    3    0  502 -0.12759200826E+02  0.29663145963E+02 -0.97092993219E+02  0.10240713435E+03  0.41800000000E+01 0. -1.
        -11    1    1    2    0    0  0.47709646649E+02  0.79684228706E+02 -0.24019584317E+03  0.25752636713E+03  0.00000000000E+00 0. -1.
         11    1    1    2    0    0  0.92327307247E+01 -0.23438653467E+02 -0.11232509938E+03  0.11511534104E+03  0.00000000000E+00 0.  1.
</event>
<event>
 7    1  0.2719869E-009  0.1212501E+03  0.7561462E-02  0.1241049E+00
         -2   -1    0    0    0  501 -0.00000000000E+00  0.00000000000E+00  0.14006524674E+02  0.14006524674E+02  0.00000000000E+00 0.  1.
          2   -1    0    0  501    0  0.00000000000E+00 -0.00000000000E+00 -0.10608054242E+04  0.10608054242E+04  0.00000000000E+00 0. -1.
         25    2    1    2    0    0  0.26364154320E+02 -0.45971638275E+02 -0.57392456145E+03  0.58978368587E+03  0.12508770410E+03 0.  0.
          5    1    3    3  502    0 -0.25959601522E+02 -0.72379785153E+02 -0.33573867834E+03  0.34445706082E+03  0.41800000000E+01 0.  1.
         -5    1    3    3    0  502  0.52323755841E+02  0.26408146878E+02 -0.23818588311E+03  0.24532662505E+03  0.41800000000E+01 0.  1.
        -11    1    1    2    0    0 -0.22987008192E+02 -0.25987312684E+02 -0.12213043993E+03  0.12696293681E+03  0.00000000000E+00 0.  1.
         11    1    1    2    0    0 -0.33771461276E+01  0.71958950958E+02 -0.35074389816E+03  0.35806532621E+03  0.00000000000E+00 0. -1.
</event>
<event>
 7    1  0.2719869E-009  0.1118281E+03  0.7561462E-02  0.1257221E+00
          1   -1    0    0  501    0  0.00000000000E+00  0.00000000000E+00  0.16624794629E+04  0.16624794629E+04  0.00000000000E+00 0. -1.
         -1   -1    0    0    0  501 -0.00000000000E+00 -0.00000000000E+00 -0.12605763095E+02  0.12605763095E+02  0.00000000000E+00 0.  1.
         25    2    1    2    0    0 -0.68731043684E+02 -0.39018702645E+02  0.12220373650E+04  0.12309633012E+04  0.12509561151E+03 0.  0.
          5    1    3    3  502    0 -0.20176078760E+02  0.23169428753E+02  0.85298373732E+03  0.85354708430E+03  0.41800000000E+01 0. -1.
         -5    1    3    3    0  502 -0.48554964924E+02 -0.62188131398E+02  0.36905362766E+03  0.37741621692E+03  0.41800000000E+01 0. -1.
        -11    1    1    2    0    0  0.25003187238E+02  0.60102574215E+02  0.30842958354E+03  0.31522418499E+03  0.00000000000E+00 0. -1.
         11    1    1    2    0    0  0.43727856445E+02 -0.21083871571E+02  0.11940675128E+03  0.12889773978E+03  0.00000000000E+00 0.  1.
</event>
<event>
 7    1  0.2719869E-009  0.1105853E+03  0.7561462E-02  0.1259490E+00
          3   -1    0    0  501    0  0.00000000000E+00  0.00000000000E+00  0.23810465660E+02  0.23810465660E+02  0.00000000000E+00 0. -1.
         -3   -1    0    0    0  501 -0.00000000000E+00 -0.00000000000E+00 -0.65297651885E+03  0.65297651885E+03  0.00000000000E+00 0.  1.
         25    2    1    2    0    0  0.33622451506E+02  0.32851609217E+02 -0.45400410906E+03  0.47326225458E+03  0.12509089932E+03 0.  0.
          5    1    3    3  502    0 -0.41464549612E+02  0.14488135480E+02 -0.27085053503E+03  0.27442066189E+03  0.41800000000E+01 0.  1.
         -5    1    3    3    0  502  0.75087001118E+02  0.18363473737E+02 -0.18315357403E+03  0.19884159270E+03  0.41800000000E+01 0.  1.
        -11    1    1    2    0    0 -0.55510617236E+02 -0.47697978064E+02 -0.15054637872E+03  0.16739396011E+03  0.00000000000E+00 0.  1.
         11    1    1    2    0    0  0.21888165730E+02  0.14846368847E+02 -0.24615565408E+02  0.36130769813E+02  0.00000000000E+00 0. -1.
</event>
<event>
 7    1  0.2719869E-009  0.1251629E+03  0.7561462E-02  0.1234815E+00
         -1   -1    0    0    0  501 -0.00000000000E+00  0.00000000000E+00  0.23034059289E+02  0.23034059289E+02  0.00000000000E+00 0.  1.
          1   -1    0    0  501    0  0.00000000000E+00 -0.00000000000E+00 -0.77141489383E+03  0.77141489383E+03  0.00000000000E+00 0. -1.
         25    2    1    2    0    0 -0.75054724320E+02 -0.39084668881E+01 -0.42974407118E+03  0.45384620276E+03  0.12509165153E+03 0.  0.
          5    1    3    3  502    0  0.76507652897E+01 -0.40569600541E+02 -0.58546340248E+02  0.71760525736E+02  0.41800000000E+01 0. -1.
         -5    1    3    3    0  502 -0.82705489610E+02  0.36661133653E+02 -0.37119773093E+03  0.38208567702E+03  0.41800000000E+01 0. -1.
        -11    1    1    2    0    0  0.85741020132E+02 -0.23454514584E+02 -0.26409124948E+03  0.27865000420E+03  0.00000000000E+00 0. -1.
         11    1    1    2    0    0 -0.10686295812E+02  0.27362981472E+02 -0.54545513875E+02  0.61952746163E+02  0.00000000000E+00 0.  1.
</event>
<event>
 7    1  0.3268879E-009  0.1009294E+03  0.7561462E-02  0.1278354E+00
          1   -1    0    0  501    0  0.00000000000E+00  0.00000000000E+00  0.27333040826E+03  0.27333040826E+03  0.00000000000E+00 0. -1.
         -1   -1    0    0    0  501 -0.00000000000E+00 -0.00000000000E+00 -0.52842931105E+02  0.52842931105E+02  0.00000000000E+00 0.  1.
         25    2    1    2    0    0  0.71039498526E+01  0.47084400199E+02  0.15177593404E+03  0.20236404204E+03  0.12509142460E+03 0.  0.
          5    1    3    3  502    0  0.28831125742E+02  0.83343613371E+02  0.12155016640E+03  0.15023084588E+03  0.41800000000E+01 0.  1.
         -5    1    3    3    0  502 -0.21727175890E+02 -0.36259213172E+02  0.30225767637E+02  0.52133196154E+02  0.41800000000E+01 0.  1.
        -11    1    1    2    0    0 -0.19053145119E+02 -0.54017068651E+02  0.37569904833E+01  0.57401925247E+02  0.00000000000E+00 0.  1.
         11    1    1    2    0    0  0.11949195267E+02  0.69326684521E+01  0.64954552633E+02  0.66407372084E+02  0.00000000000E+00 0. -1.
</event>
<event>
 7    1  0.2719869E-009  0.1014693E+03  0.7561462E-02  0.1277236E+00
          2   -1    0    0  501    0  0.00000000000E+00  0.00000000000E+00  0.76327637878E+03  0.76327637878E+03  0.00000000000E+00 0.  1.
         -2   -1    0    0    0  501 -0.00000000000E+00 -0.00000000000E+00 -0.17679740792E+02  0.17679740792E+02  0.00000000000E+00 0. -1.
         25    2    1    2    0    0  0.10733095969E+02  0.48920902613E+02  0.53474618645E+03  0.55146063622E+03  0.12508755060E+03 0.  0.
          5    1    3    3  502    0  0.44868537802E+02  0.77329990722E+02  0.38121138744E+03  0.39157720498E+03  0.41800000000E+01 0. -1.
         -5    1    3    3    0  502 -0.34135441834E+02 -0.28409088109E+02  0.15353479901E+03  0.15988343124E+03  0.41800000000E+01 0. -1.
        -11    1    1    2    0    0  0.17726240694E+02 -0.92158681809E+01  0.91695149617E+01  0.21982534888E+02  0.00000000000E+00 0. -1.
         11    1    1    2    0    0 -0.28459336662E+02 -0.39705034432E+02  0.20168093657E+03  0.20751294846E+03  0.00000000000E+00 0.  1.
</event>
<event>
 7    1  0.2719869E-009  0.1587098E+03  0.7561462E-02  0.1190161E+00
         -2   -1    0    0    0  501 -0.00000000000E+00  0.00000000000E+00  0.53835477441E+02  0.53835477441E+02  0.00000000000E+00 0.  1.
          2   -1    0    0  501    0  0.00000000000E+00 -0.00000000000E+00 -0.63653206310E+03  0.63653206310E+03  0.00000000000E+00 0. -1.
         25    2    1    2    0    0  0.66357605049E+02 -0.11680022233E+03 -0.42819008520E+03  0.46587388082E+03  0.12508437184E+03 0.  0.
          5    1    3    3  502    0 -0.36844140056E+02 -0.23881228521E+02 -0.11874675446E+03  0.12667307460E+03  0.41800000000E+01 0. -1.
         -5    1    3    3    0  502  0.10320174511E+03 -0.92918993813E+02 -0.30944333074E+03  0.33920080622E+03  0.41800000000E+01 0. -1.
        -11    1    1    2    0    0 -0.54870859429E+02  0.93699133995E+02 -0.55041197799E+02  0.12173689819E+03  0.00000000000E+00 0.  1.
         11    1    1    2    0    0 -0.11486745620E+02  0.23101088338E+02 -0.99465302660E+02  0.10275676153E+03  0.00000000000E+00 0. -1.
</event>
<event>
 7    1  0.2719869E-009  0.1197058E+03  0.7561462E-02  0.1243583E+00
          2   -1    0    0  501    0  0.00000000000E+00  0.00000000000E+00  0.14000328614E+04  0.14000328614E+04  0.00000000000E+00 0. -1.
         -2   -1    0    0    0  501 -0.00000000000E+00 -0.00000000000E+00 -0.12672811590E+02  0.12672811590E+02  0.00000000000E+00 0.  1.
         25    2    1    2    0    0 -0.49734733991E+02 -0.20084365703E+02  0.10399726503E+04  0.10488408719E+04  0.12508851099E+03 0.  0.
          5    1    3    3  502    0  0.24376945847E+02 -0.47269023075E+02  0.30513907054E+03  0.30976752703E+03  0.41800000000E+01 0. -1.
         -5    1    3    3    0  502 -0.74111679838E+02  0.27184657372E+02  0.73483357976E+03  0.73907334483E+03  0.41800000000E+01 0. -1.
        -11    1    1    2    0    0  0.65471758012E+02 -0.16213851847E+02  0.19134134258E+03  0.20288161441E+03  0.00000000000E+00 0. -1.
         11    1    1    2    0    0 -0.15737024022E+02  0.36298217550E+02  0.15604605689E+03  0.16098318668E+03  0.00000000000E+00 0.  1.
</event>
<event>
 7    1  0.2719869E-009  0.8325667E+02  0.7561462E-02  0.1320056E+00
         -1   -1    0    0    0  501 -0.00000000000E+00  0.00000000000E+00  0.25265011693E+02  0.25265011693E+02  0.00000000000E+00 0.  1.
          1   -1    0    0  501    0  0.00000000000E+00 -0.00000000000E+00 -0.57005641925E+03  0.57005641925E+03  0.00000000000E+00 0. -1.
         25    2    1    2    0    0  0.20169788976E+02 -0.37986679148E+02 -0.35769198247E+03  0.38136714463E+03  0.12509011352E+03 0.  0.
          5    1    3    3  502    0  0.46404144544E+02  0.50288117889E+01 -0.30410591624E+03  0.30769548952E+03  0.41800000000E+01 0. -1.
         -5    1    3    3    0  502 -0.26234355567E+02 -0.43015490937E+02 -0.53586066230E+02  0.73671655109E+02  0.41800000000E+01 0. -1.
        -11    1    1    2    0    0 -0.72336546297E+01 -0.13872444184E+02  0.34752507369E+01  0.16026472932E+02  0.00000000000E+00 0.  1.
         11    1    1    2    0    0 -0.12936134346E+02  0.51859123332E+02 -0.19057467582E+03  0.19792781338E+03  0.00000000000E+00 0. -1.
</event>
<event>
 7    1  0.2719869E-009  0.1266754E+03  0.7561462E-02  0.1232474E+00
          4   -1    0    0  501    0  0.00000000000E+00  0.00000000000E+00  0.40338715792E+03  0.40338715792E+03  0.00000000000E+00 0. -1.
         -4   -1    0    0    0  501 -0.00000000000E+00 -0.00000000000E+00 -0.49289306941E+02  0.49289306941E+02  0.00000000000E+00 0.  1.
         25    2    1    2    0    0  0.13177088340E+02  0.82480953581E+02  0.14185002166E+03  0.20674031982E+03  0.12507352971E+03 0.  0.
          5    1    3    3  502    0 -0.43936026492E+02  0.29891787580E+02  0.10838435362E+02  0.54395197120E+02  0.41800000000E+01 0. -1.
         -5    1    3    3    0  502  0.57113114832E+02  0.52589166001E+02  0.13101158629E+03  0.15234512270E+03  0.41800000000E+01 0. -1.
        -11    1    1    2    0    0 -0.47610717989E+02 -0.21444559581E+02  0.69668662611E+02  0.87065332671E+02  0.00000000000E+00 0. -1.
         11    1    1    2    0    0  0.34433629650E+02 -0.61036394000E+02  0.14257916671E+03  0.15887081237E+03  0.00000000000E+00 0.  1.
</event>
<event>
 7    1  0.2719869E-009  0.1035400E+03  0.7561462E-02  0.1273023E+00
          1   -1    0    0  501    0  0.00000000000E+00  0.00000000000E+00  0.34408068044E+02  0.34408068044E+02  0.00000000000E+00 0. -1.
         -1   -1    0    0    0  501 -0.00000000000E+00 -0.00000000000E+00 -0.39147290568E+03  0.39147290568E+03  0.00000000000E+00 0.  1.
         25    2    1    2    0    0  0.26284821270E+02 -0.32690680091E+02 -0.20608894967E+03  0.24470244518E+03  0.12508820530E+03 0.  0.
          5    1    3    3  502    0 -0.72123472914E+01  0.32525330156E+02 -0.95738710350E+01  0.34914845866E+02  0.41800000000E+01 0. -1.
         -5    1    3    3    0  502  0.33497168561E+02 -0.65216010247E+02 -0.19651507864E+03  0.20978759932E+03  0.41800000000E+01 0. -1.
        -11    1    1    2    0    0 -0.60416914282E+02  0.22084858187E+02 -0.93315723834E+02  0.11333917596E+03  0.00000000000E+00 0.  1.
         11    1    1    2    0    0  0.34132093012E+02  0.10605821904E+02 -0.57660164124E+02  0.67839352580E+02  0.00000000000E+00 0. -1.
</event>
<event>
 7    1  0.2719869E-009  0.1076655E+03  0.7561462E-02  0.1264955E+00
         -1   -1    0    0    0  501 -0.00000000000E+00  0.00000000000E+00  0.54255817751E+02  0.54255817751E+02  0.00000000000E+00 0.  1.
          1   -1    0    0  501    0  0.00000000000E+00 -0.00000000000E+00 -0.29874189385E+03  0.29874189385E+03  0.00000000000E+00 0. -1.
         25    2    1    2    0    0 -0.35511181970E+02 -0.54489092062E+02 -0.12333843508E+03  0.18732373372E+03  0.12509079282E+03 0.  0.
          5    1    3    3  502    0 -0.11869222813E+01 -0.71928939701E+02 -0.12941341672E+03  0.14812321215E+03  0.41800000000E+01 0. -1.
         -5    1    3    3    0  502 -0.34324259689E+02  0.17439847639E+02  0.60749816429E+01  0.39200521563E+02  0.41800000000E+01 0. -1.
        -11    1    1    2    0    0  0.62356029864E+02  0.37069786206E+02 -0.51313422193E+02  0.88856686901E+02  0.00000000000E+00 0. -1.
         11    1    1    2    0    0 -0.26844847894E+02  0.17419305856E+02 -0.69834218827E+02  0.76817290984E+02  0.00000000000E+00 0.  1.
</event>
<event>
 7    1  0.2719869E-009  0.1212925E+03  0.7561462E-02  0.1240980E+00
          2   -1    0    0  501    0  0.00000000000E+00  0.00000000000E+00  0.82521155467E+03  0.82521155467E+03  0.00000000000E+00 0. -1.
         -2   -1    0    0    0  501 -0.00000000000E+00 -0.00000000000E+00 -0.23524702942E+02  0.23524702942E+02  0.00000000000E+00 0.  1.
         25    2    1    2    0    0  0.44774350868E+02 -0.46619181691E+02  0.26009429568E+03  0.29576160201E+03  0.12509113470E+03 0.  0.
          5    1    3    3  502    0 -0.17127518190E+02 -0.64840559685E+02  0.80372733801E+02  0.10476115119E+03  0.41800000000E+01 0. -1.
         -5    1    3    3    0  502  0.61901869058E+02  0.18221377994E+02  0.17972156188E+03  0.19100045082E+03  0.41800000000E+01 0. -1.
        -11    1    1    2    0    0  0.25035801215E+02 -0.28048240921E+01  0.96246181036E+02  0.99488621182E+02  0.00000000000E+00 0.  1.
         11    1    1    2    0    0 -0.69810152083E+02  0.49424005783E+02  0.44534637500E+03  0.45348603442E+03  0.00000000000E+00 0. -1.
</event>
<event>
 7    1  0.3097125E-009  0.1224993E+03  0.7561462E-02  0.1239030E+00
         -1   -1    0    0    0  501 -0.00000000000E+00  0.00000000000E+00  0.66220055388E+02  0.66220055388E+02  0.00000000000E+00 0.  1.
          1   -1    0    0  501    0  0.00000000000E+00 -0.00000000000E+00 -0.31134665707E+03  0.31134665707E+03  0.00000000000E+00 0. -1.
         25    2    1    2    0    0 -0.90495526211E+02 -0.12907193910E+02 -0.10509882226E+03  0.18721657355E+03  0.12509295365E+03 0.  0.
          5    1    3    3  502    0 -0.80306234037E+02 -0.51183840282E+02 -0.11169935343E+03  0.14684377647E+03  0.41800000000E+01 0.  1.
         -5    1    3    3    0  502 -0.10189292174E+02  0.38276646372E+02  0.66005311730E+01  0.40372797083E+02  0.41800000000E+01 0.  1.
        -11    1    1    2    0    0  0.18643144986E+02  0.30614690477E+02 -0.99969915686E+02  0.10620174278E+03  0.00000000000E+00 0. -1.
         11    1    1    2    0    0  0.71852381225E+02 -0.17707496567E+02 -0.40057863738E+02  0.84148396120E+02  0.00000000000E+00 0.  1.
</event>
<event>
 7    1  0.2719869E-009  0.1021726E+03  0.7561462E-02  0.1275792E+00
         -1   -1    0    0    0  501 -0.00000000000E+00  0.00000000000E+00  0.11995188565E+03  0.11995188565E+03  0.00000000000E+00 0.  1.
          1   -1    0    0  501    0  0.00000000000E+00 -0.00000000000E+00 -0.99451680262E+02  0.99451680262E+02  0.00000000000E+00 0. -1.
         25    2    1    2    0    0  0.35067277431E+02 -0.37385389896E+01  0.21828257610E+02  0.13178761309E+03  0.12509121278E+03 0.  0.
          5    1    3    3  502    0 -0.30929860972E+02 -0.33883214083E+02 -0.17347416186E+02  0.49225336410E+02  0.41800000000E+01 0.  1.
         -5    1    3    3    0  502  0.65997138403E+02  0.30144675094E+02  0.39175673796E+02  0.82562276684E+02  0.41800000000E+01 0.  1.
        -11    1    1    2    0    0  0.59486998194E+01 -0.31175669747E+02  0.85141249483E+01  0.32860306410E+02  0.00000000000E+00 0.  1.
         11    1    1    2    0    0 -0.41015977250E+02  0.34914208737E+02 -0.98421771744E+01  0.54755646403E+02  0.00000000000E+00 0. -1.
</event>
<event>
 7    1  0.2719869E-009  0.1203649E+03  0.7561462E-02  0.1242496E+00
         -1   -1    0    0    0  501 -0.00000000000E+00  0.00000000000E+00  0.98321016216E+02  0.98321016216E+02  0.00000000000E+00 0.  1.
          1   -1    0    0  501    0  0.00000000000E+00 -0.00000000000E+00 -0.26172286496E+03  0.26172286496E+03  0.00000000000E+00 0. -1.
         25    2    1    2    0    0  0.73551604396E+02 -0.87073417942E+02 -0.12764261243E+03  0.21196943581E+03  0.12508711600E+03 0.  0.
          5    1    3    3  502    0  0.35458986615E+02 -0.14890535224E+02  0.19750830251E+02  0.43435417192E+02  0.41800000000E+01 0.  1.
         -5    1    3    3    0  502  0.38092617781E+02 -0.72182882718E+02 -0.14739344268E+03  0.16853401862E+03  0.41800000000E+01 0.  1.
        -11    1    1    2    0    0 -0.53664858834E+02  0.33715905796E+02  0.21883100113E+02  0.67048858662E+02  0.00000000000E+00 0.  1.
         11    1    1    2    0    0 -0.19886745562E+02  0.53357512146E+02 -0.57642336423E+02  0.81025586698E+02  0.00000000000E+00 0. -1.
</event>
<event>
 7    1  0.2719869E-009  0.9716739E+02  0.7561462E-02  0.1286368E+00
          1   -1    0    0  501    0  0.00000000000E+00  0.00000000000E+00  0.48465030751E+02  0.48465030751E+02  0.00000000000E+00 0. -1.
         -1   -1    0    0    0  501 -0.00000000000E+00 -0.00000000000E+00 -0.35626344427E+03  0.35626344427E+03  0.00000000000E+00 0.  1.
         25    2    1    2    0    0  0.35338235771E+01  0.28818539984E+02 -0.73058008843E+02  0.14774589896E+03  0.12509349243E+03 0.  0.
          5    1    3    3  502    0  0.46232837909E+02  0.16909666165E+02 -0.87882377192E+02  0.10081764097E+03  0.41800000000E+01 0. -1.
         -5    1    3    3    0  502 -0.42699014332E+02  0.11908873820E+02  0.14824368348E+02  0.46928257985E+02  0.41800000000E+01 0. -1.
        -11    1    1    2    0    0  0.13019799444E+02 -0.61984239875E+02 -0.18046934271E+03  0.19126093388E+03  0.00000000000E+00 0.  1.
         11    1    1    2    0    0 -0.16553623021E+02  0.33165699890E+02 -0.54271061969E+02  0.65721642186E+02  0.00000000000E+00 0. -1.
</event>
<event>
 7    1  0.2719869E-009  0.8508504E+02  0.7561462E-02  0.1315210E+00
          2   -1    0    0  501    0  0.00000000000E+00  0.00000000000E+00  0.93921572873E+02  0.93921572873E+02  0.00000000000E+00 0. -1.
         -2   -1    0    0    0  501 -0.00000000000E+00 -0.00000000000E+00 -0.86206943181E+02  0.86206943181E+02  0.00000000000E+00 0.  1.
         25    2    1    2    0    0 -0.27817368203E+02 -0.11900212592E+02  0.40133071713E+01  0.12875877216E+03  0.12508914317E+03 0.  0.
          5    1    3    3  502    0 -0.73399167979E+02 -0.22495037132E+01  0.24728275731E+02  0.77598055050E+02  0.41800000000E+01 0.  1.
         -5    1    3    3    0  502  0.45581799775E+02 -0.96507088788E+01 -0.20714968559E+02  0.51160717108E+02  0.41800000000E+01 0.  1.
        -11    1    1    2    0    0  0.75755688994E+01 -0.14625723721E+02  0.68827701970E+01  0.17851430310E+02  0.00000000000E+00 0. -1.
         11    1    1    2    0    0  0.20241799304E+02  0.26525936313E+02 -0.31814476764E+01  0.33518313586E+02  0.00000000000E+00 0.  1.
</event>
<event>
 7    1  0.2719869E-009  0.1189428E+03  0.7561462E-02  0.1244851E+00
          2   -1    0    0  501    0  0.00000000000E+00  0.00000000000E+00  0.60047612823E+03  0.60047612823E+03  0.00000000000E+00 0. -1.
         -2   -1    0    0    0  501 -0.00000000000E+00 -0.00000000000E+00 -0.36817232154E+02  0.36817232154E+02  0.00000000000E+00 0.  1.
         25    2    1    2    0    0  0.95643995128E+02 -0.41244340685E+01  0.28757103964E+03  0.32788569281E+03  0.12508852843E+03 0.  0.
          5    1    3    3  502    0  0.23165486273E+02  0.12276816484E+02 -0.41041707489E+01  0.26864039063E+02  0.41800000000E+01 0.  1.
         -5    1    3    3    0  502  0.72478508855E+02 -0.16401250552E+02  0.29167521039E+03  0.30102165374E+03  0.41800000000E+01 0.  1.
        -11    1    1    2    0    0 -0.11530232326E+02  0.42802277665E+02  0.12004202690E+03  0.12796511030E+03  0.00000000000E+00 0. -1.
         11    1    1    2    0    0 -0.84113762802E+02 -0.38677843597E+02  0.15604582953E+03  0.18144255727E+03  0.00000000000E+00 0.  1.
</event>
<event>
 7    1  0.2719869E-009  0.1757604E+03  0.7561462E-02  0.1171970E+00
         -2   -1    0    0    0  501 -0.00000000000E+00  0.00000000000E+00  0.42906916124E+02  0.42906916124E+02  0.00000000000E+00 0.  1.
          2   -1    0    0  501    0  0.00000000000E+00 -0.00000000000E+00 -0.72813732181E+03  0.72813732181E+03  0.00000000000E+00 0. -1.
         25    2    1    2    0    0 -0.13378171298E+03 -0.35243997839E+02 -0.32568272889E+03  0.37530776197E+03  0.12508792980E+03 0.  0.
          5    1    3    3  502    0 -0.95372575780E+02 -0.81982368671E+02 -0.21626756749E+03  0.25021225017E+03  0.41800000000E+01 0.  1.
         -5    1    3    3    0  502 -0.38409137204E+02  0.46738370832E+02 -0.10941516140E+03  0.12509551180E+03  0.41800000000E+01 0.  1.
        -11    1    1    2    0    0  0.93847293333E+02 -0.20901350643E+02 -0.22072349061E+03  0.24075514580E+03  0.00000000000E+00 0.  1.
         11    1    1    2    0    0  0.39934419651E+02  0.56145348482E+02 -0.13882418619E+03  0.15498133017E+03  0.00000000000E+00 0. -1.
</event>
<event>
 7    1  0.2719869E-009  0.1695509E+03  0.7561462E-02  0.1178317E+00
         -1   -1    0    0    0  501 -0.00000000000E+00  0.00000000000E+00  0.53216834995E+03  0.53216834995E+03  0.00000000000E+00 0.  1.
          1   -1    0    0  501    0  0.00000000000E+00 -0.00000000000E+00 -0.72671775448E+02  0.72671775448E+02  0.00000000000E+00 0. -1.
         25    2    1    2    0    0 -0.10705115783E+03  0.92075524035E+02  0.11452780644E+03  0.22068405557E+03  0.12508789475E+03 0.  0.
          5    1    3    3  502    0 -0.95722449269E+02  0.10737922564E+01  0.47019198544E+02  0.10673433260E+03  0.41800000000E+01 0.  1.
         -5    1    3    3    0  502 -0.11328708565E+02  0.91001731779E+02  0.67508607899E+02  0.11394972297E+03  0.41800000000E+01 0.  1.
        -11    1    1    2    0    0  0.22507703415E+02 -0.54500384840E+02  0.58269893401E+02  0.82899150404E+02  0.00000000000E+00 0. -1.
         11    1    1    2    0    0  0.84543454419E+02 -0.37575139196E+02  0.28669887465E+03  0.30125691942E+03  0.00000000000E+00 0.  1.
</event>
<event>
 7    1  0.2719869E-009  0.1072336E+03  0.7561462E-02  0.1265780E+00
          3   -1    0    0  501    0  0.00000000000E+00  0.00000000000E+00  0.12889665146E+03  0.12889665146E+03  0.00000000000E+00 0.  1.
         -3   -1    0    0    0  501 -0.00000000000E+00 -0.00000000000E+00 -0.25658295045E+03  0.25658295045E+03  0.00000000000E+00 0. -1.
         25    2    1    2    0    0 -0.43108812220E+02 -0.13276932192E+02  0.79466194376E+02  0.15490967420E+03  0.12508990564E+03 0.  0.
          5    1    3    3  502    0 -0.58339482335E+02 -0.48126508175E+02  0.87587371865E+02  0.11579583800E+03  0.41800000000E+01 0. -1.
         -5    1    3    3    0  502  0.15230670115E+02  0.34849575984E+02 -0.81211774890E+01  0.39113836199E+02  0.41800000000E+01 0. -1.
        -11    1    1    2    0    0  0.51690532024E+01  0.48450783624E+02 -0.11481585115E+03  0.12472721123E+03  0.00000000000E+00 0. -1.
         11    1    1    2    0    0  0.37939759017E+02 -0.35173851433E+02 -0.92336642212E+02  0.10584271649E+03  0.00000000000E+00 0.  1.
</event>
<event>
 7    1  0.2719869E-009  0.1186757E+03  0.7561462E-02  0.1245298E+00
          3   -1    0    0  501    0  0.00000000000E+00  0.00000000000E+00  0.55965204829E+03  0.55965204829E+03  0.00000000000E+00 0. -1.
         -3   -1    0    0    0  501 -0.00000000000E+00 -0.00000000000E+00 -0.25325125557E+02  0.25325125557E+02  0.00000000000E+00 0.  1.
         25    2    1    2    0    0  0.74226563968E+01  0.49406688116E+02  0.30272186487E+03  0.33133718493E+03  0.12509071103E+03 0.  0.
          5    1    3    3  502    0  0.54709659404E+02 -0.12375678744E+02  0.14170356585E+03  0.15245877223E+03  0.41800000000E+01 0. -1.
         -5    1    3    3    0  502 -0.47287003008E+02  0.61782366859E+02  0.16101829903E+03  0.17887841270E+03  0.41800000000E+01 0. -1.
        -11    1    1    2    0    0  0.30667455473E+01 -0.75243019270E+02  0.16155611767E+03  0.17824504491E+03  0.00000000000E+00 0.  1.
         11    1    1    2    0    0 -0.10489401944E+02  0.25836331155E+02  0.70048940192E+02  0.75394944013E+02  0.00000000000E+00 0. -1.
</event>
<event>
 7    1  0.2719869E-009  0.1360298E+03  0.7561462E-02  0.1218773E+00
          2   -1    0    0  501    0  0.00000000000E+00  0.00000000000E+00  0.88506979777E+03  0.88506979777E+03  0.00000000000E+00 0. -1.
         -2   -1    0    0    0  501 -0.00000000000E+00 -0.00000000000E+00 -0.25748975923E+02  0.25748975923E+02  0.00000000000E+00 0.  1.
         25    2    1    2    0    0 -0.56089162143E+02 -0.88681442584E+02  0.44631501801E+03  0.47524210697E+03  0.12509025770E+03 0.  0.
          5    1    3    3  502    0 -0.58952068441E+02  0.13003391034E+02  0.14230322815E+03  0.15463542832E+03  0.41800000000E+01 0.  1.
         -5    1    3    3    0  502  0.28629062974E+01 -0.10168483362E+03  0.30401178986E+03  0.32060667865E+03  0.41800000000E+01 0.  1.
        -11    1    1    2    0    0  0.38859296368E+02  0.31526922194E+02  0.62696215556E+02  0.80217249905E+02  0.00000000000E+00 0.  1.
         11    1    1    2    0    0  0.17229865776E+02  0.57154520390E+02  0.35030958829E+03  0.35535941682E+03  0.00000000000E+00 0. -1.
</event>
<event>
 7    1  0.2719869E-009  0.8894043E+02  0.7561462E-02  0.1305438E+00
         -2   -1    0    0    0  501 -0.00000000000E+00  0.00000000000E+00  0.48509005469E+02  0.48509005469E+02  0.00000000000E+00 0.  1.
          2   -1    0    0  501    0  0.00000000000E+00 -0.00000000000E+00 -0.28172354410E+03  0.28172354410E+03  0.00000000000E+00 0. -1.
         25    2    1    2    0    0 -0.59781476913E+02  0.14585427298E+02 -0.11521563677E+03  0.18086332702E+03  0.12510132067E+03 0.  0.
          5    1    3    3  502    0  0.77244090220E+01  0.16672555403E+02  0.21335182930E+02  0.28465822122E+02  0.41800000000E+01 0. -1.
         -5    1    3    3    0  502 -0.67505885935E+02 -0.20871281059E+01 -0.13655081970E+03  0.15239750490E+03  0.41800000000E+01 0. -1.
        -11    1    1    2    0    0  0.45086322258E+02 -0.41129990183E+02 -0.73917057926E+02  0.95855015517E+02  0.00000000000E+00 0.  1.
         11    1    1    2    0    0  0.14695154654E+02  0.26544562886E+02 -0.44081843937E+02  0.53514207029E+02  0.00000000000E+00 0. -1.
</event>
<event>
 7    1  0.2719869E-009  0.6015778E+02  0.7561462E-02  0.1397171E+00
          2   -1    0    0  501    0  0.00000000000E+00  0.00000000000E+00  0.41189092314E+03  0.41189092314E+03  0.00000000000E+00 0. -1.
         -2   -1    0    0    0  501 -0.00000000000E+00 -0.00000000000E+00 -0.33387898565E+02  0.33387898565E+02  0.00000000000E+00 0.  1.
         25    2    1    2    0    0 -0.83797365044E+00  0.35010195796E+01  0.30712968577E+03  0.33164514683E+03  0.12508757012E+03 0.  0.
          5    1    3    3  502    0 -0.24557528978E+02  0.14514161157E+02  0.61204740435E+01  0.29473135329E+02  0.41800000000E+01 0.  1.
         -5    1    3    3    0  502  0.23719555327E+02 -0.11013141577E+02  0.30100921172E+03  0.30217201150E+03  0.41800000000E+01 0.  1.
        -11    1    1    2    0    0  0.19620837440E+02  0.24435280195E+02 -0.35078747970E+01  0.31533559356E+02  0.00000000000E+00 0.  1.
         11    1    1    2    0    0 -0.18782863790E+02 -0.27936299774E+02  0.74881213603E+02  0.82100115517E+02  0.00000000000E+00 0. -1.
</event>
<event>
 6    1  0.2719869E-009  0.1226536E+03  0.7561462E-02  0.1238782E+00
         -1   -1    0    0    0  501 -0.00000000000E+00  0.00000000000E+00  0.15807567459E+03  0.15807567459E+03  0.00000000000E+00 0.  1.
          1   -1    0    0  501    0  0.00000000000E+00 -0.00000000000E+00 -0.10813735627E+03  0.10813735627E+03  0.00000000000E+00 0. -1.
          5    1    1    2  502    0 -0.28737532129E+02  0.16983350124E+02 -0.15407822508E+02  0.37002071952E+02  0.41800000000E+01 0. -1.
         -5    1    1    2    0  502  0.93835643505E+02 -0.45094256153E+02  0.26822656865E+02  0.10758971722E+03  0.41800000000E+01 0. -1.
        -11    1    1    2    0    0 -0.58663551020E+02 -0.17650690844E+02 -0.30551593332E+00  0.61262161613E+02  0.00000000000E+00 0. -1.
         11    1    1    2    0    0 -0.64345603555E+01  0.45761596873E+02  0.38828999896E+02  0.60359080081E+02  0.00000000000E+00 0.  1.
</event>
<event>
 7    1  0.2719869E-009  0.1299114E+03  0.7561462E-02  0.1227587E+00
          1   -1    0    0  501    0  0.00000000000E+00  0.00000000000E+00  0.26838042373E+03  0.26838042373E+03  0.00000000000E+00 0. -1.
         -1   -1    0    0    0  501 -0.00000000000E+00 -0.00000000000E+00 -0.15976932418E+03  0.15976932418E+03  0.00000000000E+00 0.  1.
         25    2    1    2    0    0  0.64428796333E+02 -0.62252489829E+02  0.21144604932E+03  0.26149501147E+03  0.12507504533E+03 0.  0.
          5    1    3    3  502    0  0.86856507994E+02 -0.21416640707E+02  0.73568398404E+02  0.11589869337E+03  0.41800000000E+01 0.  1.
         -5    1    3    3    0  502 -0.22427711661E+02 -0.40835849122E+02  0.13787765091E+03  0.14559631810E+03  0.41800000000E+01 0.  1.
        -11    1    1    2    0    0 -0.40363159651E+01 -0.20584380855E+02 -0.43283465188E+02  0.48098512872E+02  0.00000000000E+00 0.  1.
         11    1    1    2    0    0 -0.60392480368E+02  0.82836870684E+02 -0.59551484578E+02  0.11855622356E+03  0.00000000000E+00 0. -1.
</event>
<event>
 7    1  0.2719869E-009  0.9429544E+02  0.7561462E-02  0.1292771E+00
          2   -1    0    0  501    0  0.00000000000E+00  0.00000000000E+00  0.12553007021E+03  0.12553007021E+03  0.00000000000E+00 0. -1.
         -2   -1    0    0    0  501 -0.00000000000E+00 -0.00000000000E+00 -0.11521475404E+03  0.11521475404E+03  0.00000000000E+00 0.  1.
         25    2    1    2    0    0 -0.25490343472E+02 -0.40085319360E+02  0.31807954061E+02  0.13753461457E+03  0.12508970311E+03 0.  0.
          5    1    3    3  502    0 -0.44331826679E+02 -0.61464384877E+02 -0.19795185679E+02  0.78437894165E+02  0.41800000000E+01 0. -1.
         -5    1    3    3    0  502  0.18841483207E+02  0.21379065517E+02  0.51603139739E+02  0.59096720406E+02  0.41800000000E+01 0. -1.
        -11    1    1    2    0    0  0.48686636210E+02  0.35475321593E+02 -0.40735718982E+02  0.72720600854E+02  0.00000000000E+00 0.  1.
         11    1    1    2    0    0 -0.23196292738E+02  0.46099977664E+01  0.19243081090E+02  0.30489608821E+02  0.00000000000E+00 0. -1.
</event>
<event>
 7    1  0.2719869E-009  0.2041022E+03  0.7561462E-02  0.1146323E+00
          1   -1    0    0  501    0  0.00000000000E+00  0.00000000000E+00  0.28390409385E+03  0.28390409385E+03  0.00000000000E+00 0. -1.
         -1   -1    0    0    0  501 -0.00000000000E+00 -0.00000000000E+00 -0.16761515902E+03  0.16761515902E+03  0.00000000000E+00 0.  1.
         25    2    1    2    0    0 -0.18016110718E+03  0.55275025611E+02  0.74978704539E+02  0.23828500748E+03  0.12507831810E+03 0.  0.
          5    1    3    3  502    0 -0.13678167926E+03 -0.71766468708E+01  0.85331908080E+02  0.16143029139E+03  0.41800000000E+01 0. -1.
         -5    1    3    3    0  502 -0.43379427926E+02  0.62451672482E+02 -0.10353203541E+02  0.76854716098E+02  0.41800000000E+01 0. -1.
        -11    1    1    2    0    0  0.10902945785E+03 -0.58653292877E+02 -0.11846816102E+02  0.12437032804E+03  0.00000000000E+00 0.  1.
         11    1    1    2    0    0  0.71131649331E+02  0.33782672660E+01  0.53157046394E+02  0.88863917355E+02  0.00000000000E+00 0. -1.
</event>
<event>
 7    1  0.2719869E-009  0.1240178E+03  0.7561462E-02  0.1236612E+00
          3   -1    0    0  501    0  0.00000000000E+00  0.00000000000E+00  0.28518907906E+03  0.28518907906E+03  0.00000000000E+00 0. -1.
         -3   -1    0    0    0  501 -0.00000000000E+00 -0.00000000000E+00 -0.64396915360E+02  0.64396915360E+02  0.00000000000E+00 0.  1.
         25    2    1    2    0    0 -0.50901388825E+01  0.79143858230E+02  0.10004769500E+03  0.17874808200E+03  0.12510665744E+03 0.  0.
          5    1    3    3  502    0  0.46103245813E+02  0.39855328673E+01  0.43475310247E+01  0.46666553041E+02  0.41800000000E+01 0. -1.
         -5    1    3    3    0  502 -0.51193384695E+02  0.75158325363E+02  0.95700163976E+02  0.13208152896E+03  0.41800000000E+01 0. -1.
        -11    1    1    2    0    0  0.39768272290E+02 -0.27569539221E+02  0.88396192540E+02  0.10077441059E+03  0.00000000000E+00 0. -1.
         11    1    1    2    0    0 -0.34678133407E+02 -0.51574319009E+02  0.32348276155E+02  0.70063501825E+02  0.00000000000E+00 0.  1.
</event>
<event>
 7    1  0.2719869E-009  0.1174248E+03  0.7561462E-02  0.1247407E+00
         -1   -1    0    0    0  501 -0.00000000000E+00  0.00000000000E+00  0.65594253163E+02  0.65594253163E+02  0.00000000000E+00 0.  1.
          1   -1    0    0  501    0  0.00000000000E+00 -0.00000000000E+00 -0.90913514549E+03  0.90913514549E+03  0.00000000000E+00 0. -1.
         25    2    1    2    0    0  0.23334674688E+02 -0.69052861616E+02 -0.84477210068E+03  0.85708874407E+03  0.12509359845E+03 0.  0.
          5    1    3    3  502    0 -0.35423953879E+02 -0.59090983294E+02 -0.64196792251E+03  0.64566778357E+03  0.41800000000E+01 0. -1.
         -5    1    3    3    0  502  0.58758628567E+02 -0.99618783225E+01 -0.20280417817E+03  0.21142096049E+03  0.41800000000E+01 0. -1.
        -11    1    1    2    0    0 -0.61831482474E+01 -0.17129488817E+02  0.20768838843E+02  0.27622370939E+02  0.00000000000E+00 0.  1.
         11    1    1    2    0    0 -0.17151526440E+02  0.86182350433E+02 -0.19537630483E+02  0.90018283645E+02  0.00000000000E+00 0. -1.
</event>
<event>
 7    1  0.3159313E-009  0.1835654E+03  0.7561462E-02  0.1164396E+00
          2   -1    0    0  501    0  0.00000000000E+00  0.00000000000E+00  0.13965617595E+04  0.13965617595E+04  0.00000000000E+00 0. -1.
         -2   -1    0    0    0  501 -0.00000000000E+00 -0.00000000000E+00 -0.25867498275E+02  0.25867498275E+02  0.00000000000E+00 0.  1.
         25    2    1    2    0    0  0.10053887279E+03 -0.11904358503E+03  0.71737924690E+03  0.74468980679E+03  0.12510189599E+03 0.  0.
          5    1    3    3  502    0 -0.14107753863E+02  0.90553724683E+01  0.17144388777E+03  0.17231223852E+03  0.41800000000E+01 0. -1.
         -5    1    3    3    0  502  0.11464662666E+03 -0.12809895750E+03  0.54593535913E+03  0.57237756827E+03  0.41800000000E+01 0. -1.
        -11    1    1    2    0    0 -0.18419340300E+02  0.88309634071E+02  0.27592088806E+03  0.29029330002E+03  0.00000000000E+00 0.  1.
         11    1    1    2    0    0 -0.82119532493E+02  0.30733950959E+02  0.37739412627E+03  0.38744615097E+03  0.00000000000E+00 0. -1.
</event>
<event>
 7    1  0.2719869E-009  0.1904109E+03  0.7561462E-02  0.1158091E+00
          2   -1    0    0  501    0  0.00000000000E+00  0.00000000000E+00  0.12252340125E+03  0.12252340125E+03  0.00000000000E+00 0. -1.
         -2   -1    0    0    0  501 -0.00000000000E+00 -0.00000000000E+00 -0.34555250726E+03  0.34555250726E+03  0.00000000000E+00 0.  1.
         25    2    1    2    0    0 -0.10773717720E+03  0.12007756883E+03 -0.19086874292E+03  0.27946944410E+03  0.12508545588E+03 0.  0.
          5    1    3    3  502    0  0.66810810980E+01  0.72731224243E+02 -0.37191737051E+02  0.82068054256E+02  0.41800000000E+01 0.  1.
         -5    1    3    3    0  502 -0.11441825830E+03  0.47346344589E+02 -0.15367700587E+03  0.19740138984E+03  0.41800000000E+01 0.  1.
        -11    1    1    2    0    0  0.74882294822E+02 -0.18676807681E+02  0.32003235273E+00  0.77176963166E+02  0.00000000000E+00 0. -1.
         11    1    1    2    0    0  0.32854882380E+02 -0.10140076115E+03 -0.32480395440E+02  0.11142950124E+03  0.00000000000E+00 0.  1.
</event>
<event>
 7    1  0.2719869E-009  0.1114509E+03  0.7561462E-02  0.1257906E+00
          2   -1    0    0  501    0  0.00000000000E+00  0.00000000000E+00  0.26620849126E+03  0.26620849126E+03  0.00000000000E+00 0.  1.
         -2   -1    0    0    0  501 -0.00000000000E+00 -0.00000000000E+00 -0.14976335186E+03  0.14976335186E+03  0.00000000000E+00 0. -1.
         25    2    1    2    0    0  0.35170219960E+02 -0.47505385322E+02 -0.10204645583E+03  0.17191369625E+03  0.12508850389E+03 0.  0.
          5    1    3    3  502    0 -0.84034292360E+01  0.32261007510E+02  0.20451739829E+01  0.33660739224E+02  0.41800000000E+01 0. -1.
         -5    1    3    3    0  502  0.43573649196E+02 -0.79766392832E+02 -0.10409162982E+03  0.13825295703E+03  0.41800000000E+01 0. -1.
        -11    1    1    2    0    0  0.12970201283E+02 -0.14734849997E+02  0.99401921622E+02  0.10132168548E+03  0.00000000000E+00 0.  1.
         11    1    1    2    0    0 -0.48140421244E+02  0.62240235319E+02  0.11908967361E+03  0.14273646139E+03  0.00000000000E+00 0. -1.
</event>
<event>
 7    1  0.2719869E-009  0.1387025E+03  0.7561462E-02  0.1215086E+00
          2   -1    0    0  501    0  0.00000000000E+00  0.00000000000E+00  0.36355107911E+03  0.36355107911E+03  0.00000000000E+00 0. -1.
         -2   -1    0    0    0  501 -0.00000000000E+00 -0.00000000000E+00 -0.73236521288E+02  0.73236521288E+02  0.00000000000E+00 0.  1.
         25    2    1    2    0    0  0.64467622911E+02  0.29907829605E+02  0.20575570818E+03  0.25106316018E+03  0.12508695486E+03 0.  0.
          5    1    3    3  502    0  0.13854939001E+02 -0.48139606658E+02  0.62537763906E+02  0.80236060336E+02  0.41800000000E+01 0. -1.
         -5    1    3    3    0  502  0.50612683910E+02  0.78047436263E+02  0.14321794427E+03  0.17082709984E+03  0.41800000000E+01 0. -1.
        -11    1    1    2    0    0 -0.93394821535E+02 -0.13964044697E+01  0.16710500675E+01  0.93420206826E+02  0.00000000000E+00 0.  1.
         11    1    1    2    0    0  0.28927198624E+02 -0.28511425135E+02  0.82887799580E+02  0.92304233396E+02  0.00000000000E+00 0. -1.
</event>
<event>
 7    1  0.2719869E-009  0.9470543E+02  0.7561462E-02  0.1291841E+00
          1   -1    0    0  501    0  0.00000000000E+00  0.00000000000E+00  0.13435877232E+03  0.13435877232E+03  0.00000000000E+00 0.  1.
         -1   -1    0    0    0  501 -0.00000000000E+00 -0.00000000000E+00 -0.99226323014E+02  0.99226323014E+02  0.00000000000E+00 0. -1.
         25    2    1    2    0    0  0.23382688594E+02  0.23360222913E+02  0.42666578087E+02  0.13623878931E+03  0.12509244856E+03 0.  0.
          5    1    3    3  502    0  0.60275801372E+02  0.20092855742E+02  0.66443719118E+02  0.92027904970E+02  0.41800000000E+01 0.  1.
         -5    1    3    3    0  502 -0.36893112778E+02  0.32673671711E+01 -0.23777141031E+02  0.44210884342E+02  0.41800000000E+01 0.  1.
        -11    1    1    2    0    0  0.19062476193E+02 -0.38855125317E+02  0.16316546035E+02  0.46252874900E+02  0.00000000000E+00 0.  1.
         11    1    1    2    0    0 -0.42445164787E+02  0.15494902404E+02 -0.23850674819E+02  0.51093431120E+02  0.00000000000E+00 0. -1.
</event>
<event>
 7    1  0.2719869E-009  0.1110803E+03  0.7561462E-02  0.1258582E+00
         -3   -1    0    0    0  501 -0.00000000000E+00  0.00000000000E+00  0.34101675722E+03  0.34101675722E+03  0.00000000000E+00 0.  1.
          3   -1    0    0  501    0  0.00000000000E+00 -0.00000000000E+00 -0.56262605286E+02  0.56262605286E+02  0.00000000000E+00 0. -1.
         25    2    1    2    0    0  0.75186930939E+02 -0.29343918956E+02  0.11453233652E+03  0.18782694959E+03  0.12508863546E+03 0.  0.
          5    1    3    3  502    0  0.40044047511E+02  0.38313625548E+02  0.93258996723E+02  0.10856414009E+03  0.41800000000E+01 0.  1.
         -5    1    3    3    0  502  0.35142883428E+02 -0.67657544505E+02  0.21273339802E+02  0.79262809503E+02  0.41800000000E+01 0.  1.
        -11    1    1    2    0    0 -0.53095461567E+02 -0.49899503300E+00  0.23429819317E+02  0.58037345462E+02  0.00000000000E+00 0. -1.
         11    1    1    2    0    0 -0.22091469372E+02  0.29842913989E+02  0.14679199609E+03  0.15141506745E+03  0.00000000000E+00 0.  1.
</event>
<event>
 7    1  0.2719869E-009  0.7855516E+02  0.7561462E-02  0.1333202E+00
         -2   -1    0    0    0  501 -0.00000000000E+00  0.00000000000E+00  0.38183747485E+02  0.38183747485E+02  0.00000000000E+00 0.  1.
          2   -1    0    0  501    0  0.00000000000E+00 -0.00000000000E+00 -0.35756102423E+03  0.35756102423E+03  0.00000000000E+00 0. -1.
         25    2    1    2    0    0 -0.13562156695E+02 -0.29626687148E+02 -0.22329609273E+03  0.25801411671E+03  0.12509383161E+03 0.  0.
          5    1    3    3  502    0  0.24213885822E+02 -0.24839747738E+02 -0.37379708227E+01  0.35139296523E+02  0.41800000000E+01 0. -1.
         -5    1    3    3    0  502 -0.37776042517E+02 -0.47869394101E+01 -0.21955812191E+03  0.22287482019E+03  0.41800000000E+01 0. -1.
        -11    1    1    2    0    0 -0.32189505002E+02  0.16993366790E+02 -0.79529567530E+02  0.87463654501E+02  0.00000000000E+00 0. -1.
         11    1    1    2    0    0  0.45751661697E+02  0.12633320358E+02 -0.16551616481E+02  0.50267000502E+02  0.00000000000E+00 0.  1.
</event>
<event>
 7    1  0.2719869E-009  0.9500644E+02  0.7561462E-02  0.1291162E+00
          1   -1    0    0  501    0  0.00000000000E+00  0.00000000000E+00  0.83296006403E+02  0.83296006403E+02  0.00000000000E+00 0. -1.
         -1   -1    0    0    0  501 -0.00000000000E+00 -0.00000000000E+00 -0.24245744667E+03  0.24245744667E+03  0.00000000000E+00 0.  1.
         25    2    1    2    0    0 -0.42728955089E+02 -0.71831826439E+02 -0.13650935884E+03  0.20313092480E+03  0.12506715263E+03 0.  0.
          5    1    3    3  502    0 -0.46330752196E+01 -0.30951302920E+02  0.19672335449E+02  0.37201098377E+02  0.41800000000E+01 0.  1.
         -5    1    3    3    0  502 -0.38095879869E+02 -0.40880523519E+02 -0.15618169429E+03  0.16592982643E+03  0.41800000000E+01 0.  1.
        -11    1    1    2    0    0  0.55094144564E+02  0.39509648497E+02 -0.45050549666E+02  0.81399810287E+02  0.00000000000E+00 0.  1.
         11    1    1    2    0    0 -0.12365189475E+02  0.32322177942E+02  0.22398468246E+02  0.41222717977E+02  0.00000000000E+00 0. -1.
</event>
<event>
 7    1  0.2719869E-009  0.1311562E+03  0.7561462E-02  0.1225750E+00
          2   -1    0    0  501    0  0.00000000000E+00  0.00000000000E+00  0.20156809668E+03  0.20156809668E+03  0.00000000000E+00 0. -1.
         -2   -1    0    0    0  501 -0.00000000000E+00 -0.00000000000E+00 -0.13231025312E+03  0.13231025312E+03  0.00000000000E+00 0.  1.
         25    2    1    2    0    0  0.45716801084E+02  0.11088622929E+03  0.28742038951E+02  0.17566794932E+03  0.12508933554E+03 0.  0.
          5    1    3    3  502    0  0.12226362238E+02  0.14135260536E+02  0.64388354031E+02  0.67176052718E+02  0.41800000000E+01 0.  1.
         -5    1    3    3    0  502  0.33490438846E+02  0.96750968753E+02 -0.35646315080E+02  0.10849189660E+03  0.41800000000E+01 0.  1.
        -11    1    1    2    0    0 -0.15053746714E+02 -0.10893228391E+03  0.33904116113E+01  0.11001978303E+03  0.00000000000E+00 0.  1.
         11    1    1    2    0    0 -0.30663054371E+02 -0.19539453815E+01  0.37125392997E+02  0.48190617459E+02  0.00000000000E+00 0. -1.
</event>
<event>
 7    1  0.2719869E-009  0.1416324E+03  0.7561462E-02  0.1211149E+00
         -4   -1    0    0    0  501 -0.00000000000E+00  0.00000000000E+00  0.10793003428E+04  0.10793003428E+04  0.00000000000E+00 0.  1.
          4   -1    0    0  501    0  0.00000000000E+00 -0.00000000000E+00 -0.19491839628E+02  0.19491839628E+02  0.00000000000E+00 0. -1.
         25    2    1    2    0    0 -0.28587536557E+02 -0.88749573451E+02  0.62678841919E+03  0.64591408177E+03  0.12509014572E+03 0.  0.
          5    1    3    3  502    0 -0.75885994556E+02 -0.51715813567E+02  0.30549829560E+03  0.31902960765E+03  0.41800000000E+01 0.  1.
         -5    1    3    3    0  502  0.47298457999E+02 -0.37033759883E+02  0.32129012359E+03  0.32688447412E+03  0.41800000000E+01 0.  1.
        -11    1    1    2    0    0 -0.27595978646E+02  0.64059645963E+02  0.19597120242E+03  0.20801415446E+03  0.00000000000E+00 0.  1.
         11    1    1    2    0    0  0.56183515203E+02  0.24689927487E+02  0.23704888151E+03  0.24486394615E+03  0.00000000000E+00 0. -1.
</event>
<event>
 7    1  0.2719869E-009  0.1233141E+03  0.7561462E-02  0.1237728E+00
         -2   -1    0    0    0  501 -0.00000000000E+00  0.00000000000E+00  0.65897330143E+02  0.65897330143E+02  0.00000000000E+00 0.  1.
          2   -1    0    0  501    0  0.00000000000E+00 -0.00000000000E+00 -0.36976858933E+03  0.36976858933E+03  0.00000000000E+00 0. -1.
         25    2    1    2    0    0  0.36542313226E+02  0.10533190064E+03 -0.15906652590E+03  0.23104010885E+03  0.12508885757E+03 0.  0.
          5    1    3    3  502    0  0.40640032361E+02  0.32373744056E+02 -0.14813133635E+03  0.15703514493E+03  0.41800000000E+01 0. -1.
         -5    1    3    3    0  502 -0.40977191359E+01  0.72958156588E+02 -0.10935189550E+02  0.74004963923E+02  0.41800000000E+01 0. -1.
        -11    1    1    2    0    0 -0.47991647381E+02 -0.91766282269E+02 -0.63655477246E+02  0.12155767587E+03  0.00000000000E+00 0.  1.
         11    1    1    2    0    0  0.11449334156E+02 -0.13565618374E+02 -0.81149256040E+02  0.83068134747E+02  0.00000000000E+00 0. -1.
</event>
<event>
 7    1  0.2719869E-009  0.2753387E+03  0.7561462E-02  0.1098262E+00
          2   -1    0    0  501    0  0.00000000000E+00  0.00000000000E+00  0.20218862197E+03  0.20218862197E+03  0.00000000000E+00 0. -1.
         -2   -1    0    0    0  501 -0.00000000000E+00 -0.00000000000E+00 -0.56466381347E+03  0.56466381347E+03  0.00000000000E+00 0.  1.
         25    2    1    2    0    0 -0.25481408225E+03  0.81028992283E+02 -0.38355868928E+03  0.48400442864E+03  0.12508838762E+03 0.  0.
          5    1    3    3  502    0 -0.66111754600E+02 -0.12981413466E+02 -0.17436557231E+03  0.18697621880E+03  0.41800000000E+01 0.  1.
         -5    1    3    3    0  502 -0.18870232765E+03  0.94010405750E+02 -0.20919311698E+03  0.29702820984E+03  0.41800000000E+01 0.  1.
        -11    1    1    2    0    0  0.12271736267E+02 -0.17869807218E+02  0.23812936721E+02  0.32202196762E+02  0.00000000000E+00 0. -1.
         11    1    1    2    0    0  0.24254234598E+03 -0.63159185065E+02 -0.27294389444E+01  0.25064581004E+03  0.00000000000E+00 0.  1.
</event>
<event>
 7    1  0.2719869E-009  0.1556598E+03  0.7561462E-02  0.1193686E+00
          3   -1    0    0  501    0  0.00000000000E+00  0.00000000000E+00  0.10860758884E+03  0.10860758884E+03  0.00000000000E+00 0. -1.
         -3   -1    0    0    0  501 -0.00000000000E+00 -0.00000000000E+00 -0.38437698838E+03  0.38437698838E+03  0.00000000000E+00 0.  1.
         25    2    1    2    0    0  0.68762438399E+02 -0.12816683380E+03 -0.25842707295E+03  0.32186484519E+03  0.12512959806E+03 0.  0.
          5    1    3    3  502    0  0.86456969022E+01 -0.13873104402E+02 -0.15619742140E+03  0.15710607229E+03  0.41800000000E+01 0. -1.
         -5    1    3    3    0  502  0.60116741497E+02 -0.11429372939E+03 -0.10222965156E+03  0.16475877289E+03  0.41800000000E+01 0. -1.
        -11    1    1    2    0    0 -0.82188354954E+02  0.12762907921E+03 -0.27502579511E+02  0.15427410486E+03  0.00000000000E+00 0.  1.
         11    1    1    2    0    0  0.13425916555E+02  0.53775458424E+00  0.10160252924E+02  0.16845627172E+02  0.00000000000E+00 0. -1.
</event>
<event>
 7    1  0.2719869E-009  0.1009207E+03  0.7561462E-02  0.1278372E+00
          1   -1    0    0  501    0  0.00000000000E+00  0.00000000000E+00  0.92725514918E+03  0.92725514918E+03  0.00000000000E+00 0. -1.
         -1   -1    0    0    0  501 -0.00000000000E+00 -0.00000000000E+00 -0.16807617527E+02  0.16807617527E+02  0.00000000000E+00 0.  1.
         25    2    1    2    0    0 -0.72586088813E+01 -0.57704924104E+02  0.59902159972E+03  0.61469798625E+03  0.12507674323E+03 0.  0.
          5    1    3    3  502    0  0.28353348398E+02 -0.59272161263E+00  0.45245457667E+03  0.45336175405E+03  0.41800000000E+01 0.  1.
         -5    1    3    3    0  502 -0.35611957280E+02 -0.57112202491E+02  0.14656702306E+03  0.16133623221E+03  0.41800000000E+01 0.  1.
        -11    1    1    2    0    0  0.43486809118E+02  0.53985183517E+02  0.17693699966E+03  0.19003211428E+03  0.00000000000E+00 0.  1.
         11    1    1    2    0    0 -0.36228200237E+02  0.37197405864E+01  0.13448893227E+03  0.13933266618E+03  0.00000000000E+00 0. -1.
</event>
<event>
 7    1  0.2719869E-009  0.1338125E+03  0.7561462E-02  0.1221906E+00
         -4   -1    0    0    0  501 -0.00000000000E+00  0.00000000000E+00  0.94968357054E+02  0.94968357054E+02  0.00000000000E+00 0.  1.
          4   -1    0    0  501    0  0.00000000000E+00 -0.00000000000E+00 -0.30883723998E+03  0.30883723998E+03  0.00000000000E+00 0. -1.
         25    2    1    2    0    0  0.11417406031E+03  0.44949222079E+02 -0.56166363957E+02  0.18400763135E+03  0.12509196354E+03 0.  0.
          5    1    3    3  502    0  0.37752538009E+02 -0.84173362136E+01  0.35892899100E+02  0.52932771332E+02  0.41800000000E+01 0.  1.
         -5    1    3    3    0  502  0.76421522297E+02  0.53366558292E+02 -0.92059263058E+02  0.13107486002E+03  0.41800000000E+01 0.  1.
        -11    1    1    2    0    0 -0.47524444267E+02  0.10553625557E+02 -0.11118876995E+03  0.12137913486E+03  0.00000000000E+00 0. -1.
         11    1    1    2    0    0 -0.66649616039E+02 -0.55502847636E+02 -0.46513749021E+02  0.98418830829E+02  0.00000000000E+00 0.  1.
</event>
<event>
 7    1  0.2719869E-009  0.3232881E+03  0.7561462E-02  0.1074146E+00
          1   -1    0    0  501    0  0.00000000000E+00  0.00000000000E+00  0.12222298722E+04  0.12222298722E+04  0.00000000000E+00 0. -1.
         -1   -1    0    0    0  501 -0.00000000000E+00 -0.00000000000E+00 -0.94113612175E+02  0.94113612175E+02  0.00000000000E+00 0.  1.
         25    2    1    2    0    0  0.27141147158E+03  0.14921856068E+03  0.41379391333E+03  0.53179174017E+03  0.12508671572E+03 0.  0.
          5    1    3    3  502    0  0.14321160556E+03  0.12862903697E+03  0.17617385181E+03  0.26097833546E+03  0.41800000000E+01 0. -1.
         -5    1    3    3    0  502  0.12819986602E+03  0.20589523715E+02  0.23762006152E+03  0.27081340471E+03  0.41800000000E+01 0. -1.
        -11    1    1    2    0    0 -0.10153299306E+03 -0.56262022156E+01  0.24057990424E+03  0.26118823319E+03  0.00000000000E+00 0.  1.
         11    1    1    2    0    0 -0.16987847852E+03 -0.14359235847E+03  0.47374244245E+03  0.52336351101E+03  0.00000000000E+00 0. -1.
</event>
<event>
 7    1  0.2719869E-009  0.1030483E+03  0.7561462E-02  0.1274013E+00
         -2   -1    0    0    0  501 -0.00000000000E+00  0.00000000000E+00  0.79764474205E+03  0.79764474205E+03  0.00000000000E+00 0.  1.
          2   -1    0    0  501    0  0.00000000000E+00 -0.00000000000E+00 -0.31329934889E+02  0.31329934889E+02  0.00000000000E+00 0. -1.
         25    2    1    2    0    0 -0.48011211461E+02  0.45085495977E+02  0.65353829747E+03  0.66865342753E+03  0.12508925419E+03 0.  0.
          5    1    3    3  502    0 -0.88493953670E+02  0.15562560678E+02  0.45841468115E+03  0.46715614673E+03  0.41800000000E+01 0. -1.
         -5    1    3    3    0  502  0.40482742209E+02  0.29522935299E+02  0.19512361632E+03  0.20149728080E+03  0.41800000000E+01 0. -1.
        -11    1    1    2    0    0  0.16123974059E+02 -0.14519122361E+02  0.11408562742E+03  0.11613060680E+03  0.00000000000E+00 0.  1.
         11    1    1    2    0    0  0.31887237402E+02 -0.30566373616E+02 -0.13091177197E+01  0.44190642611E+02  0.00000000000E+00 0. -1.
</event>
<event>
 7    1  0.2719869E-009  0.9585301E+02  0.7561462E-02  0.1289266E+00
          2   -1    0    0  501    0  0.00000000000E+00  0.00000000000E+00  0.93973426027E+03  0.93973426027E+03  0.00000000000E+00 0. -1.
         -2   -1    0    0    0  501 -0.00000000000E+00 -0.00000000000E+00 -0.15592637800E+02  0.15592637800E+02  0.00000000000E+00 0.  1.
         25    2    1    2    0    0  0.15915777426E+02  0.98097040800E+01  0.70861256462E+03  0.71981507233E+03  0.12510966929E+03 0.  0.
          5    1    3    3  502    0  0.64337665274E+02 -0.21633166643E+02  0.34741557813E+03  0.35400901881E+03  0.41800000000E+01 0. -1.
         -5    1    3    3    0  502 -0.48421887848E+02  0.31442870723E+02  0.36119698648E+03  0.36580605351E+03  0.41800000000E+01 0. -1.
        -11    1    1    2    0    0  0.23522618412E+02 -0.11818004792E+02  0.13357160630E+02  0.29519358975E+02  0.00000000000E+00 0.  1.
         11    1    1    2    0    0 -0.39438395838E+02  0.20083007124E+01  0.20217189723E+03  0.20599246677E+03  0.00000000000E+00 0. -1.
</event>
<event>
 7    1  0.2719869E-009  0.2612505E+03  0.7561462E-02  0.1106394E+00
         -1   -1    0    0    0  501 -0.00000000000E+00  0.00000000000E+00  0.12060862254E+03  0.12060862254E+03  0.00000000000E+00 0.  1.
          1   -1    0    0  501    0  0.00000000000E+00 -0.00000000000E+00 -0.57416108603E+03  0.57416108603E+03  0.00000000000E+00 0. -1.
         25    2    1    2    0    0 -0.12165163881E+03 -0.20408572113E+03 -0.19197715631E+03  0.33008188682E+03  0.12509484670E+03 0.  0.
          5    1    3    3  502    0  0.24630717833E+02 -0.50449824020E+02 -0.42480379439E+02  0.70525967146E+02  0.41800000000E+01 0. -1.
         -5    1    3    3    0  502 -0.14628235664E+03 -0.15363589711E+03 -0.14949677687E+03  0.25955591968E+03  0.41800000000E+01 0. -1.
        -11    1    1    2    0    0 -0.11956130415E+02  0.43565165105E+02 -0.42821692874E+02  0.62246044418E+02  0.00000000000E+00 0.  1.
         11    1    1    2    0    0  0.13360776922E+03  0.16052055602E+03 -0.21875361431E+03  0.30244177733E+03  0.00000000000E+00 0. -1.
</event>
<event>
 7    1  0.2719869E-009  0.1361149E+03  0.7561462E-02  0.1218654E+00
          2   -1    0    0  501    0  0.00000000000E+00  0.00000000000E+00  0.67071039215E+03  0.67071039215E+03  0.00000000000E+00 0. -1.
         -2   -1    0    0    0  501 -0.00000000000E+00 -0.00000000000E+00 -0.33228298507E+02  0.33228298507E+02  0.00000000000E+00 0.  1.
         25    2    1    2    0    0  0.23858516443E+02  0.10015206763E+03  0.32952999445E+03  0.36720182043E+03  0.12508994455E+03 0.  0.
          5    1    3    3  502    0  0.31314166521E+01  0.11195961338E+03  0.32332652364E+03  0.34220209538E+03  0.41800000000E+01 0.  1.
         -5    1    3    3    0  502  0.20727099791E+02 -0.11807545750E+02  0.62034708156E+01  0.24999725049E+02  0.41800000000E+01 0.  1.
        -11    1    1    2    0    0  0.26993385439E+02 -0.73955290765E+02  0.18917549032E+03  0.20490337729E+03  0.00000000000E+00 0. -1.
         11    1    1    2    0    0 -0.50851901882E+02 -0.26196776861E+02  0.11877660887E+03  0.13183349293E+03  0.00000000000E+00 0.  1.
</event>
<event>
 7    1  0.2719869E-009  0.1113606E+03  0.7561462E-02  0.1258071E+00
         -4   -1    0    0    0  501 -0.00000000000E+00  0.00000000000E+00  0.33000759862E+03  0.33000759862E+03  0.00000000000E+00 0. -1.
          4   -1    0    0  501    0  0.00000000000E+00 -0.00000000000E+00 -0.48078045241E+02  0.48078045241E+02  0.00000000000E+00 0.  1.
         25    2    1    2    0    0  0.16781193870E+02  0.56491687810E+02  0.21022737880E+03  0.25162503861E+03  0.12508672991E+03 0.  0.
          5    1    3    3  502    0  0.52635117294E+02  0.63558947190E+02  0.19505764739E+03  0.21183756406E+03  0.41800000000E+01 0. -1.
         -5    1    3    3    0  502 -0.35853923424E+02 -0.70672593803E+01  0.15169731408E+02  0.39787474550E+02  0.41800000000E+01 0. -1.
        -11    1    1    2    0    0  0.24678708397E+02  0.86009139702E+01  0.11365373197E+02  0.28498878524E+02  0.00000000000E+00 0.  1.
         11    1    1    2    0    0 -0.41459902267E+02 -0.65092601780E+02  0.60336801385E+02  0.97961726729E+02  0.00000000000E+00 0. -1.
</event>
<event>
 7    1  0.2719869E-009  0.1241309E+03  0.7561462E-02  0.1236434E+00
         -1   -1    0    0    0  501 -0.00000000000E+00  0.00000000000E+00  0.19054902972E+02  0.19054902972E+02  0.00000000000E+00 0.  1.
          1   -1    0    0  501    0  0.00000000000E+00 -0.00000000000E+00 -0.90686862176E+03  0.90686862176E+03  0.00000000000E+00 0. -1.
         25    2    1    2    0    0  0.47146409516E+02  0.51016095048E+02 -0.55599450173E+03  0.57411074832E+03  0.12509132462E+03 0.  0.
          5    1    3    3  502    0  0.81329425537E+02  0.13574868829E+02 -0.23433348168E+03  0.24845201862E+03  0.41800000000E+01 0.  1.
         -5    1    3    3    0  502 -0.34183016022E+02  0.37441226219E+02 -0.32166102005E+03  0.32565872970E+03  0.41800000000E+01 0.  1.
        -11    1    1    2    0    0 -0.74841814357E+02 -0.41298867382E+02 -0.27312568526E+03  0.28618968111E+03  0.00000000000E+00 0. -1.
         11    1    1    2    0    0  0.27695404842E+02 -0.97172276655E+01 -0.58693531791E+02  0.65623095302E+02  0.00000000000E+00 0.  1.
</event>
<event>
 7    1  0.2719869E-009  0.1147045E+03  0.7561462E-02  0.1252098E+00
         -1   -1    0    0    0  501 -0.00000000000E+00  0.00000000000E+00  0.40158599536E+02  0.40158599536E+02  0.00000000000E+00 0.  1.
          1   -1    0    0  501    0  0.00000000000E+00 -0.00000000000E+00 -0.35555677873E+03  0.35555677873E+03  0.00000000000E+00 0. -1.
         25    2    1    2    0    0  0.16825413621E+02 -0.41621116225E+02 -0.21349415663E+03  0.25147848456E+03  0.12508501677E+03 0.  0.
          5    1    3    3  502    0 -0.51573936125E+02 -0.20301597211E+02 -0.12997200441E+03  0.14135848071E+03  0.41800000000E+01 0. -1.
         -5    1    3    3    0  502  0.68399349746E+02 -0.21319519014E+02 -0.83522152214E+02  0.11012000385E+03  0.41800000000E+01 0. -1.
        -11    1    1    2    0    0 -0.22054316631E+02  0.69902133770E+02 -0.74418609989E+02  0.10445492186E+03  0.00000000000E+00 0. -1.
         11    1    1    2    0    0  0.52289030100E+01 -0.28281017545E+02 -0.27485412580E+02  0.39781971856E+02  0.00000000000E+00 0.  1.
</event>
<event>
 7    1  0.2719869E-009  0.1408465E+03  0.7561462E-02  0.1212194E+00
          1   -1    0    0  501    0  0.00000000000E+00  0.00000000000E+00  0.14382271147E+03  0.14382271147E+03  0.00000000000E+00 0. -1.
         -1   -1    0    0    0  501 -0.00000000000E+00 -0.00000000000E+00 -0.16154187702E+03  0.16154187702E+03  0.00000000000E+00 0.  1.
         25    2    1    2    0    0 -0.91966560325E+02  0.50941828826E+02  0.95332901991E+01  0.16367948440E+03  0.12508865596E+03 0.  0.
          5    1    3    3  502    0 -0.42448924336E+02 -0.40800756700E+02  0.17346878294E+01  0.59051625434E+02  0.41800000000E+01 0. -1.
         -5    1    3    3    0  502 -0.49517635990E+02  0.91742585527E+02  0.77986023696E+01  0.10462785897E+03  0.41800000000E+01 0. -1.
        -11    1    1    2    0    0  0.74663995089E+02 -0.62626546006E+02  0.11035716318E+02  0.98074377193E+02  0.00000000000E+00 0. -1.
         11    1    1    2    0    0  0.17302565236E+02  0.11684717179E+02 -0.38288172074E+02  0.43610726892E+02  0.00000000000E+00 0.  1.
</event>
<event>
 7    1  0.2719869E-009  0.1008479E+03  0.7561462E-02  0.1278523E+00
         -3   -1    0    0    0  501 -0.00000000000E+00  0.00000000000E+00  0.68009334155E+02  0.68009334155E+02  0.00000000000E+00 0.  1.
          3   -1    0    0  501    0  0.00000000000E+00 -0.00000000000E+00 -0.19164058147E+03  0.19164058147E+03  0.00000000000E+00 0. -1.
         25    2    1    2    0    0 -0.24814447660E+02 -0.30917809233E+02 -0.54437736332E+02  0.14206618092E+03  0.12509062668E+03 0.  0.
          5    1    3    3  502    0  0.39127178660E+02  0.22929035761E+02 -0.31188200428E+02  0.55198306466E+02  0.41800000000E+01 0.  1.
         -5    1    3    3    0  502 -0.63941626320E+02 -0.53846844994E+02 -0.23249535904E+02  0.86867874454E+02  0.41800000000E+01 0.  1.
        -11    1    1    2    0    0  0.39063815022E+02  0.72803915813E+00 -0.74169844886E+02  0.83831244625E+02  0.00000000000E+00 0. -1.
         11    1    1    2    0    0 -0.14249367362E+02  0.30189770075E+02  0.49763339035E+01  0.33752490078E+02  0.00000000000E+00 0.  1.
</event>
<event>
 7    1  0.2719869E-009  0.8848548E+02  0.7561462E-02  0.1306561E+00
         -1   -1    0    0    0  501 -0.00000000000E+00  0.00000000000E+00  0.71874267339E+02  0.71874267339E+02  0.00000000000E+00 0.  1.
          1   -1    0    0  501    0  0.00000000000E+00 -0.00000000000E+00 -0.19928475384E+03  0.19928475384E+03  0.00000000000E+00 0. -1.
         25    2    1    2    0    0 -0.41095802198E+02 -0.25469043679E+02 -0.72182454752E+02  0.15230662827E+03  0.12509782211E+03 0.  0.
          5    1    3    3  502    0 -0.79807039701E+02 -0.33112573299E+02 -0.23770446172E+02  0.89711273581E+02  0.41800000000E+01 0. -1.
         -5    1    3    3    0  502  0.38711237503E+02  0.76435296207E+01 -0.48412008580E+02  0.62595354690E+02  0.41800000000E+01 0. -1.
        -11    1    1    2    0    0  0.15782186074E+02  0.18922781323E+02 -0.79466743087E+02  0.83199232611E+02  0.00000000000E+00 0. -1.
         11    1    1    2    0    0  0.25313616124E+02  0.65462623555E+01  0.24238711335E+02  0.35653160298E+02  0.00000000000E+00 0.  1.
</event>
<event>
 7    1  0.2719869E-009  0.1243446E+03  0.7561462E-02  0.1236097E+00
         -1   -1    0    0    0  501 -0.00000000000E+00  0.00000000000E+00  0.42325182141E+02  0.42325182141E+02  0.00000000000E+00 0.  1.
          1   -1    0    0  501    0  0.00000000000E+00 -0.00000000000E+00 -0.55883957389E+03  0.55883957389E+03  0.00000000000E+00 0. -1.
         25    2    1    2    0    0 -0.69121948516E+02  0.58927152796E+01 -0.11470493787E+03  0.18334714043E+03  0.12508550385E+03 0.  0.
          5    1    3    3  502    0 -0.47644194086E+02  0.64090515051E+02 -0.54307620562E+02  0.96666195749E+02  0.41800000000E+01 0.  1.
         -5    1    3    3    0  502 -0.21477754430E+02 -0.58197799771E+02 -0.60397317306E+02  0.86680944684E+02  0.41800000000E+01 0.  1.
        -11    1    1    2    0    0  0.10457597223E+02  0.34019775079E+02 -0.70253872585E+02  0.78754765248E+02  0.00000000000E+00 0. -1.
         11    1    1    2    0    0  0.58664351293E+02 -0.39912490358E+02 -0.33155558130E+03  0.33906285035E+03  0.00000000000E+00 0.  1.
</event>
<event>
 7    1  0.2719869E-009  0.2518714E+03  0.7561462E-02  0.1112128E+00
         -1   -1    0    0    0  501 -0.00000000000E+00  0.00000000000E+00  0.37195305527E+02  0.37195305527E+02  0.00000000000E+00 0.  1.
          1   -1    0    0  501    0  0.00000000000E+00 -0.00000000000E+00 -0.19153067825E+04  0.19153067825E+04  0.00000000000E+00 0. -1.
         25    2    1    2    0    0  0.25962327763E+01 -0.23995905258E+03 -0.81029730921E+03  0.85429226952E+03  0.12508583093E+03 0.  0.
          5    1    3    3  502    0  0.35230032977E+02 -0.19377694123E+03 -0.72917428419E+03  0.75531666690E+03  0.41800000000E+01 0. -1.
         -5    1    3    3    0  502 -0.32633800201E+02 -0.46182111347E+02 -0.81123025023E+02  0.98975602614E+02  0.41800000000E+01 0. -1.
        -11    1    1    2    0    0 -0.21551963747E+02  0.22463608359E+03 -0.10184978844E+04  0.10431988294E+04  0.00000000000E+00 0. -1.
         11    1    1    2    0    0  0.18955730971E+02  0.15322968992E+02 -0.49316283346E+02  0.55010989070E+02  0.00000000000E+00 0.  1.
</event>
<event>
 7    1  0.2719869E-009  0.1817810E+03  0.7561462E-02  0.1166090E+00
         -4   -1    0    0    0  501 -0.00000000000E+00  0.00000000000E+00  0.60763888286E+03  0.60763888286E+03  0.00000000000E+00 0.  1.
          4   -1    0    0  501    0  0.00000000000E+00 -0.00000000000E+00 -0.10707827964E+03  0.10707827964E+03  0.00000000000E+00 0. -1.
         25    2    1    2    0    0 -0.15747548087E+03 -0.70177340303E+02  0.47187669360E+03  0.51772453806E+03  0.12509075577E+03 0.  0.
          5    1    3    3  502    0 -0.15590780401E+03 -0.51480544272E+02  0.47062608933E+03  0.49846151120E+03  0.41800000000E+01 0. -1.
         -5    1    3    3    0  502 -0.15676768537E+01 -0.18696796031E+02  0.12506042654E+01  0.19263026854E+02  0.41800000000E+01 0. -1.
        -11    1    1    2    0    0  0.70484632371E+02  0.36390738543E+01  0.48577188291E+02  0.85680041324E+02  0.00000000000E+00 0.  1.
         11    1    1    2    0    0  0.86990848496E+02  0.66538266449E+02 -0.19893278669E+02  0.11131258312E+03  0.00000000000E+00 0. -1.
</event>
<event>
 7    1  0.2719869E-009  0.9176431E+02  0.7561462E-02  0.1298635E+00
         -1   -1    0    0    0  501 -0.00000000000E+00  0.00000000000E+00  0.24318064317E+02  0.24318064317E+02  0.00000000000E+00 0.  1.
          1   -1    0    0  501    0  0.00000000000E+00 -0.00000000000E+00 -0.62685812832E+03  0.62685812832E+03  0.00000000000E+00 0. -1.
         25    2    1    2    0    0  0.10875027520E+01  0.55004348930E+02 -0.37810311465E+03  0.40203838894E+03  0.12508493038E+03 0.  0.
          5    1    3    3  502    0  0.38918966587E+02  0.13707310873E+02 -0.34706367717E+02  0.54079392486E+02  0.41800000000E+01 0.  1.
         -5    1    3    3    0  502 -0.37831463835E+02  0.41297038057E+02 -0.34339674694E+03  0.34795899646E+03  0.41800000000E+01 0.  1.
        -11    1    1    2    0    0 -0.24711838553E+02 -0.57058500549E+02 -0.21466609561E+03  0.22349022362E+03  0.00000000000E+00 0.  1.
         11    1    1    2    0    0  0.23624335801E+02  0.20541516191E+01 -0.97708537405E+01  0.25647580075E+02  0.00000000000E+00 0. -1.
</event>
<event>
 7    1  0.2719869E-009  0.7392536E+02  0.7561462E-02  0.1347232E+00
         -1   -1    0    0    0  501 -0.00000000000E+00  0.00000000000E+00  0.26330061332E+03  0.26330061332E+03  0.00000000000E+00 0.  1.
          1   -1    0    0  501    0  0.00000000000E+00 -0.00000000000E+00 -0.53355621001E+02  0.53355621001E+02  0.00000000000E+00 0. -1.
         25    2    1    2    0    0  0.49038266606E+02  0.27715751257E+00  0.15467686489E+03  0.20488444467E+03  0.12509146543E+03 0.  0.
          5    1    3    3  502    0 -0.20358504095E+02  0.41532681624E+01 -0.11923861957E+02  0.24318083998E+02  0.41800000000E+01 0. -1.
         -5    1    3    3    0  502  0.69396770700E+02 -0.38761106498E+01  0.16660072685E+03  0.18056636067E+03  0.41800000000E+01 0. -1.
        -11    1    1    2    0    0 -0.22026868732E+02  0.14369192587E+02  0.72093052373E+02  0.76740242651E+02  0.00000000000E+00 0.  1.
         11    1    1    2    0    0 -0.27011397874E+02 -0.14646350100E+02 -0.16824924945E+02  0.35031547008E+02  0.00000000000E+00 0. -1.
</event>
<event>
 7    1  0.2719869E-009  0.5969491E+02  0.7561462E-02  0.1399117E+00
          1   -1    0    0  501    0  0.00000000000E+00  0.00000000000E+00  0.20881351486E+03  0.20881351486E+03  0.00000000000E+00 0. -1.
         -1   -1    0    0    0  501 -0.00000000000E+00 -0.00000000000E+00 -0.62641570959E+02  0.62641570959E+02  0.00000000000E+00 0.  1.
         25    2    1    2    0    0 -0.21558461959E+02 -0.10265610507E+01  0.11991028327E+03  0.17461851106E+03  0.12508927715E+03 0.  0.
          5    1    3    3  502    0 -0.10570330776E+02  0.72905884815E+01  0.14503336772E+03  0.14566068353E+03  0.41800000000E+01 0.  1.
         -5    1    3    3    0  502 -0.10988131183E+02 -0.83171495321E+01 -0.25123084445E+02  0.28957827530E+02  0.41800000000E+01 0.  1.
        -11    1    1    2    0    0  0.22371526126E+02  0.43546653450E+02  0.47762580280E+01  0.49189519703E+02  0.00000000000E+00 0. -1.
         11    1    1    2    0    0 -0.81306416668E+00 -0.42520092399E+02  0.21485402597E+02  0.47647055058E+02  0.00000000000E+00 0.  1.
</event>
<event>
 7    1  0.2719869E-009  0.8677970E+02  0.7561462E-02  0.1310843E+00
         -1   -1    0    0    0  501 -0.00000000000E+00  0.00000000000E+00  0.50984724175E+03  0.50984724175E+03  0.00000000000E+00 0.  1.
          1   -1    0    0  501    0  0.00000000000E+00 -0.00000000000E+00 -0.33696175028E+02  0.33696175028E+02  0.00000000000E+00 0. -1.
         25    2    1    2    0    0 -0.48706896958E+02 -0.33807590086E+01  0.37884592555E+03  0.40193980969E+03  0.12509030324E+03 0.  0.
          5    1    3    3  502    0 -0.37317775638E+01 -0.45198092033E+02  0.29177600848E+03  0.29530916886E+03  0.41800000000E+01 0. -1.
         -5    1    3    3    0  502 -0.44975119394E+02  0.41817333024E+02  0.87069917075E+02  0.10663064084E+03  0.41800000000E+01 0. -1.
        -11    1    1    2    0    0  0.16747854100E+02  0.23380485841E+02  0.99759815796E+02  0.10382272672E+03  0.00000000000E+00 0.  1.
         11    1    1    2    0    0  0.31959042858E+02 -0.19999726833E+02 -0.24546746285E+01  0.37780880367E+02  0.00000000000E+00 0. -1.
</event>
<event>
 7    1  0.2719869E-009  0.1132499E+03  0.7561462E-02  0.1254667E+00
         -1   -1    0    0    0  501 -0.00000000000E+00  0.00000000000E+00  0.77364056895E+02  0.77364056895E+02  0.00000000000E+00 0.  1.
          1   -1    0    0  501    0  0.00000000000E+00 -0.00000000000E+00 -0.21986906056E+03  0.21986906056E+03  0.00000000000E+00 0. -1.
         25    2    1    2    0    0  0.30309433125E+02  0.46551365246E+02 -0.25217923681E+02  0.13917391774E+03  0.12509094436E+03 0.  0.
          5    1    3    3  502    0  0.63524857140E+02 -0.13790245558E+02  0.15520058781E+01  0.65157190467E+02  0.41800000000E+01 0. -1.
         -5    1    3    3    0  502 -0.33215424016E+02  0.60341610804E+02 -0.26769929560E+02  0.74016727269E+02  0.41800000000E+01 0. -1.
        -11    1    1    2    0    0 -0.48848339114E+02 -0.78938747523E+01 -0.23171932847E+02  0.54638923531E+02  0.00000000000E+00 0.  1.
         11    1    1    2    0    0  0.18538905989E+02 -0.38657490494E+02 -0.94115147141E+02  0.10342027619E+03  0.00000000000E+00 0. -1.
</event>
<event>
 7    1  0.2719869E-009  0.1590473E+03  0.7561462E-02  0.1189777E+00
          2   -1    0    0  501    0  0.00000000000E+00  0.00000000000E+00  0.10838447463E+04  0.10838447463E+04  0.00000000000E+00 0. -1.
         -2   -1    0    0    0  501 -0.00000000000E+00 -0.00000000000E+00 -0.25525411954E+02  0.25525411954E+02  0.00000000000E+00 0.  1.
         25    2    1    2    0    0 -0.60650792085E+00  0.12041314405E+03  0.67463394941E+03  0.69661969451E+03  0.12509332504E+03 0.  0.
          5    1    3    3  502    0 -0.53633602231E+02  0.30821055229E+02  0.16101973656E+03  0.17254370082E+03  0.41800000000E+01 0.  1.
         -5    1    3    3    0  502  0.53027094310E+02  0.89592088823E+02  0.51361421286E+03  0.52407599369E+03  0.41800000000E+01 0.  1.
        -11    1    1    2    0    0 -0.33903242205E+02 -0.87303295082E+01  0.98606090272E+02  0.10463655921E+03  0.00000000000E+00 0.  1.
         11    1    1    2    0    0  0.34509750126E+02 -0.11168281454E+03  0.28507929464E+03  0.30811390451E+03  0.00000000000E+00 0. -1.
</event>
<event>
 7    1  0.2719869E-009  0.9387561E+02  0.7561462E-02  0.1293729E+00
         -1   -1    0    0    0  501 -0.00000000000E+00  0.00000000000E+00  0.20654918291E+02  0.20654918291E+02  0.00000000000E+00 0.  1.
          1   -1    0    0  501    0  0.00000000000E+00 -0.00000000000E+00 -0.86864124644E+03  0.86864124644E+03  0.00000000000E+00 0. -1.
         25    2    1    2    0    0  0.33934755881E+02  0.41334659711E+02 -0.65628104953E+03  0.67023292126E+03  0.12508889242E+03 0.  0.
          5    1    3    3  502    0 -0.12379071224E+02 -0.85927715063E+01 -0.65913648479E+01  0.16970433615E+02  0.41800000000E+01 0.  1.
         -5    1    3    3    0  502  0.46313827106E+02  0.49927431217E+02 -0.64968968469E+03  0.65326248764E+03  0.41800000000E+01 0.  1.
        -11    1    1    2    0    0  0.60095651410E+01 -0.59642253655E+02 -0.88466423211E+02  0.10686262831E+03  0.00000000000E+00 0.  1.
         11    1    1    2    0    0 -0.39944321022E+02  0.18307593945E+02 -0.10323885541E+03  0.11220061517E+03  0.00000000000E+00 0. -1.
</event>
<event>
 7    1  0.2719869E-009  0.1156194E+03  0.7561462E-02  0.1250504E+00
          2   -1    0    0  501    0  0.00000000000E+00  0.00000000000E+00  0.20907891135E+03  0.20907891135E+03  0.00000000000E+00 0. -1.
         -2   -1    0    0    0  501 -0.00000000000E+00 -0.00000000000E+00 -0.12262335374E+03  0.12262335374E+03  0.00000000000E+00 0.  1.
         25    2    1    2    0    0  0.61006168872E+02 -0.74368148702E+02  0.11366003972E+03  0.19447550568E+03  0.12509893484E+03 0.  0.
          5    1    3    3  502    0  0.55430581775E+02 -0.74412633371E+02  0.13956623021E+03  0.16764842503E+03  0.41800000000E+01 0.  1.
         -5    1    3    3    0  502  0.55755870965E+01  0.44484668535E-01 -0.25906190488E+02  0.26827080645E+02  0.41800000000E+01 0.  1.
        -11    1    1    2    0    0 -0.84262848783E+02  0.64537033652E+02 -0.98615567815E+01  0.10659505945E+03  0.00000000000E+00 0.  1.
         11    1    1    2    0    0  0.23256679912E+02  0.98311150498E+01 -0.17342925333E+02  0.30631699965E+02  0.00000000000E+00 0. -1.
</event>
<event>
 7    1  0.2719869E-009  0.9946370E+02  0.7561462E-02  0.1281428E+00
          2   -1    0    0  501    0  0.00000000000E+00  0.00000000000E+00  0.30116004292E+03  0.30116004292E+03  0.00000000000E+00 0. -1.
         -2   -1    0    0    0  501 -0.00000000000E+00 -0.00000000000E+00 -0.48801004317E+02  0.48801004317E+02  0.00000000000E+00 0.  1.
         25    2    1    2    0    0  0.13412175162E+02  0.13381753433E+02  0.21508201385E+03  0.24953739739E+03  0.12509869003E+03 0.  0.
          5    1    3    3  502    0  0.46754080596E+01 -0.52615847532E+02  0.56304559239E+02  0.77317285539E+02  0.41800000000E+01 0. -1.
         -5    1    3    3    0  502  0.87367671026E+01  0.65997600965E+02  0.15877745462E+03  0.17222011185E+03  0.41800000000E+01 0. -1.
        -11    1    1    2    0    0  0.63395910271E+01 -0.43093123162E+02  0.46356049863E+02  0.63608891179E+02  0.00000000000E+00 0. -1.
         11    1    1    2    0    0 -0.19751766189E+02  0.29711369729E+02 -0.90790251109E+01  0.36814758667E+02  0.00000000000E+00 0.  1.
</event>
<event>
 7    1  0.2719869E-009  0.9408314E+02  0.7561462E-02  0.1293255E+00
          1   -1    0    0  501    0  0.00000000000E+00  0.00000000000E+00  0.36399187544E+02  0.36399187544E+02  0.00000000000E+00 0. -1.
         -1   -1    0    0    0  501 -0.00000000000E+00 -0.00000000000E+00 -0.42805567707E+03  0.42805567707E+03  0.00000000000E+00 0.  1.
         25    2    1    2    0    0  0.21377051524E+02  0.32995303033E+02 -0.24201094894E+03  0.27525134945E+03  0.12509331561E+03 0.  0.
          5    1    3    3  502    0  0.56937121221E+02  0.15197935695E+02 -0.22352504555E+03  0.23120063021E+03  0.41800000000E+01 0. -1.
         -5    1    3    3    0  502 -0.35560069697E+02  0.17797367338E+02 -0.18485903396E+02  0.44050719238E+02  0.41800000000E+01 0. -1.
        -11    1    1    2    0    0  0.30649244825E+02 -0.14287804569E+02 -0.12349926000E+03  0.12804524509E+03  0.00000000000E+00 0.  1.
         11    1    1    2    0    0 -0.52026296349E+02 -0.18707498465E+02 -0.26146280573E+02  0.61158270073E+02  0.00000000000E+00 0. -1.
</event>
<event>
 7    1  0.2719869E-009  0.1374402E+03  0.7561462E-02  0.1216815E+00
          1   -1    0    0  501    0  0.00000000000E+00  0.00000000000E+00  0.54107015936E+03  0.54107015936E+03  0.00000000000E+00 0. -1.
         -1   -1    0    0    0  501 -0.00000000000E+00 -0.00000000000E+00 -0.73356631906E+02  0.73356631906E+02  0.00000000000E+00 0.  1.
         25    2    1    2    0    0 -0.11625078298E+03  0.18061781982E+02  0.61175648604E+02  0.18228763846E+03  0.12508337476E+03 0.  0.
          5    1    3    3  502    0  0.11307241150E+02  0.88368184843E+01  0.51880799883E+02  0.53991044256E+02  0.41800000000E+01 0.  1.
         -5    1    3    3    0  502 -0.12755802413E+03  0.92249634980E+01  0.92948487203E+01  0.12829659420E+03  0.41800000000E+01 0.  1.
        -11    1    1    2    0    0  0.63896963412E+02  0.20328740560E+02  0.29981060466E+03  0.30721731444E+03  0.00000000000E+00 0. -1.
         11    1    1    2    0    0  0.52353819568E+02 -0.38390522543E+02  0.10672727420E+03  0.12492183837E+03  0.00000000000E+00 0.  1.
</event>
<event>
 7    1  0.2719869E-009  0.1129824E+03  0.7561462E-02  0.1255145E+00
          2   -1    0    0  501    0  0.00000000000E+00  0.00000000000E+00  0.17953415076E+03  0.17953415076E+03  0.00000000000E+00 0. -1.
         -2   -1    0    0    0  501 -0.00000000000E+00 -0.00000000000E+00 -0.11920477203E+03  0.11920477203E+03  0.00000000000E+00 0.  1.
         25    2    1    2    0    0 -0.82444455189E+02 -0.38156571350E+02 -0.48936644284E+01  0.15467091197E+03  0.12508449516E+03 0.  0.
          5    1    3    3  502    0 -0.24458433917E+02 -0.66070760617E+02  0.35061900833E+02  0.78805898816E+02  0.41800000000E+01 0.  1.
         -5    1    3    3    0  502 -0.57986021272E+02  0.27914189267E+02 -0.39955565261E+02  0.75865013153E+02  0.41800000000E+01 0.  1.
        -11    1    1    2    0    0  0.28356120439E+02  0.14734184680E+02 -0.22000281668E+02  0.38796625601E+02  0.00000000000E+00 0.  1.
         11    1    1    2    0    0  0.54088334750E+02  0.23422386670E+02  0.87223324822E+02  0.10527138522E+03  0.00000000000E+00 0. -1.
</event>
<event>
 7    1  0.2719869E-009  0.1101714E+03  0.7561462E-02  0.1260253E+00
          2   -1    0    0  501    0  0.00000000000E+00  0.00000000000E+00  0.29954197108E+03  0.29954197108E+03  0.00000000000E+00 0. -1.
         -2   -1    0    0    0  501 -0.00000000000E+00 -0.00000000000E+00 -0.69082354706E+02  0.69082354706E+02  0.00000000000E+00 0.  1.
         25    2    1    2    0    0  0.80617507492E+02  0.48999730513E+02  0.10592259822E+03  0.18912223525E+03  0.12508983551E+03 0.  0.
          5    1    3    3  502    0  0.53894187729E+02  0.17176356471E+02 -0.17069610229E+02  0.59232209869E+02  0.41800000000E+01 0. -1.
         -5    1    3    3    0  502  0.26723319763E+02  0.31823374042E+02  0.12299220845E+03  0.12989002538E+03  0.41800000000E+01 0. -1.
        -11    1    1    2    0    0 -0.95978571725E+02 -0.39444959322E+02  0.12360526411E+03  0.16138789410E+03  0.00000000000E+00 0. -1.
         11    1    1    2    0    0  0.15361064233E+02 -0.95547711913E+01  0.93175404310E+00  0.18114196435E+02  0.00000000000E+00 0.  1.
</event>
<event>
 7    1  0.2719869E-009  0.2027224E+03  0.7561462E-02  0.1147462E+00
         -2   -1    0    0    0  501 -0.00000000000E+00  0.00000000000E+00  0.31058248707E+03  0.31058248707E+03  0.00000000000E+00 0. -1.
          2   -1    0    0  501    0  0.00000000000E+00 -0.00000000000E+00 -0.16370264278E+03  0.16370264278E+03  0.00000000000E+00 0.  1.
         25    2    1    2    0    0 -0.18401408589E+03 -0.64910723086E+02  0.10870986091E+03  0.25600718204E+03  0.12508899881E+03 0.  0.
          5    1    3    3  502    0 -0.23903883121E+02 -0.42005908041E+02 -0.16694181571E+02  0.51303606471E+02  0.41800000000E+01 0.  1.
         -5    1    3    3    0  502 -0.16011020276E+03 -0.22904815045E+02  0.12540404248E+03  0.20470357557E+03  0.41800000000E+01 0.  1.
        -11    1    1    2    0    0  0.16467603970E+03  0.57385302478E+02 -0.50361776576E+00  0.17438900373E+03  0.00000000000E+00 0.  1.
         11    1    1    2    0    0  0.19338046185E+02  0.75254206081E+01  0.38673601158E+02  0.43888944076E+02  0.00000000000E+00 0. -1.
</event>
<event>
 7    1  0.2719869E-009  0.9686436E+02  0.7561462E-02  0.1287031E+00
          1   -1    0    0  501    0  0.00000000000E+00  0.00000000000E+00  0.28390931457E+03  0.28390931457E+03  0.00000000000E+00 0. -1.
         -1   -1    0    0    0  501 -0.00000000000E+00 -0.00000000000E+00 -0.74022783255E+02  0.74022783255E+02  0.00000000000E+00 0.  1.
         25    2    1    2    0    0 -0.43878310261E+02  0.79834982824E+02  0.78994285336E+02  0.17374307143E+03  0.12509047590E+03 0.  0.
          5    1    3    3  502    0 -0.40454924576E+02  0.85047230823E+02 -0.12188146316E+00  0.94271520876E+02  0.41800000000E+01 0. -1.
         -5    1    3    3    0  502 -0.34233856847E+01 -0.52122479995E+01  0.79116166799E+02  0.79471550556E+02  0.41800000000E+01 0. -1.
        -11    1    1    2    0    0  0.20899471196E+02 -0.25598679426E+02  0.11976918240E+03  0.12424466724E+03  0.00000000000E+00 0. -1.
         11    1    1    2    0    0  0.22978839065E+02 -0.54236303398E+02  0.11123063580E+02  0.59944359154E+02  0.00000000000E+00 0.  1.
</event>
<event>
 7    1  0.2719869E-009  0.2643703E+03  0.7561462E-02  0.1104546E+00
         -2   -1    0    0    0  501 -0.00000000000E+00  0.00000000000E+00  0.31251230152E+03  0.31251230152E+03  0.00000000000E+00 0.  1.
          2   -1    0    0  501    0  0.00000000000E+00 -0.00000000000E+00 -0.26631986841E+03  0.26631986841E+03  0.00000000000E+00 0. -1.
         25    2    1    2    0    0  0.24796825389E+03  0.28340123106E+02  0.11850356991E+03  0.30328539627E+03  0.12509003957E+03 0.  0.
          5    1    3    3  502    0  0.18503549911E+02 -0.35531182312E+02  0.24759496477E+02  0.47279502341E+02  0.41800000000E+01 0. -1.
         -5    1    3    3    0  502  0.22946470397E+03  0.63871305418E+02  0.93744073431E+02  0.25600589393E+03  0.41800000000E+01 0. -1.
        -11    1    1    2    0    0 -0.16746713370E+03 -0.10581488623E+02 -0.29738932435E+01  0.16782744952E+03  0.00000000000E+00 0. -1.
         11    1    1    2    0    0 -0.80501120184E+02 -0.17758634483E+02 -0.69337243555E+02  0.10771932414E+03  0.00000000000E+00 0.  1.
</event>
<event>
 7    1  0.2719869E-009  0.9212565E+02  0.7561462E-02  0.1297784E+00
          2   -1    0    0  501    0  0.00000000000E+00  0.00000000000E+00  0.93874702763E+02  0.93874702763E+02  0.00000000000E+00 0. -1.
         -2   -1    0    0    0  501 -0.00000000000E+00 -0.00000000000E+00 -0.13651610532E+03  0.13651610532E+03  0.00000000000E+00 0.  1.
         25    2    1    2    0    0 -0.25945620461E+02  0.13360365487E+02 -0.38437452197E+02  0.13407778388E+03  0.12509092617E+03 0.  0.
          5    1    3    3  502    0  0.38695289396E+02 -0.19055476776E+02 -0.43583830414E+02  0.61461038798E+02  0.41800000000E+01 0.  1.
         -5    1    3    3    0  502 -0.64640909857E+02  0.32415842263E+02  0.51463782175E+01  0.72616745077E+02  0.41800000000E+01 0.  1.
        -11    1    1    2    0    0  0.33484257690E+02 -0.33264263836E+02 -0.35083223969E+02  0.58809347604E+02  0.00000000000E+00 0.  1.
         11    1    1    2    0    0 -0.75386372283E+01  0.19903898349E+02  0.30879273604E+02  0.37503676608E+02  0.00000000000E+00 0. -1.
</event>
<event>
 7    1  0.2719869E-009  0.1000361E+03  0.7561462E-02  0.1280220E+00
         -2   -1    0    0    0  501 -0.00000000000E+00  0.00000000000E+00  0.38290635084E+02  0.38290635084E+02  0.00000000000E+00 0.  1.
          2   -1    0    0  501    0  0.00000000000E+00 -0.00000000000E+00 -0.52242823856E+03  0.52242823856E+03  0.00000000000E+00 0. -1.
         25    2    1    2    0    0 -0.98369455590E+01 -0.84302764484E+02 -0.32693295331E+03  0.36019060481E+03  0.12509354194E+03 0.  0.
          5    1    3    3  502    0 -0.21399997235E+02 -0.21622930066E+02 -0.39603566670E+01  0.30962361203E+02  0.41800000000E+01 0. -1.
         -5    1    3    3    0  502  0.11563051676E+02 -0.62679834418E+02 -0.32297259664E+03  0.32922824361E+03  0.41800000000E+01 0. -1.
        -11    1    1    2    0    0 -0.26713428794E+02  0.39191386504E+02 -0.19867346357E+02  0.51422597225E+02  0.00000000000E+00 0.  1.
         11    1    1    2    0    0  0.36550374354E+02  0.45111377980E+02 -0.13733730382E+03  0.14910567162E+03  0.00000000000E+00 0. -1.
</event>
<event>
 7    1  0.2719869E-009  0.2163766E+03  0.7561462E-02  0.1136614E+00
          2   -1    0    0  501    0  0.00000000000E+00  0.00000000000E+00  0.36758132044E+03  0.36758132044E+03  0.00000000000E+00 0. -1.
         -2   -1    0    0    0  501 -0.00000000000E+00 -0.00000000000E+00 -0.13188834915E+03  0.13188834915E+03  0.00000000000E+00 0.  1.
         25    2    1    2    0    0 -0.34932932691E+02 -0.17158454379E+03  0.99405149671E+02  0.23704535838E+03  0.12509017825E+03 0.  0.
          5    1    3    3  502    0 -0.81982795975E+02 -0.10762781251E+03  0.56278648883E+02  0.14659360007E+03  0.41800000000E+01 0.  1.
         -5    1    3    3    0  502  0.47049863285E+02 -0.63956731274E+02  0.43126500787E+02  0.90451758306E+02  0.41800000000E+01 0.  1.
        -11    1    1    2    0    0 -0.49349185098E+01 -0.20817812843E+02 -0.29570688221E+01  0.21598125110E+02  0.00000000000E+00 0. -1.
         11    1    1    2    0    0  0.39867851200E+02  0.19240235663E+03  0.13924489044E+03  0.24082618610E+03  0.00000000000E+00 0.  1.
</event>
<event>
 7    1  0.3921944E-009  0.2366316E+03  0.7561462E-02  0.1122057E+00
          1   -1    0    0  501    0  0.00000000000E+00  0.00000000000E+00  0.82033023373E+03  0.82033023373E+03  0.00000000000E+00 0. -1.
         -1   -1    0    0    0  501 -0.00000000000E+00 -0.00000000000E+00 -0.72127668134E+02  0.72127668134E+02  0.00000000000E+00 0.  1.
         25    2    1    2    0    0  0.11678500304E+02  0.21588773497E+03  0.34549320939E+03  0.42632854501E+03  0.12508624656E+03 0.  0.
          5    1    3    3  502    0  0.61784971325E+02  0.12877089845E+03  0.15434841098E+03  0.21033361914E+03  0.41800000000E+01 0.  1.
         -5    1    3    3    0  502 -0.50106471021E+02  0.87116836521E+02  0.19114479841E+03  0.21599492587E+03  0.41800000000E+01 0.  1.
        -11    1    1    2    0    0  0.33317363978E+02 -0.10347580744E+03  0.14343127027E+03  0.17997171655E+03  0.00000000000E+00 0.  1.
         11    1    1    2    0    0 -0.44995864283E+02 -0.11241192753E+03  0.25927808593E+03  0.28615764029E+03  0.00000000000E+00 0. -1.
</event>
<event>
 7    1  0.2719869E-009  0.1223465E+03  0.7561462E-02  0.1239276E+00
         -3   -1    0    0    0  501 -0.00000000000E+00  0.00000000000E+00  0.84381225748E+02  0.84381225748E+02  0.00000000000E+00 0.  1.
          3   -1    0    0  501    0  0.00000000000E+00 -0.00000000000E+00 -0.27705028165E+03  0.27705028165E+03  0.00000000000E+00 0. -1.
         25    2    1    2    0    0  0.87037881350E+02 -0.39155420551E+01 -0.17841935586E+03  0.23467418234E+03  0.12509029160E+03 0.  0.
          5    1    3    3  502    0 -0.12959011007E+02  0.12571273542E+02  0.97251045828E+01  0.20928997680E+02  0.41800000000E+01 0. -1.
         -5    1    3    3    0  502  0.99996892356E+02 -0.16486815597E+02 -0.18814446044E+03  0.21374518466E+03  0.41800000000E+01 0. -1.
        -11    1    1    2    0    0 -0.76753222519E+02  0.40459326089E+02 -0.17252544428E+01  0.86781281032E+02  0.00000000000E+00 0.  1.
         11    1    1    2    0    0 -0.10284658830E+02 -0.36543784034E+02 -0.12524445601E+02  0.39976044031E+02  0.00000000000E+00 0. -1.
</event>
<event>
 7    1  0.2719869E-009  0.7895272E+02  0.7561462E-02  0.1332050E+00
          2   -1    0    0  501    0  0.00000000000E+00  0.00000000000E+00  0.46734482470E+03  0.46734482470E+03  0.00000000000E+00 0. -1.
         -2   -1    0    0    0  501 -0.00000000000E+00 -0.00000000000E+00 -0.35341185877E+02  0.35341185877E+02  0.00000000000E+00 0.  1.
         25    2    1    2    0    0  0.39790377535E+02  0.34299724500E+02  0.32914353984E+03  0.35600936539E+03  0.12508978051E+03 0.  0.
          5    1    3    3  502    0  0.25587456186E+02  0.87442015175E+01  0.18909630378E+01  0.27426759113E+02  0.41800000000E+01 0.  1.
         -5    1    3    3    0  502  0.14202921349E+02  0.25555522982E+02  0.32725257680E+03  0.32858260628E+03  0.41800000000E+01 0.  1.
        -11    1    1    2    0    0  0.26100502492E+02 -0.21659743745E+02  0.53649784135E+02  0.63471884068E+02  0.00000000000E+00 0. -1.
         11    1    1    2    0    0 -0.65890880027E+02 -0.12639980754E+02  0.49210314854E+02  0.83204761115E+02  0.00000000000E+00 0.  1.
</event>
<event>
 7    1  0.2719869E-009  0.1012415E+03  0.7561462E-02  0.1277707E+00
         -2   -1    0    0    0  501 -0.00000000000E+00  0.00000000000E+00  0.96562025006E+02  0.96562025006E+02  0.00000000000E+00 0.  1.
          2   -1    0    0  501    0  0.00000000000E+00 -0.00000000000E+00 -0.16745557208E+03  0.16745557208E+03  0.00000000000E+00 0. -1.
         25    2    1    2    0    0 -0.50484107937E+02 -0.42461763637E+02 -0.49572722554E+02  0.14986434000E+03  0.12510083556E+03 0.  0.
          5    1    3    3  502    0 -0.54124166801E+02  0.45003459783E+01 -0.77663638105E+02  0.94861960920E+02  0.41800000000E+01 0. -1.
         -5    1    3    3    0  502  0.36400588638E+01 -0.46962109615E+02  0.28090915551E+02  0.55002379081E+02  0.41800000000E+01 0. -1.
        -11    1    1    2    0    0 -0.14322474539E+02  0.32024837239E+02  0.16094239572E+02  0.38597254106E+02  0.00000000000E+00 0.  1.
         11    1    1    2    0    0  0.64806582477E+02  0.10436926398E+02 -0.37415064088E+02  0.75556002976E+02  0.00000000000E+00 0. -1.
</event>
<event>
 7    1  0.2719869E-009  0.1381080E+03  0.7561462E-02  0.1215898E+00
          1   -1    0    0  501    0  0.00000000000E+00  0.00000000000E+00  0.50542722713E+03  0.50542722713E+03  0.00000000000E+00 0. -1.
         -1   -1    0    0    0  501 -0.00000000000E+00 -0.00000000000E+00 -0.49640444793E+02  0.49640444793E+02  0.00000000000E+00 0.  1.
         25    2    1    2    0    0 -0.53881955024E+02 -0.83829106488E+02  0.14528633140E+03  0.21608490337E+03  0.12511587910E+03 0.  0.
          5    1    3    3  502    0 -0.53248218479E+02  0.28233833695E+01  0.85748012491E+01  0.54169584467E+02  0.41800000000E+01 0. -1.
         -5    1    3    3    0  502 -0.63373654476E+00 -0.86652489857E+02  0.13671153015E+03  0.16191531890E+03  0.41800000000E+01 0. -1.
        -11    1    1    2    0    0 -0.21581589356E+02 -0.20158870317E+01  0.46682896890E+02  0.51469618822E+02  0.00000000000E+00 0.  1.
         11    1    1    2    0    0  0.75463544380E+02  0.85844993519E+02  0.26381755405E+03  0.28751314973E+03  0.00000000000E+00 0. -1.
</event>
<event>
 7    1  0.2719869E-009  0.1911371E+03  0.7561462E-02  0.1157440E+00
          1   -1    0    0  501    0  0.00000000000E+00  0.00000000000E+00  0.65519509245E+02  0.65519509245E+02  0.00000000000E+00 0. -1.
         -1   -1    0    0    0  501 -0.00000000000E+00 -0.00000000000E+00 -0.81063965562E+03  0.81063965562E+03  0.00000000000E+00 0.  1.
         25    2    1    2    0    0 -0.53416923449E+02  0.16869364184E+03 -0.19677666512E+03  0.29270999554E+03  0.12508866074E+03 0.  0.
          5    1    3    3  502    0 -0.28320846292E+02  0.26225091960E+02  0.10212801362E+02  0.40144731842E+02  0.41800000000E+01 0.  1.
         -5    1    3    3    0  502 -0.25096077157E+02  0.14246854988E+03 -0.20698946648E+03  0.25256526370E+03  0.41800000000E+01 0.  1.
        -11    1    1    2    0    0 -0.21736523032E+02 -0.77846654211E+02 -0.20106482703E+03  0.21670173666E+03  0.00000000000E+00 0. -1.
         11    1    1    2    0    0  0.75153446481E+02 -0.90846987630E+02 -0.34727865423E+03  0.36674743266E+03  0.00000000000E+00 0.  1.
</event>
<event>
 7    1  0.2719869E-009  0.9161123E+02  0.7561462E-02  0.1298996E+00
         -1   -1    0    0    0  501 -0.00000000000E+00  0.00000000000E+00  0.79324739427E+02  0.79324739427E+02  0.00000000000E+00 0.  1.
          1   -1    0    0  501    0  0.00000000000E+00 -0.00000000000E+00 -0.26257503402E+03  0.26257503402E+03  0.00000000000E+00 0. -1.
         25    2    1    2    0    0 -0.27540896043E+02 -0.28355476199E+01  0.38953403551E+01  0.12817560031E+03  0.12508904649E+03 0.  0.
          5    1    3    3  502    0 -0.57987451150E+02 -0.44775809426E+02  0.15263990383E+02  0.74952514321E+02  0.41800000000E+01 0. -1.
         -5    1    3    3    0  502  0.30446555107E+02  0.41940261806E+02 -0.11368650028E+02  0.53223085984E+02  0.41800000000E+01 0. -1.
        -11    1    1    2    0    0  0.30939292491E+01 -0.22457339018E+02  0.63384581385E+00  0.22678320804E+02  0.00000000000E+00 0.  1.
         11    1    1    2    0    0  0.24446966794E+02  0.25292886638E+02 -0.18777948076E+03  0.19104585234E+03  0.00000000000E+00 0. -1.
</event>
<event>
 7    1  0.2719869E-009  0.1135866E+03  0.7561462E-02  0.1254069E+00
         -2   -1    0    0    0  501 -0.00000000000E+00  0.00000000000E+00  0.67715469648E+03  0.67715469648E+03  0.00000000000E+00 0. -1.
          2   -1    0    0  501    0  0.00000000000E+00 -0.00000000000E+00 -0.25544807032E+02  0.25544807032E+02  0.00000000000E+00 0.  1.
         25    2    1    2    0    0 -0.24320482295E+02  0.64155753953E+02  0.44177112759E+03  0.46423646209E+03  0.12508523867E+03 0.  0.
          5    1    3    3  502    0  0.42923271317E+02  0.28978541998E+02  0.86325726204E+02  0.10075597512E+03  0.41800000000E+01 0.  1.
         -5    1    3    3    0  502 -0.67243753611E+02  0.35177211956E+02  0.35544540139E+03  0.36348048697E+03  0.41800000000E+01 0.  1.
        -11    1    1    2    0    0 -0.23979445779E+02 -0.36146644495E+02  0.37615216847E+02  0.57415139698E+02  0.00000000000E+00 0.  1.
         11    1    1    2    0    0  0.48299928074E+02 -0.28009109458E+02  0.17222354501E+03  0.18104790172E+03  0.00000000000E+00 0. -1.
</event>
<event>
 7    1  0.2719869E-009  0.1226581E+03  0.7561462E-02  0.1238775E+00
         -3   -1    0    0    0  501 -0.00000000000E+00  0.00000000000E+00  0.19178184134E+02  0.19178184134E+02  0.00000000000E+00 0.  1.
          3   -1    0    0  501    0  0.00000000000E+00 -0.00000000000E+00 -0.10340766327E+04  0.10340766327E+04  0.00000000000E+00 0. -1.
         25    2    1    2    0    0 -0.35504238875E+02 -0.67017015918E+02 -0.70530061422E+03  0.72030961160E+03  0.12508056903E+03 0.  0.
          5    1    3    3  502    0 -0.43940750105E+02  0.24754765910E+02 -0.18040850231E+03  0.18737205785E+03  0.41800000000E+01 0. -1.
         -5    1    3    3    0  502  0.84365112296E+01 -0.91771781828E+02 -0.52489211190E+03  0.53293755375E+03  0.41800000000E+01 0. -1.
        -11    1    1    2    0    0  0.21610327195E+02 -0.10272355553E+02 -0.15418455844E+02  0.28465001505E+02  0.00000000000E+00 0.  1.
         11    1    1    2    0    0  0.13893911680E+02  0.77289371471E+02 -0.29417937846E+03  0.30448020368E+03  0.00000000000E+00 0. -1.
</event>
<event>
 7    1  0.2719869E-009  0.6943724E+02  0.7561462E-02  0.1362017E+00
         -2   -1    0    0    0  501 -0.00000000000E+00  0.00000000000E+00  0.29924026554E+02  0.29924026554E+02  0.00000000000E+00 0.  1.
          2   -1    0    0  501    0  0.00000000000E+00 -0.00000000000E+00 -0.50426414940E+03  0.50426414940E+03  0.00000000000E+00 0. -1.
         25    2    1    2    0    0  0.20325781529E+02  0.39584321383E+02 -0.30876112320E+03  0.33609774163E+03  0.12509278489E+03 0.  0.
          5    1    3    3  502    0  0.29743361745E+01 -0.25676235590E+02 -0.73631532840E+01  0.27199341464E+02  0.41800000000E+01 0.  1.
         -5    1    3    3    0  502  0.17351445354E+02  0.65260556973E+02 -0.30139796992E+03  0.30889840016E+03  0.41800000000E+01 0.  1.
        -11    1    1    2    0    0 -0.23324641470E+01 -0.11097899969E+02  0.12485142281E+02  0.16866610522E+02  0.00000000000E+00 0.  1.
         11    1    1    2    0    0 -0.17993317382E+02 -0.28486421414E+02 -0.17806414192E+03  0.18122382380E+03  0.00000000000E+00 0. -1.
</event>
<event>
 7    1  0.2719869E-009  0.9390878E+02  0.7561462E-02  0.1293653E+00
          2   -1    0    0  501    0  0.00000000000E+00  0.00000000000E+00  0.12242769638E+04  0.12242769638E+04  0.00000000000E+00 0.  1.
         -2   -1    0    0    0  501 -0.00000000000E+00 -0.00000000000E+00 -0.41007629068E+02  0.41007629068E+02  0.00000000000E+00 0. -1.
         25    2    1    2    0    0 -0.47197246273E+01 -0.25813262861E+02  0.11647500639E+04  0.11717422392E+04  0.12509421834E+03 0.  0.
          5    1    3    3  502    0 -0.18789235478E+02  0.38567631467E+02  0.79318007137E+03  0.79435042367E+03  0.41800000000E+01 0.  1.
         -5    1    3    3    0  502  0.14069510851E+02 -0.64380894328E+02  0.37156999249E+03  0.37739181551E+03  0.41800000000E+01 0.  1.
        -11    1    1    2    0    0 -0.12422095041E+02  0.48602103359E+02  0.34472231382E+02  0.60867130971E+02  0.00000000000E+00 0.  1.
         11    1    1    2    0    0  0.17141819669E+02 -0.22788840498E+02 -0.15952960492E+02  0.32675222742E+02  0.00000000000E+00 0. -1.
</event>
<event>
 7    1  0.2719869E-009  0.1091070E+03  0.7561462E-02  0.1262233E+00
         -2   -1    0    0    0  501 -0.00000000000E+00  0.00000000000E+00  0.39776962469E+02  0.39776962469E+02  0.00000000000E+00 0.  1.
          2   -1    0    0  501    0  0.00000000000E+00 -0.00000000000E+00 -0.98187890814E+03  0.98187890814E+03  0.00000000000E+00 0. -1.
         25    2    1    2    0    0  0.81041440249E+02 -0.62393705989E+02 -0.83883790606E+03  0.85425833506E+03  0.12509029055E+03 0.  0.
          5    1    3    3  502    0  0.66958183351E+02 -0.18879114338E+02 -0.75868706904E+03  0.76188146086E+03  0.41800000000E+01 0. -1.
         -5    1    3    3    0  502  0.14083256898E+02 -0.43514591651E+02 -0.80150837018E+02  0.92376874195E+02  0.41800000000E+01 0. -1.
        -11    1    1    2    0    0 -0.28954571752E+02  0.17529288398E+02 -0.91621623422E+02  0.97673768513E+02  0.00000000000E+00 0. -1.
         11    1    1    2    0    0 -0.52086868497E+02  0.44864417591E+02 -0.11642416192E+02  0.69723767041E+02  0.00000000000E+00 0.  1.
</event>
<event>
 7    1  0.2719869E-009  0.1262406E+03  0.7561462E-02  0.1233143E+00
         -2   -1    0    0    0  501 -0.00000000000E+00  0.00000000000E+00  0.93005183910E+02  0.93005183910E+02  0.00000000000E+00 0.  1.
          2   -1    0    0  501    0  0.00000000000E+00 -0.00000000000E+00 -0.23582990155E+03  0.23582990155E+03  0.00000000000E+00 0. -1.
         25    2    1    2    0    0  0.55961762142E+02 -0.80919901058E+02 -0.10008801430E+03  0.18800057607E+03  0.12508739659E+03 0.  0.
          5    1    3    3  502    0  0.37175731530E+02  0.15791879531E+02  0.83242799440E+01  0.41450989258E+02  0.41800000000E+01 0. -1.
         -5    1    3    3    0  502  0.18786030612E+02 -0.96711780589E+02 -0.10841229425E+03  0.14654958681E+03  0.41800000000E+01 0. -1.
        -11    1    1    2    0    0 -0.58497878563E+02  0.36878263262E+02  0.12365292155E+02  0.70248904246E+02  0.00000000000E+00 0.  1.
         11    1    1    2    0    0  0.25361164217E+01  0.44041637796E+02 -0.55101995490E+02  0.70585605142E+02  0.00000000000E+00 0. -1.
</event>
<event>
 7    1  0.2719869E-009  0.1273172E+03  0.7561462E-02  0.1231492E+00
          3   -1    0    0  501    0  0.00000000000E+00  0.00000000000E+00  0.46421028527E+03  0.46421028527E+03  0.00000000000E+00 0. -1.
         -3   -1    0    0    0  501 -0.00000000000E+00 -0.00000000000E+00 -0.48991517838E+02  0.48991517838E+02  0.00000000000E+00 0.  1.
         25    2    1    2    0    0 -0.67676324651E+02  0.40871905293E+02  0.10758597371E+03  0.18295474809E+03  0.12508837097E+03 0.  0.
          5    1    3    3  502    0 -0.10393044888E+03  0.29572576520E+02  0.90897043288E+02  0.14126507128E+03  0.41800000000E+01 0.  1.
         -5    1    3    3    0  502  0.36254124226E+02  0.11299328773E+02  0.16688930418E+02  0.41689676811E+02  0.41800000000E+01 0.  1.
        -11    1    1    2    0    0  0.46214778842E+02  0.14882318835E+02  0.21198975771E+03  0.21747861176E+03  0.00000000000E+00 0.  1.
         11    1    1    2    0    0  0.21461545809E+02 -0.55754224128E+02  0.95643036010E+02  0.11276844325E+03  0.00000000000E+00 0. -1.
</event>
<event>
 7    1  0.2719869E-009  0.9580044E+02  0.7561462E-02  0.1289383E+00
         -1   -1    0    0    0  501 -0.00000000000E+00  0.00000000000E+00  0.24489548501E+03  0.24489548501E+03  0.00000000000E+00 0. -1.
          1   -1    0    0  501    0  0.00000000000E+00 -0.00000000000E+00 -0.55130130580E+02  0.55130130580E+02  0.00000000000E+00 0.  1.
         25    2    1    2    0    0 -0.20978460698E+02  0.30290162964E+02  0.14802467081E+03  0.19727159103E+03  0.12508871922E+03 0.  0.
          5    1    3    3  502    0 -0.58599745791E+02  0.39723262320E+02  0.14072438474E+03  0.15758392252E+03  0.41800000000E+01 0.  1.
         -5    1    3    3    0  502  0.37621285093E+02 -0.94330993556E+01  0.73002860648E+01  0.39687668515E+02  0.41800000000E+01 0.  1.
        -11    1    1    2    0    0 -0.13373582554E+02  0.17991369531E+02 -0.95661001971E+01  0.24373189387E+02  0.00000000000E+00 0.  1.
         11    1    1    2    0    0  0.34352043252E+02 -0.48281532495E+02  0.51306783825E+02  0.78380835171E+02  0.00000000000E+00 0. -1.
</event>
<event>
 7    1  0.2719869E-009  0.1027641E+03  0.7561462E-02  0.1274588E+00
         -2   -1    0    0    0  501 -0.00000000000E+00  0.00000000000E+00  0.43244749810E+02  0.43244749810E+02  0.00000000000E+00 0. -1.
          2   -1    0    0  501    0  0.00000000000E+00 -0.00000000000E+00 -0.34975271045E+03  0.34975271045E+03  0.00000000000E+00 0.  1.
         25    2    1    2    0    0  0.21262723905E+02 -0.49136512971E+02 -0.20694929338E+03  0.24766911931E+03  0.12508190233E+03 0.  0.
          5    1    3    3  502    0  0.95711145197E+01  0.23813837219E+02 -0.15521643533E+03  0.15737953892E+03  0.41800000000E+01 0. -1.
         -5    1    3    3    0  502  0.11691609386E+02 -0.72950350191E+02 -0.51732858056E+02  0.90289580382E+02  0.41800000000E+01 0. -1.
        -11    1    1    2    0    0  0.29852664896E+02  0.45318825529E+02 -0.57043266527E+02  0.78733168391E+02  0.00000000000E+00 0.  1.
         11    1    1    2    0    0 -0.51115388802E+02  0.38176874426E+01 -0.42515400732E+02  0.66595172567E+02  0.00000000000E+00 0. -1.
</event>
<event>
 7    1  0.2719869E-009  0.2303811E+03  0.7561462E-02  0.1126372E+00
         -1   -1    0    0    0  501 -0.00000000000E+00  0.00000000000E+00  0.74412886292E+03  0.74412886292E+03  0.00000000000E+00 0.  1.
          1   -1    0    0  501    0  0.00000000000E+00 -0.00000000000E+00 -0.10745617627E+03  0.10745617627E+03  0.00000000000E+00 0. -1.
         25    2    1    2    0    0 -0.87767783184E+01  0.22021626491E+03  0.53337791654E+03  0.59052036838E+03  0.12510023365E+03 0.  0.
          5    1    3    3  502    0 -0.49968293928E+02  0.10871855190E+03  0.36676253618E+03  0.38580925892E+03  0.41800000000E+01 0. -1.
         -5    1    3    3    0  502  0.41191515609E+02  0.11149771301E+03  0.16661538035E+03  0.20471110946E+03  0.41800000000E+01 0. -1.
        -11    1    1    2    0    0 -0.89365333564E+01 -0.38524508610E+02  0.62576113652E+02  0.74025464482E+02  0.00000000000E+00 0.  1.
         11    1    1    2    0    0  0.17713311675E+02 -0.18169175630E+03  0.40718656456E+02  0.18703920632E+03  0.00000000000E+00 0. -1.
</event>
<event>
 7    1  0.2719869E-009  0.2598451E+03  0.7561462E-02  0.1107236E+00
          2   -1    0    0  501    0  0.00000000000E+00  0.00000000000E+00  0.20836358747E+04  0.20836358747E+04  0.00000000000E+00 0. -1.
         -2   -1    0    0    0  501 -0.00000000000E+00 -0.00000000000E+00 -0.35993018808E+02  0.35993018808E+02  0.00000000000E+00 0.  1.
         25    2    1    2    0    0 -0.19579993557E+03  0.13465050759E+03  0.74125516968E+03  0.78840046625E+03  0.12509074564E+03 0.  0.
          5    1    3    3  502    0 -0.15829133594E+03  0.15640864649E+03  0.65475024459E+03  0.69154549158E+03  0.41800000000E+01 0. -1.
         -5    1    3    3    0  502 -0.37508599630E+02 -0.21758138898E+02  0.86504925091E+02  0.96854974676E+02  0.41800000000E+01 0. -1.
        -11    1    1    2    0    0  0.18935376428E+03 -0.92178310195E+02  0.11458481976E+04  0.11650406777E+04  0.00000000000E+00 0. -1.
         11    1    1    2    0    0  0.64461712840E+01 -0.42472197393E+02  0.16053948866E+03  0.16618774953E+03  0.00000000000E+00 0.  1.
</event>
<event>
 7    1  0.2719869E-009  0.1637861E+03  0.7561462E-02  0.1184487E+00
          2   -1    0    0  501    0  0.00000000000E+00  0.00000000000E+00  0.21263313080E+03  0.21263313080E+03  0.00000000000E+00 0. -1.
         -2   -1    0    0    0  501 -0.00000000000E+00 -0.00000000000E+00 -0.18029224694E+03  0.18029224694E+03  0.00000000000E+00 0.  1.
         25    2    1    2    0    0  0.10795137746E+03  0.89735732854E+02  0.98582472008E+02  0.21227625912E+03  0.12504681024E+03 0.  0.
          5    1    3    3  502    0  0.22459773795E+02  0.96733730960E+02  0.34832685912E+02  0.10532162433E+03  0.41800000000E+01 0.  1.
         -5    1    3    3    0  502  0.85491603669E+02 -0.69979981062E+01  0.63749786096E+02  0.10695463479E+03  0.41800000000E+01 0.  1.
        -11    1    1    2    0    0 -0.80600279394E+02 -0.52866106649E+02 -0.87386722887E+02  0.13010637804E+03  0.00000000000E+00 0.  1.
         11    1    1    2    0    0 -0.27351098070E+02 -0.36869626205E+02  0.21145134736E+02  0.50542740578E+02  0.00000000000E+00 0. -1.
</event>
<event>
 7    1  0.2719869E-009  0.1110891E+03  0.7561462E-02  0.1258566E+00
         -1   -1    0    0    0  501 -0.00000000000E+00  0.00000000000E+00  0.59556737386E+02  0.59556737386E+02  0.00000000000E+00 0.  1.
          1   -1    0    0  501    0  0.00000000000E+00 -0.00000000000E+00 -0.28829815364E+03  0.28829815364E+03  0.00000000000E+00 0. -1.
         25    2    1    2    0    0 -0.53891521011E+02  0.29593971247E+02 -0.72371897373E+02  0.15705088114E+03  0.12508872278E+03 0.  0.
          5    1    3    3  502    0 -0.92246543348E+02  0.29860724849E+02 -0.34533794154E+02  0.10301040232E+03  0.41800000000E+01 0. -1.
         -5    1    3    3    0  502  0.38355022337E+02 -0.26675360243E+00 -0.37838103220E+02  0.54040478821E+02  0.41800000000E+01 0. -1.
        -11    1    1    2    0    0  0.45042424624E+02 -0.48183246270E+02 -0.15690958546E+03  0.17020888122E+03  0.00000000000E+00 0. -1.
         11    1    1    2    0    0  0.88490963871E+01  0.18589275023E+02  0.54006657656E+00  0.20595128663E+02  0.00000000000E+00 0.  1.
</event>
<event>
 7    1  0.2719869E-009  0.7659396E+02  0.7561462E-02  0.1339005E+00
          1   -1    0    0  501    0  0.00000000000E+00  0.00000000000E+00  0.21507157652E+03  0.21507157652E+03  0.00000000000E+00 0. -1.
         -1   -1    0    0    0  501 -0.00000000000E+00 -0.00000000000E+00 -0.70066380232E+02  0.70066380232E+02  0.00000000000E+00 0.  1.
         25    2    1    2    0    0 -0.52261897001E+02  0.50903453764E+01  0.54126404822E+02  0.14606374772E+03  0.12509089977E+03 0.  0.
          5    1    3    3  502    0 -0.21096064983E+02 -0.39168481264E+02 -0.24157008463E+02  0.50796135091E+02  0.41800000000E+01 0. -1.
         -5    1    3    3    0  502 -0.31165832018E+02  0.44258826641E+02  0.78283413284E+02  0.95267612631E+02  0.41800000000E+01 0. -1.
        -11    1    1    2    0    0  0.36555842503E+02 -0.97410436881E+01 -0.81504190057E+01  0.38699442932E+02  0.00000000000E+00 0.  1.
         11    1    1    2    0    0  0.15706054498E+02  0.46506983116E+01  0.99029210477E+02  0.10037476610E+03  0.00000000000E+00 0. -1.
</event>
<event>
 7    1  0.2719869E-009  0.1494729E+03  0.7561462E-02  0.1201122E+00
          2   -1    0    0  501    0  0.00000000000E+00  0.00000000000E+00  0.14250707061E+04  0.14250707061E+04  0.00000000000E+00 0. -1.
         -2   -1    0    0    0  501 -0.00000000000E+00 -0.00000000000E+00 -0.18720088780E+02  0.18720088780E+02  0.00000000000E+00 0.  1.
         25    2    1    2    0    0  0.81181040539E+02 -0.86530792913E+02  0.88118071646E+03  0.89788864903E+03  0.12508649619E+03 0.  0.
          5    1    3    3  502    0  0.87520824905E+02 -0.26618881556E+02  0.30228681063E+03  0.31585320629E+03  0.41800000000E+01 0. -1.
         -5    1    3    3    0  502 -0.63397843660E+01 -0.59911911357E+02  0.57889390584E+03  0.58203544274E+03  0.41800000000E+01 0. -1.
        -11    1    1    2    0    0 -0.99978583984E+02  0.71566481517E+02  0.46815291136E+03  0.48402957239E+03  0.00000000000E+00 0.  1.
         11    1    1    2    0    0  0.18797543446E+02  0.14964311396E+02  0.57016989479E+02  0.61872573442E+02  0.00000000000E+00 0. -1.
</event>
<event>
 7    1  0.2719869E-009  0.5989197E+02  0.7561462E-02  0.1398286E+00
          2   -1    0    0  501    0  0.00000000000E+00  0.00000000000E+00  0.25752187242E+03  0.25752187242E+03  0.00000000000E+00 0. -1.
         -2   -1    0    0    0  501 -0.00000000000E+00 -0.00000000000E+00 -0.47721347612E+02  0.47721347612E+02  0.00000000000E+00 0.  1.
         25    2    1    2    0    0 -0.99018704393E+01 -0.16681530140E+02  0.14235305429E+03  0.19049731288E+03  0.12509401929E+03 0.  0.
          5    1    3    3  502    0 -0.37117426413E+02  0.14722080585E+02  0.14320165166E+03  0.14872332850E+03  0.41800000000E+01 0.  1.
         -5    1    3    3    0  502  0.27215555974E+02 -0.31403610726E+02 -0.84859736944E+00  0.41773984381E+02  0.41800000000E+01 0.  1.
        -11    1    1    2    0    0  0.21909525329E+02  0.95168253346E+01 -0.16891225166E+02  0.29255952423E+02  0.00000000000E+00 0.  1.
         11    1    1    2    0    0 -0.12007654889E+02  0.71647048057E+01  0.84338695682E+02  0.85489954733E+02  0.00000000000E+00 0. -1.
</event>
<event>
 7    1  0.2719869E-009  0.1286498E+03  0.7561462E-02  0.1229473E+00
         -2   -1    0    0    0  501 -0.00000000000E+00  0.00000000000E+00  0.54778661929E+02  0.54778661929E+02  0.00000000000E+00 0.  1.
          2   -1    0    0  501    0  0.00000000000E+00 -0.00000000000E+00 -0.41005950336E+03  0.41005950336E+03  0.00000000000E+00 0. -1.
         25    2    1    2    0    0  0.84973333605E+02 -0.50432784444E+02 -0.14465968989E+03  0.21526428956E+03  0.12509338635E+03 0.  0.
          5    1    3    3  502    0 -0.31973581989E+02 -0.44889243751E+01 -0.19943581212E+02  0.38179565461E+02  0.41800000000E+01 0. -1.
         -5    1    3    3    0  502  0.11694691559E+03 -0.45943860069E+02 -0.12471610868E+03  0.17708472410E+03  0.41800000000E+01 0. -1.
        -11    1    1    2    0    0 -0.41773955556E+02  0.21026639362E+02 -0.18201836808E+02  0.50184557275E+02  0.00000000000E+00 0.  1.
         11    1    1    2    0    0 -0.43199378049E+02  0.29406145082E+02 -0.19241931473E+03  0.19938931845E+03  0.00000000000E+00 0. -1.
</event>
<event>
 7    1  0.2719869E-009  0.1449224E+03  0.7561462E-02  0.1206855E+00
         -1   -1    0    0    0  501 -0.00000000000E+00  0.00000000000E+00  0.21023599893E+03  0.21023599893E+03  0.00000000000E+00 0.  1.
          1   -1    0    0  501    0  0.00000000000E+00 -0.00000000000E+00 -0.11220700720E+03  0.11220700720E+03  0.00000000000E+00 0. -1.
         25    2    1    2    0    0 -0.10624015267E+03 -0.20477593322E+02  0.47256599071E+02  0.17199447153E+03  0.12507042102E+03 0.  0.
          5    1    3    3  502    0 -0.79775396842E+02  0.38141038728E+02 -0.55151671931E+01  0.88694657369E+02  0.41800000000E+01 0.  1.
         -5    1    3    3    0  502 -0.26464755824E+02 -0.58618632050E+02  0.52771766264E+02  0.83299814159E+02  0.41800000000E+01 0.  1.
        -11    1    1    2    0    0  0.12021140705E+03  0.12701182114E+02  0.56540770725E+02  0.13345021980E+03  0.00000000000E+00 0. -1.
         11    1    1    2    0    0 -0.13971254380E+02  0.77764112083E+01 -0.57683780684E+01  0.16998314792E+02  0.00000000000E+00 0.  1.
</event>
<event>
 7    1  0.2719869E-009  0.1500906E+03  0.7561462E-02  0.1200362E+00
          4   -1    0    0  501    0  0.00000000000E+00  0.00000000000E+00  0.31111877379E+02  0.31111877379E+02  0.00000000000E+00 0. -1.
         -4   -1    0    0    0  501 -0.00000000000E+00 -0.00000000000E+00 -0.98055340112E+03  0.98055340112E+03  0.00000000000E+00 0.  1.
         25    2    1    2    0    0  0.54068983488E+01 -0.51454597215E+02 -0.33439296305E+03  0.36075369516E+03  0.12509102571E+03 0.  0.
          5    1    3    3  502    0 -0.17084965219E+02 -0.88041287660E+02 -0.25574145533E+03  0.27104303854E+03  0.41800000000E+01 0.  1.
         -5    1    3    3    0  502  0.22491863568E+02  0.36586690444E+02 -0.78651507719E+02  0.89710656619E+02  0.41800000000E+01 0.  1.
        -11    1    1    2    0    0  0.29823962600E+02  0.10164424790E+03 -0.55523759977E+03  0.56525199166E+03  0.00000000000E+00 0.  1.
         11    1    1    2    0    0 -0.35230860949E+02 -0.50189650688E+02 -0.59810960916E+02  0.85659591670E+02  0.00000000000E+00 0. -1.
</event>
<event>
 7    1  0.2719869E-009  0.1223292E+03  0.7561462E-02  0.1239303E+00
          2   -1    0    0  501    0  0.00000000000E+00  0.00000000000E+00  0.83565251114E+02  0.83565251114E+02  0.00000000000E+00 0. -1.
         -2   -1    0    0    0  501 -0.00000000000E+00 -0.00000000000E+00 -0.26355490739E+03  0.26355490739E+03  0.00000000000E+00 0.  1.
         25    2    1    2    0    0  0.29466625778E+02  0.54246071342E+02 -0.83894411318E+01  0.13974708529E+03  0.12509175366E+03 0.  0.
          5    1    3    3  502    0  0.37480228426E+02 -0.33980481129E+02 -0.13768433148E+01  0.50781972374E+02  0.41800000000E+01 0.  1.
         -5    1    3    3    0  502 -0.80136026480E+01  0.88226552471E+02 -0.70125978170E+01  0.88965112918E+02  0.41800000000E+01 0.  1.
        -11    1    1    2    0    0  0.27195698580E+02 -0.37113498920E+02 -0.12115841602E+03  0.12960084720E+03  0.00000000000E+00 0.  1.
         11    1    1    2    0    0 -0.56662324358E+02 -0.17132572421E+02 -0.50441799122E+02  0.77772226007E+02  0.00000000000E+00 0. -1.
</event>
<event>
 7    1  0.2719869E-009  0.2212531E+03  0.7561462E-02  0.1132952E+00
          2   -1    0    0  501    0  0.00000000000E+00  0.00000000000E+00  0.18695646975E+03  0.18695646975E+03  0.00000000000E+00 0. -1.
         -2   -1    0    0    0  501 -0.00000000000E+00 -0.00000000000E+00 -0.46193440196E+03  0.46193440196E+03  0.00000000000E+00 0.  1.
         25    2    1    2    0    0 -0.83948773918E+02 -0.19221570600E+03  0.52177155842E+02  0.24972864859E+03  0.12509063939E+03 0.  0.
          5    1    3    3  502    0  0.18954174821E+02 -0.71126794738E+02 -0.18111895311E+02  0.75919660329E+02  0.41800000000E+01 0. -1.
         -5    1    3    3    0  502 -0.10290294874E+03 -0.12108891126E+03  0.70289051153E+02  0.17380898826E+03  0.41800000000E+01 0. -1.
        -11    1    1    2    0    0  0.44816840925E+02  0.95937890218E+02 -0.85470770785E+02  0.13608041986E+03  0.00000000000E+00 0.  1.
         11    1    1    2    0    0  0.39131932993E+02  0.96277815780E+02 -0.24168431727E+03  0.26308180326E+03  0.00000000000E+00 0. -1.
</event>
<event>
 7    1  0.2719869E-009  0.2728854E+03  0.7561462E-02  0.1099639E+00
          1   -1    0    0  501    0  0.00000000000E+00  0.00000000000E+00  0.53842130121E+03  0.53842130121E+03  0.00000000000E+00 0. -1.
         -1   -1    0    0    0  501 -0.00000000000E+00 -0.00000000000E+00 -0.17474897408E+03  0.17474897408E+03  0.00000000000E+00 0.  1.
         25    2    1    2    0    0 -0.21845808232E+03 -0.14097391300E+03  0.45079757716E+02  0.29202279576E+03  0.12509017072E+03 0.  0.
          5    1    3    3  502    0 -0.17485371441E+03 -0.15787353791E+03  0.59301381720E+02  0.24296502154E+03  0.41800000000E+01 0.  1.
         -5    1    3    3    0  502 -0.43604367906E+02  0.16899624909E+02 -0.14221624004E+02  0.49057774224E+02  0.41800000000E+01 0.  1.
        -11    1    1    2    0    0  0.70034531175E+02  0.68749459277E+02  0.18250472281E+03  0.20721799525E+03  0.00000000000E+00 0. -1.
         11    1    1    2    0    0  0.14842355114E+03  0.72224453727E+02  0.13608784661E+03  0.21392948428E+03  0.00000000000E+00 0.  1.
</event>
<event>
 7    1  0.2719869E-009  0.1067757E+03  0.7561462E-02  0.1266660E+00
          2   -1    0    0  501    0  0.00000000000E+00  0.00000000000E+00  0.45089611863E+03  0.45089611863E+03  0.00000000000E+00 0. -1.
         -2   -1    0    0    0  501 -0.00000000000E+00 -0.00000000000E+00 -0.40030033272E+02  0.40030033272E+02  0.00000000000E+00 0.  1.
         25    2    1    2    0    0 -0.64740256460E+02 -0.33065054708E+02  0.17080171356E+03  0.22384160573E+03  0.12508893016E+03 0.  0.
          5    1    3    3  502    0 -0.32682627735E+02  0.37279422806E+02  0.12343053174E+03  0.13308072019E+03  0.41800000000E+01 0.  1.
         -5    1    3    3    0  502 -0.32057628725E+02 -0.70344477514E+02  0.47371181818E+02  0.90760885535E+02  0.41800000000E+01 0.  1.
        -11    1    1    2    0    0  0.62672532277E+02  0.10289988378E+02  0.23530525653E+03  0.24372585812E+03  0.00000000000E+00 0. -1.
         11    1    1    2    0    0  0.20677241834E+01  0.22775066330E+02  0.47591152619E+01  0.23358688056E+02  0.00000000000E+00 0.  1.
</event>
<event>
 7    1  0.2719869E-009  0.1177148E+03  0.7561462E-02  0.1246915E+00
         -2   -1    0    0    0  501 -0.00000000000E+00  0.00000000000E+00  0.71056619272E+02  0.71056619272E+02  0.00000000000E+00 0.  1.
          2   -1    0    0  501    0  0.00000000000E+00 -0.00000000000E+00 -0.32393337885E+03  0.32393337885E+03  0.00000000000E+00 0. -1.
         25    2    1    2    0    0  0.93561171223E+02 -0.20586418046E+02 -0.78220392116E+02  0.17590713300E+03  0.12508955323E+03 0.  0.
          5    1    3    3  502    0  0.42573099560E+02  0.26604526871E+02 -0.92061969402E+02  0.10494354800E+03  0.41800000000E+01 0. -1.
         -5    1    3    3    0  502  0.50988071663E+02 -0.47190944917E+02  0.13841577286E+02  0.70963584998E+02  0.41800000000E+01 0. -1.
        -11    1    1    2    0    0 -0.16960260282E+02 -0.22024591484E+02 -0.10048086796E+03  0.10425515760E+03  0.00000000000E+00 0. -1.
         11    1    1    2    0    0 -0.76600910941E+02  0.42611009529E+02 -0.74175499492E+02  0.11482770752E+03  0.00000000000E+00 0.  1.
</event>
<event>
 7    1  0.2719869E-009  0.1219871E+03  0.7561462E-02  0.1239855E+00
         -1   -1    0    0    0  501 -0.00000000000E+00  0.00000000000E+00  0.48146406891E+03  0.48146406891E+03  0.00000000000E+00 0.  1.
          1   -1    0    0  501    0  0.00000000000E+00 -0.00000000000E+00 -0.46982836130E+02  0.46982836130E+02  0.00000000000E+00 0. -1.
         25    2    1    2    0    0  0.97336463977E+02 -0.31750293710E+02  0.19823107272E+03  0.25578498585E+03  0.12509169607E+03 0.  0.
          5    1    3    3  502    0  0.54286732139E+02 -0.34598743156E+02  0.20221563501E+03  0.21225634916E+03  0.41800000000E+01 0. -1.
         -5    1    3    3    0  502  0.43049731837E+02  0.28484494457E+01 -0.39845622968E+01  0.43528636691E+02  0.41800000000E+01 0. -1.
        -11    1    1    2    0    0 -0.67577819776E+02 -0.24987437599E+02  0.12352685454E+03  0.14300355784E+03  0.00000000000E+00 0. -1.
         11    1    1    2    0    0 -0.29758644201E+02  0.56737731309E+02  0.11272330553E+03  0.12965836135E+03  0.00000000000E+00 0.  1.
</event>
<event>
 7    1  0.2719869E-009  0.1342423E+03  0.7561462E-02  0.1221293E+00
         -1   -1    0    0    0  501 -0.00000000000E+00  0.00000000000E+00  0.26285291355E+03  0.26285291355E+03  0.00000000000E+00 0.  1.
          1   -1    0    0  501    0  0.00000000000E+00 -0.00000000000E+00 -0.10540000338E+03  0.10540000338E+03  0.00000000000E+00 0. -1.
         25    2    1    2    0    0 -0.10251105261E+03  0.59982645310E+02  0.13394466445E+03  0.21838995007E+03  0.12508622431E+03 0.  0.
          5    1    3    3  502    0 -0.21547153012E+02  0.99533680482E+00 -0.23220900686E+02  0.31968001610E+02  0.41800000000E+01 0.  1.
         -5    1    3    3    0  502 -0.80963899602E+02  0.58987308505E+02  0.15716556513E+03  0.18642194846E+03  0.41800000000E+01 0.  1.
        -11    1    1    2    0    0  0.10196384809E+03 -0.17125205029E+02  0.60061185171E+01  0.10356627068E+03  0.00000000000E+00 0.  1.
         11    1    1    2    0    0  0.54720452859E+00 -0.42857440281E+02  0.17502127211E+02  0.46296696179E+02  0.00000000000E+00 0. -1.
</event>
<event>
 7    1  0.2719869E-009  0.1678580E+03  0.7561462E-02  0.1180100E+00
          2   -1    0    0  501    0  0.00000000000E+00  0.00000000000E+00  0.11939076157E+04  0.11939076157E+04  0.00000000000E+00 0.  1.
         -2   -1    0    0    0  501 -0.00000000000E+00 -0.00000000000E+00 -0.31362021538E+02  0.31362021538E+02  0.00000000000E+00 0. -1.
         25    2    1    2    0    0  0.11004317386E+03 -0.11604635035E+03  0.58193642572E+03  0.61633904836E+03  0.12509022105E+03 0.  0.
          5    1    3    3  502    0  0.67338970357E+02 -0.39941733247E+02  0.45824378089E+03  0.46490290826E+03  0.41800000000E+01 0.  1.
         -5    1    3    3    0  502  0.42704203501E+02 -0.76104617105E+02  0.12369264483E+03  0.15143614010E+03  0.41800000000E+01 0.  1.
        -11    1    1    2    0    0 -0.24895270583E+02  0.67464423776E+02  0.36590833237E+03  0.37290767044E+03  0.00000000000E+00 0.  1.
         11    1    1    2    0    0 -0.85147903275E+02  0.48581926577E+02  0.21470083604E+03  0.23602291842E+03  0.00000000000E+00 0. -1.
</event>
<event>
 7    1  0.2719869E-009  0.1040724E+03  0.7561462E-02  0.1271958E+00
         -2   -1    0    0    0  501 -0.00000000000E+00  0.00000000000E+00  0.89894207196E+02  0.89894207196E+02  0.00000000000E+00 0. -1.
          2   -1    0    0  501    0  0.00000000000E+00 -0.00000000000E+00 -0.51592985642E+03  0.51592985642E+03  0.00000000000E+00 0.  1.
         25    2    1    2    0    0 -0.16881088539E+02  0.71987489801E+02 -0.46632490584E+03  0.48843562791E+03  0.12507307851E+03 0.  0.
          5    1    3    3  502    0  0.22141113779E+02  0.87411008627E+02 -0.39830418956E+03  0.40840496223E+03  0.41800000000E+01 0. -1.
         -5    1    3    3    0  502 -0.39022202318E+02 -0.15423518827E+02 -0.68020716277E+02  0.80030665683E+02  0.41800000000E+01 0. -1.
        -11    1    1    2    0    0  0.10616845589E+00 -0.36039906723E+02 -0.22957322247E+02  0.42730841240E+02  0.00000000000E+00 0.  1.
         11    1    1    2    0    0  0.16774920083E+02 -0.35947583078E+02  0.63246578865E+02  0.74657594464E+02  0.00000000000E+00 0. -1.
</event>
<event>
 7    1  0.2719869E-009  0.9294278E+02  0.7561462E-02  0.1295878E+00
         -2   -1    0    0    0  501 -0.00000000000E+00  0.00000000000E+00  0.25368906836E+02  0.25368906836E+02  0.00000000000E+00 0.  1.
          2   -1    0    0  501    0  0.00000000000E+00 -0.00000000000E+00 -0.56716751492E+03  0.56716751492E+03  0.00000000000E+00 0. -1.
         25    2    1    2    0    0  0.40972422978E+02 -0.20071351473E+02 -0.25607588224E+03  0.28862399989E+03  0.12508939704E+03 0.  0.
          5    1    3    3  502    0  0.59847509856E+02 -0.26906226665E+02 -0.25961860402E+03  0.26781516280E+03  0.41800000000E+01 0. -1.
         -5    1    3    3    0  502 -0.18875086878E+02  0.68348751911E+01  0.35427217801E+01  0.20808837092E+02  0.41800000000E+01 0. -1.
        -11    1    1    2    0    0  0.23208216789E+02  0.26384881953E+02 -0.64131778257E+02  0.73127753313E+02  0.00000000000E+00 0.  1.
         11    1    1    2    0    0 -0.64180639767E+02 -0.63135304793E+01 -0.22159094758E+03  0.23078466855E+03  0.00000000000E+00 0. -1.
</event>
<event>
 7    1  0.2719869E-009  0.1046007E+03  0.7561462E-02  0.1270908E+00
         -2   -1    0    0    0  501 -0.00000000000E+00  0.00000000000E+00  0.11013016512E+03  0.11013016512E+03  0.00000000000E+00 0. -1.
          2   -1    0    0  501    0  0.00000000000E+00 -0.00000000000E+00 -0.15694766977E+03  0.15694766977E+03  0.00000000000E+00 0.  1.
         25    2    1    2    0    0 -0.57463829851E+02  0.18219141762E+02  0.20021589752E+02  0.14026459788E+03  0.12505704496E+03 0.  0.
          5    1    3    3  502    0 -0.92518441312E+02  0.23068104507E+01 -0.72147120729E+01  0.92922052429E+02  0.41800000000E+01 0. -1.
         -5    1    3    3    0  502  0.35054611462E+02  0.15912331311E+02  0.27236301825E+02  0.47342545449E+02  0.41800000000E+01 0. -1.
        -11    1    1    2    0    0  0.40356218174E+02 -0.35333080468E+02 -0.82199106687E+02  0.98151638096E+02  0.00000000000E+00 0.  1.
         11    1    1    2    0    0  0.17107611677E+02  0.17113938707E+02  0.15360012281E+02  0.28661598919E+02  0.00000000000E+00 0. -1.
</event>
<event>
 7    1  0.2719869E-009  0.4928148E+02  0.7561462E-02  0.1449256E+00
          3   -1    0    0  501    0  0.00000000000E+00  0.00000000000E+00  0.36688793231E+03  0.36688793231E+03  0.00000000000E+00 0. -1.
         -3   -1    0    0    0  501 -0.00000000000E+00 -0.00000000000E+00 -0.38470894135E+02  0.38470894135E+02  0.00000000000E+00 0.  1.
         25    2    1    2    0    0 -0.16974351433E+02  0.44445855055E+02  0.18405921585E+03  0.22757236831E+03  0.12509126764E+03 0.  0.
          5    1    3    3  502    0 -0.88375026236E+01  0.31269892302E+02  0.20134372251E+03  0.20399184937E+03  0.41800000000E+01 0.  1.
         -5    1    3    3    0  502 -0.81368488093E+01  0.13175962752E+02 -0.17284506657E+02  0.23580518937E+02  0.41800000000E+01 0.  1.
        -11    1    1    2    0    0  0.10055047003E+02 -0.85352385185E+01 -0.11620548803E+02  0.17578151817E+02  0.00000000000E+00 0.  1.
         11    1    1    2    0    0  0.69193044298E+01 -0.35910616536E+02  0.15597837113E+03  0.16020830632E+03  0.00000000000E+00 0. -1.
</event>
<event>
 7    1  0.2719869E-009  0.1099340E+03  0.7561462E-02  0.1260692E+00
          1   -1    0    0  501    0  0.00000000000E+00  0.00000000000E+00  0.78252901200E+02  0.78252901200E+02  0.00000000000E+00 0. -1.
         -1   -1    0    0    0  501 -0.00000000000E+00 -0.00000000000E+00 -0.18392198929E+03  0.18392198929E+03  0.00000000000E+00 0.  1.
         25    2    1    2    0    0  0.13868293614E+02 -0.44184764410E+02 -0.54012939695E+02  0.14390932777E+03  0.12509146251E+03 0.  0.
          5    1    3    3  502    0  0.26931096141E+02  0.39186658686E+02 -0.10509420611E+02  0.48875336110E+02  0.41800000000E+01 0.  1.
         -5    1    3    3    0  502 -0.13062802526E+02 -0.83371423095E+02 -0.43503519084E+02  0.95033991664E+02  0.41800000000E+01 0.  1.
        -11    1    1    2    0    0 -0.37574699143E+02  0.83598631089E-01 -0.56617323418E+02  0.67951352565E+02  0.00000000000E+00 0.  1.
         11    1    1    2    0    0  0.23706405529E+02  0.44101165779E+02  0.49611750184E+01  0.50314210157E+02  0.00000000000E+00 0. -1.
</event>
<event>
 7    1  0.2719869E-009  0.1111421E+03  0.7561462E-02  0.1258469E+00
         -1   -1    0    0    0  501 -0.00000000000E+00  0.00000000000E+00  0.10600740087E+02  0.10600740087E+02  0.00000000000E+00 0.  1.
          1   -1    0    0  501    0  0.00000000000E+00 -0.00000000000E+00 -0.25251324481E+04  0.25251324481E+04  0.00000000000E+00 0. -1.
         25    2    1    2    0    0  0.82774152195E+02  0.15575727713E+02 -0.20311703926E+04  0.20367609780E+04  0.12509178289E+03 0.  0.
          5    1    3    3  502    0  0.48016450049E+02  0.42593379866E+02 -0.18136928011E+04  0.18148330019E+04  0.41800000000E+01 0. -1.
         -5    1    3    3    0  502  0.34757702146E+02 -0.27017652153E+02 -0.21747759150E+03  0.22192797613E+03  0.41800000000E+01 0. -1.
        -11    1    1    2    0    0 -0.18316840089E+02 -0.40644253563E+02 -0.10092663410E+03  0.11033425329E+03  0.00000000000E+00 0.  1.
         11    1    1    2    0    0 -0.64457312106E+02  0.25068525850E+02 -0.38243468129E+03  0.38863795688E+03  0.00000000000E+00 0. -1.
</event>
<event>
 7    1  0.2719869E-009  0.1077487E+03  0.7561462E-02  0.1264797E+00
          1   -1    0    0  501    0  0.00000000000E+00  0.00000000000E+00  0.39658835397E+02  0.39658835397E+02  0.00000000000E+00 0. -1.
         -1   -1    0    0    0  501 -0.00000000000E+00 -0.00000000000E+00 -0.40830088535E+03  0.40830088535E+03  0.00000000000E+00 0.  1.
         25    2    1    2    0    0  0.45495359280E+02  0.12106601337E+01 -0.11919907973E+03  0.17868249848E+03  0.12509085195E+03 0.  0.
          5    1    3    3  502    0  0.84962821185E+02 -0.19157734487E+02 -0.90312121253E+02  0.12553665369E+03  0.41800000000E+01 0.  1.
         -5    1    3    3    0  502 -0.39467461904E+02  0.20368394621E+02 -0.28886958481E+02  0.53145844794E+02  0.41800000000E+01 0.  1.
        -11    1    1    2    0    0 -0.52133837584E+02  0.24164866618E+02 -0.22878145557E+03  0.23588732948E+03  0.00000000000E+00 0.  1.
         11    1    1    2    0    0  0.66384783041E+01 -0.25375526752E+02 -0.20661514658E+02  0.33389892783E+02  0.00000000000E+00 0. -1.
</event>
<event>
 7    1  0.2719869E-009  0.8562726E+02  0.7561462E-02  0.1313800E+00
          1   -1    0    0  501    0  0.00000000000E+00  0.00000000000E+00  0.32017386492E+03  0.32017386492E+03  0.00000000000E+00 0. -1.
         -1   -1    0    0    0  501 -0.00000000000E+00 -0.00000000000E+00 -0.45706490299E+02  0.45706490299E+02  0.00000000000E+00 0.  1.
         25    2    1    2    0    0 -0.36906233268E+02 -0.10040856738E+02  0.20745583773E+03  0.24525214934E+03  0.12509117991E+03 0.  0.
          5    1    3    3  502    0 -0.63732253767E+01  0.42484865998E+02  0.16615344051E+03  0.17166834313E+03  0.41800000000E+01 0. -1.
         -5    1    3    3    0  502 -0.30533007891E+02 -0.52525722736E+02  0.41302397213E+02  0.73583806203E+02  0.41800000000E+01 0. -1.
        -11    1    1    2    0    0  0.51570514653E+02  0.56178023430E+01 -0.13206880105E-01  0.51875599844E+02  0.00000000000E+00 0.  1.
         11    1    1    2    0    0 -0.14664281385E+02  0.44230543950E+01  0.67024743778E+02  0.68752606040E+02  0.00000000000E+00 0. -1.
</event>
<event>
 7    1  0.2729467E-009  0.1167834E+03  0.7561462E-02  0.1248500E+00
          2   -1    0    0  501    0  0.00000000000E+00  0.00000000000E+00  0.66355794295E+03  0.66355794295E+03  0.00000000000E+00 0. -1.
         -2   -1    0    0    0  501 -0.00000000000E+00 -0.00000000000E+00 -0.24952462065E+02  0.24952462065E+02  0.00000000000E+00 0.  1.
         25    2    1    2    0    0 -0.17961282992E+02 -0.43944252128E+02  0.48950985382E+03  0.50746234667E+03  0.12507770113E+03 0.  0.
          5    1    3    3  502    0 -0.24739322515E+02 -0.86123273257E+02  0.36078229394E+03  0.37176684669E+03  0.41800000000E+01 0.  1.
         -5    1    3    3    0  502  0.67780395234E+01  0.42179021128E+02  0.12872755988E+03  0.13569549998E+03  0.41800000000E+01 0.  1.
        -11    1    1    2    0    0  0.40594819065E+02 -0.10539908128E+02  0.45885156485E+02  0.62164914412E+02  0.00000000000E+00 0.  1.
         11    1    1    2    0    0 -0.22633536073E+02  0.54484160256E+02  0.10321047058E+03  0.11888314393E+03  0.00000000000E+00 0. -1.
</event>
<event>
 7    1  0.2719869E-009  0.1800934E+03  0.7561462E-02  0.1167713E+00
         -1   -1    0    0    0  501 -0.00000000000E+00  0.00000000000E+00  0.17347473773E+03  0.17347473773E+03  0.00000000000E+00 0.  1.
          1   -1    0    0  501    0  0.00000000000E+00 -0.00000000000E+00 -0.19454999275E+03  0.19454999275E+03  0.00000000000E+00 0. -1.
         25    2    1    2    0    0  0.11276133554E+03  0.95152489319E+02  0.44158977912E+01  0.19348477768E+03  0.12509094301E+03 0.  0.
          5    1    3    3  502    0  0.24212549636E+01 -0.27167709707E+02 -0.64589983362E+01  0.28339689233E+02  0.41800000000E+01 0.  1.
         -5    1    3    3    0  502  0.11034008058E+03  0.12232019903E+03  0.10874896127E+02  0.16514508845E+03  0.41800000000E+01 0.  1.
        -11    1    1    2    0    0 -0.74054812940E+02 -0.10592357751E+02 -0.31890120569E+02  0.81322156589E+02  0.00000000000E+00 0.  1.
         11    1    1    2    0    0 -0.38706522603E+02 -0.84560131568E+02  0.63989677546E+01  0.93217796215E+02  0.00000000000E+00 0. -1.
</event>
<event>
 7    1  0.2719869E-009  0.7598703E+02  0.7561462E-02  0.1340841E+00
          2   -1    0    0  501    0  0.00000000000E+00  0.00000000000E+00  0.35101490643E+03  0.35101490643E+03  0.00000000000E+00 0. -1.
         -2   -1    0    0    0  501 -0.00000000000E+00 -0.00000000000E+00 -0.36874422824E+02  0.36874422824E+02  0.00000000000E+00 0.  1.
         25    2    1    2    0    0  0.14088418906E+02  0.27619685225E+02  0.20783615672E+03  0.24455087654E+03  0.12509169684E+03 0.  0.
          5    1    3    3  502    0  0.47124803500E+02 -0.10097781682E+02  0.24092087039E+02  0.54042699393E+02  0.41800000000E+01 0. -1.
         -5    1    3    3    0  502 -0.33036384594E+02  0.37717466908E+02  0.18374406969E+03  0.19050817715E+03  0.41800000000E+01 0. -1.
        -11    1    1    2    0    0 -0.16193772303E+02  0.76798025465E+01  0.10647796913E+03  0.10797580997E+03  0.00000000000E+00 0. -1.
         11    1    1    2    0    0  0.21053533972E+01 -0.35299487772E+02 -0.17364224886E+00  0.35362642739E+02  0.00000000000E+00 0.  1.
</event>
<event>
 7    1  0.2719869E-009  0.8291101E+02  0.7561462E-02  0.1320988E+00
          1   -1    0    0  501    0  0.00000000000E+00  0.00000000000E+00  0.34864075726E+02  0.34864075726E+02  0.00000000000E+00 0. -1.
         -1   -1    0    0    0  501 -0.00000000000E+00 -0.00000000000E+00 -0.39216070462E+03  0.39216070462E+03  0.00000000000E+00 0.  1.
         25    2    1    2    0    0  0.37309735867E+02 -0.26798311142E+01 -0.24787451394E+03  0.28015753444E+03  0.12508905452E+03 0.  0.
          5    1    3    3  502    0 -0.20975192049E+02  0.36825334075E+02 -0.32626827693E+02  0.53647424883E+02  0.41800000000E+01 0. -1.
         -5    1    3    3    0  502  0.58284927916E+02 -0.39505165189E+02 -0.21524768624E+03  0.22651010956E+03  0.41800000000E+01 0. -1.
        -11    1    1    2    0    0 -0.13115926488E+02  0.19309630911E+02 -0.11468914183E+03  0.11704054267E+03  0.00000000000E+00 0.  1.
         11    1    1    2    0    0 -0.24193809378E+02 -0.16629799797E+02  0.52670268802E+01  0.29826703232E+02  0.00000000000E+00 0. -1.
</event>
<event>
 7    1  0.2719869E-009  0.6394911E+02  0.7561462E-02  0.1381969E+00
          2   -1    0    0  501    0  0.00000000000E+00  0.00000000000E+00  0.21541694572E+03  0.21541694572E+03  0.00000000000E+00 0. -1.
         -2   -1    0    0    0  501 -0.00000000000E+00 -0.00000000000E+00 -0.87200736589E+02  0.87200736589E+02  0.00000000000E+00 0.  1.
         25    2    1    2    0    0  0.12249458376E+02  0.61477635818E+02  0.11803038230E+02  0.14041774911E+03  0.12509309980E+03 0.  0.
          5    1    3    3  502    0  0.19606256814E+01  0.21747707737E+02  0.67522886983E+02  0.71088814249E+02  0.41800000000E+01 0.  1.
         -5    1    3    3    0  502  0.10288832695E+02  0.39729928081E+02 -0.55719848753E+02  0.69328934858E+02  0.41800000000E+01 0.  1.
        -11    1    1    2    0    0 -0.45947949568E+01 -0.52125314286E+02  0.13228043624E+03  0.14225425949E+03  0.00000000000E+00 0. -1.
         11    1    1    2    0    0 -0.76546634194E+01 -0.93523215312E+01 -0.15867265346E+02  0.19945673708E+02  0.00000000000E+00 0.  1.
</event>
<event>
 7    1  0.2719869E-009  0.1134113E+03  0.7561462E-02  0.1254380E+00
          2   -1    0    0  501    0  0.00000000000E+00  0.00000000000E+00  0.16529911515E+03  0.16529911515E+03  0.00000000000E+00 0. -1.
         -2   -1    0    0    0  501 -0.00000000000E+00 -0.00000000000E+00 -0.13268934823E+03  0.13268934823E+03  0.00000000000E+00 0.  1.
         25    2    1    2    0    0 -0.19221497575E+02  0.41147493013E+02 -0.73497323289E+02  0.15203508059E+03  0.12510086750E+03 0.  0.
          5    1    3    3  502    0  0.30113277665E+02 -0.28152990234E+02 -0.31240933965E+01  0.41552770189E+02  0.41800000000E+01 0.  1.
         -5    1    3    3    0  502 -0.49334775241E+02  0.69300483247E+02 -0.70373229893E+02  0.11048231040E+03  0.41800000000E+01 0.  1.
        -11    1    1    2    0    0 -0.25102680119E+02 -0.49138034241E+02  0.58703087693E+02  0.80565150425E+02  0.00000000000E+00 0. -1.
         11    1    1    2    0    0  0.44324177694E+02  0.79905412282E+01  0.47404002520E+02  0.65388232369E+02  0.00000000000E+00 0.  1.
</event>
<event>
 7    1  0.2719869E-009  0.1020621E+03  0.7561462E-02  0.1276018E+00
         -1   -1    0    0    0  501 -0.00000000000E+00  0.00000000000E+00  0.34328173678E+02  0.34328173678E+02  0.00000000000E+00 0.  1.
          1   -1    0    0  501    0  0.00000000000E+00 -0.00000000000E+00 -0.40781312996E+03  0.40781312996E+03  0.00000000000E+00 0. -1.
         25    2    1    2    0    0  0.28384688598E+02  0.26647156115E+02 -0.15847081895E+03  0.20561274074E+03  0.12509131553E+03 0.  0.
          5    1    3    3  502    0  0.59069971384E+02 -0.28419695774E+02 -0.99263513024E+02  0.11902797169E+03  0.41800000000E+01 0. -1.
         -5    1    3    3    0  502 -0.30685282786E+02  0.55066851888E+02 -0.59207305925E+02  0.86584769050E+02  0.41800000000E+01 0. -1.
        -11    1    1    2    0    0  0.32027445283E+01 -0.40603171253E+02 -0.36456297323E+02  0.54662022491E+02  0.00000000000E+00 0.  1.
         11    1    1    2    0    0 -0.31587433127E+02  0.13956015139E+02 -0.17855784001E+03  0.18186654041E+03  0.00000000000E+00 0. -1.
</event>
<event>
 7    1  0.2719869E-009  0.1097960E+03  0.7561462E-02  0.1260948E+00
          2   -1    0    0  501    0  0.00000000000E+00  0.00000000000E+00  0.43553912824E+03  0.43553912824E+03  0.00000000000E+00 0. -1.
         -2   -1    0    0    0  501 -0.00000000000E+00 -0.00000000000E+00 -0.44794810709E+02  0.44794810709E+02  0.00000000000E+00 0.  1.
         25    2    1    2    0    0 -0.79617909903E+02 -0.11826303319E+02  0.27303645688E+03  0.31093328658E+03  0.12510686989E+03 0.  0.
          5    1    3    3  502    0  0.19930745006E+02  0.18538301276E+02  0.13623936708E+03  0.13899475081E+03  0.41800000000E+01 0. -1.
         -5    1    3    3    0  502 -0.99548654909E+02 -0.30364604595E+02  0.13679708979E+03  0.17193853577E+03  0.41800000000E+01 0. -1.
        -11    1    1    2    0    0  0.24932639904E+02  0.20808256517E+02 -0.67439202978E+01  0.33167763458E+02  0.00000000000E+00 0.  1.
         11    1    1    2    0    0  0.54685270000E+02 -0.89819531983E+01  0.12445178095E+03  0.13623288891E+03  0.00000000000E+00 0. -1.
</event>
<event>
 7    1  0.2719869E-009  0.2815048E+03  0.7561462E-02  0.1094870E+00
          1   -1    0    0  501    0  0.00000000000E+00  0.00000000000E+00  0.64742601848E+03  0.64742601848E+03  0.00000000000E+00 0. -1.
         -1   -1    0    0    0  501 -0.00000000000E+00 -0.00000000000E+00 -0.13380859927E+03  0.13380859927E+03  0.00000000000E+00 0.  1.
         25    2    1    2    0    0  0.11552983863E+03  0.23540715196E+03  0.36577709721E+03  0.46712263958E+03  0.12508798805E+03 0.  0.
          5    1    3    3  502    0  0.27703085553E+02 -0.81534605545E+01  0.57829210130E+02  0.64773681480E+02  0.41800000000E+01 0. -1.
         -5    1    3    3    0  502  0.87826753076E+02  0.24356061251E+03  0.30794788708E+03  0.40234895810E+03  0.41800000000E+01 0. -1.
        -11    1    1    2    0    0 -0.12768687618E+03 -0.19844803237E+03  0.14012891126E+03  0.27444793982E+03  0.00000000000E+00 0. -1.
         11    1    1    2    0    0  0.12157037553E+02 -0.36959119588E+02  0.77114107379E+01  0.39664038352E+02  0.00000000000E+00 0.  1.
</event>
<event>
 7    1  0.2719869E-009  0.1196320E+03  0.7561462E-02  0.1243705E+00
          2   -1    0    0  501    0  0.00000000000E+00  0.00000000000E+00  0.42135508984E+03  0.42135508984E+03  0.00000000000E+00 0. -1.
         -2   -1    0    0    0  501 -0.00000000000E+00 -0.00000000000E+00 -0.39762036865E+02  0.39762036865E+02  0.00000000000E+00 0.  1.
         25    2    1    2    0    0  0.91308192529E+01 -0.59216322176E+02  0.14664759272E+03  0.20184996606E+03  0.12509175701E+03 0.  0.
          5    1    3    3  502    0  0.53271574015E+02  0.29587116320E+01  0.96942138358E+02  0.11073330647E+03  0.41800000000E+01 0. -1.
         -5    1    3    3    0  502 -0.44140754762E+02 -0.62175033808E+02  0.49705454367E+02  0.91116659584E+02  0.41800000000E+01 0. -1.
        -11    1    1    2    0    0 -0.28682444586E+02  0.77485105989E+02  0.18478526312E+03  0.20241595229E+03  0.00000000000E+00 0. -1.
         11    1    1    2    0    0  0.19551625333E+02 -0.18268783813E+02  0.50160197134E+02  0.56851208357E+02  0.00000000000E+00 0.  1.
</event>
<event>
 7    1  0.2719869E-009  0.1805893E+03  0.7561462E-02  0.1167234E+00
          1   -1    0    0  501    0  0.00000000000E+00  0.00000000000E+00  0.17420937372E+04  0.17420937372E+04  0.00000000000E+00 0.  1.
         -1   -1    0    0    0  501 -0.00000000000E+00 -0.00000000000E+00 -0.19317171861E+02  0.19317171861E+02  0.00000000000E+00 0. -1.
         25    2    1    2    0    0 -0.14471401009E+03 -0.82166164812E+01  0.81410886424E+03  0.83631963075E+03  0.12509046501E+03 0.  0.
          5    1    3    3  502    0 -0.63325798140E+02 -0.63098350397E+02  0.30690023504E+03  0.31968231919E+03  0.41800000000E+01 0. -1.
         -5    1    3    3    0  502 -0.81388211949E+02  0.54881733916E+02  0.50720862920E+03  0.51663731156E+03  0.41800000000E+01 0. -1.
        -11    1    1    2    0    0  0.54071253038E+02  0.49979701344E+02  0.40207285754E+03  0.40875940812E+03  0.00000000000E+00 0. -1.
         11    1    1    2    0    0  0.90642757051E+02 -0.41763084863E+02  0.50659484352E+03  0.51633187016E+03  0.00000000000E+00 0.  1.
</event>
<event>
 7    1  0.2719869E-009  0.1083844E+03  0.7561462E-02  0.1263591E+00
          3   -1    0    0  501    0  0.00000000000E+00  0.00000000000E+00  0.39285994828E+03  0.39285994828E+03  0.00000000000E+00 0. -1.
         -3   -1    0    0    0  501 -0.00000000000E+00 -0.00000000000E+00 -0.42294900346E+02  0.42294900346E+02  0.00000000000E+00 0.  1.
         25    2    1    2    0    0 -0.76050870733E+02 -0.50462861751E+02  0.26802446490E+03  0.30954105882E+03  0.12509323704E+03 0.  0.
          5    1    3    3  502    0 -0.93794245895E+02 -0.50886176909E+02  0.12098000886E+03  0.16137037679E+03  0.41800000000E+01 0. -1.
         -5    1    3    3    0  502  0.17743375162E+02  0.42331515802E+00  0.14704445604E+03  0.14817068202E+03  0.41800000000E+01 0. -1.
        -11    1    1    2    0    0  0.24523647969E+02  0.21623950315E+02  0.15215513067E+02  0.36062672874E+02  0.00000000000E+00 0. -1.
         11    1    1    2    0    0  0.51527222764E+02  0.28838911436E+02  0.67325069970E+02  0.89551116939E+02  0.00000000000E+00 0.  1.
</event>
<event>
 7    1  0.2719869E-009  0.1223065E+03  0.7561462E-02  0.1239340E+00
         -2   -1    0    0    0  501 -0.00000000000E+00  0.00000000000E+00  0.73193732827E+02  0.73193732827E+02  0.00000000000E+00 0.  1.
          2   -1    0    0  501    0  0.00000000000E+00 -0.00000000000E+00 -0.32741275378E+03  0.32741275378E+03  0.00000000000E+00 0. -1.
         25    2    1    2    0    0 -0.65712815257E+02  0.89353610063E+02 -0.14852901342E+03  0.22362637688E+03  0.12508256028E+03 0.  0.
          5    1    3    3  502    0 -0.77994006214E+02  0.55973863338E+02 -0.31317963720E+02  0.10106644168E+03  0.41800000000E+01 0.  1.
         -5    1    3    3    0  502  0.12281190957E+02  0.33379746725E+02 -0.11721104970E+03  0.12255993520E+03  0.41800000000E+01 0.  1.
        -11    1    1    2    0    0  0.49737144421E+02 -0.51371331574E+02 -0.11435861112E+03  0.13487286302E+03  0.00000000000E+00 0. -1.
         11    1    1    2    0    0  0.15975670836E+02 -0.37982278488E+02  0.86686035832E+01  0.42107246715E+02  0.00000000000E+00 0.  1.
</event>
<event>
 7    1  0.2719869E-009  0.1015612E+03  0.7561462E-02  0.1277047E+00
         -2   -1    0    0    0  501 -0.00000000000E+00  0.00000000000E+00  0.54548803910E+02  0.54548803910E+02  0.00000000000E+00 0.  1.
          2   -1    0    0  501    0  0.00000000000E+00 -0.00000000000E+00 -0.24249957450E+03  0.24249957450E+03  0.00000000000E+00 0. -1.
         25    2    1    2    0    0  0.27778076805E+01 -0.22976554876E+02 -0.66673981682E+02  0.14362757760E+03  0.12509125838E+03 0.  0.
          5    1    3    3  502    0 -0.48450145937E+02 -0.36272909101E+02 -0.67200683301E+02  0.90534771287E+02  0.41800000000E+01 0. -1.
         -5    1    3    3    0  502  0.51227953618E+02  0.13296354225E+02  0.52670161823E+00  0.53092806312E+02  0.41800000000E+01 0. -1.
        -11    1    1    2    0    0  0.30651037507E+02  0.41152914416E+02 -0.92255647269E+02  0.10556587004E+03  0.00000000000E+00 0. -1.
         11    1    1    2    0    0 -0.33428845188E+02 -0.18176359539E+02 -0.29021141639E+02  0.47854930767E+02  0.00000000000E+00 0.  1.
</event>
<event>
 7    1  0.2719869E-009  0.1039803E+03  0.7561462E-02  0.1272142E+00
          1   -1    0    0  501    0  0.00000000000E+00  0.00000000000E+00  0.58244963786E+03  0.58244963786E+03  0.00000000000E+00 0. -1.
         -1   -1    0    0    0  501 -0.00000000000E+00 -0.00000000000E+00 -0.23847232961E+02  0.23847232961E+02  0.00000000000E+00 0.  1.
         25    2    1    2    0    0 -0.22574685704E+02 -0.36412116284E+02  0.28915757049E+03  0.31795442422E+03  0.12508979438E+03 0.  0.
          5    1    3    3  502    0  0.24895843465E+01  0.32002530782E+02  0.17773927150E+02  0.36928916760E+02  0.41800000000E+01 0.  1.
         -5    1    3    3    0  502 -0.25064270050E+02 -0.68414647066E+02  0.27138364334E+03  0.28102550746E+03  0.41800000000E+01 0.  1.
        -11    1    1    2    0    0 -0.19382211580E+02  0.53805391238E+02  0.14528615112E+03  0.15613697819E+03  0.00000000000E+00 0.  1.
         11    1    1    2    0    0  0.41956897283E+02 -0.17393274954E+02  0.12415868329E+03  0.13220546841E+03  0.00000000000E+00 0. -1.
</event>
<event>
 7    1  0.2719869E-009  0.1401365E+03  0.7561462E-02  0.1213145E+00
         -2   -1    0    0    0  501 -0.00000000000E+00  0.00000000000E+00  0.31286521472E+02  0.31286521472E+02  0.00000000000E+00 0.  1.
          2   -1    0    0  501    0  0.00000000000E+00 -0.00000000000E+00 -0.83015699413E+03  0.83015699413E+03  0.00000000000E+00 0. -1.
         25    2    1    2    0    0  0.27112015011E+02  0.10637864150E+03 -0.55639206252E+03  0.58075027026E+03  0.12508905806E+03 0.  0.
          5    1    3    3  502    0 -0.38196924529E+02  0.24896970740E+02 -0.30625888167E+03  0.30966246010E+03  0.41800000000E+01 0. -1.
         -5    1    3    3    0  502  0.65308939540E+02  0.81481670761E+02 -0.25013318086E+03  0.27108781017E+03  0.41800000000E+01 0. -1.
        -11    1    1    2    0    0 -0.44874211147E+02 -0.36399485455E+02 -0.54913316463E+02  0.79712544135E+02  0.00000000000E+00 0.  1.
         11    1    1    2    0    0  0.17762196136E+02 -0.69979156046E+02 -0.18756509367E+03  0.20098070121E+03  0.00000000000E+00 0. -1.
</event>
<event>
 7    1  0.2719869E-009  0.1088639E+03  0.7561462E-02  0.1262688E+00
         -1   -1    0    0    0  501 -0.00000000000E+00  0.00000000000E+00  0.65184564869E+02  0.65184564869E+02  0.00000000000E+00 0.  1.
          1   -1    0    0  501    0  0.00000000000E+00 -0.00000000000E+00 -0.26883987185E+03  0.26883987185E+03  0.00000000000E+00 0. -1.
         25    2    1    2    0    0 -0.34157573755E+02 -0.26286475472E+02 -0.18002695853E+03  0.22341386869E+03  0.12508530005E+03 0.  0.
          5    1    3    3  502    0 -0.75608216714E+02 -0.22120030108E+02 -0.69186255874E+02  0.10492906446E+03  0.41800000000E+01 0. -1.
         -5    1    3    3    0  502  0.41450642959E+02 -0.41664453636E+01 -0.11084070266E+03  0.11848480423E+03  0.41800000000E+01 0. -1.
        -11    1    1    2    0    0  0.63559868229E+02  0.13878098032E+02  0.81593654013E+01  0.65567016845E+02  0.00000000000E+00 0.  1.
         11    1    1    2    0    0 -0.29402294474E+02  0.12408377440E+02 -0.31787713850E+02  0.45043551179E+02  0.00000000000E+00 0. -1.
</event>
<event>
 7    1  0.2719869E-009  0.1277661E+03  0.7561462E-02  0.1230809E+00
         -2   -1    0    0    0  501 -0.00000000000E+00  0.00000000000E+00  0.42034701608E+03  0.42034701608E+03  0.00000000000E+00 0.  1.
          2   -1    0    0  501    0  0.00000000000E+00 -0.00000000000E+00 -0.48214107118E+02  0.48214107118E+02  0.00000000000E+00 0. -1.
         25    2    1    2    0    0 -0.12628235537E+02 -0.76937337897E+02  0.28843933619E+03  0.32391243208E+03  0.12507272565E+03 0.  0.
          5    1    3    3  502    0  0.12001693364E+02 -0.10711346073E+03  0.22105970851E+03  0.24597195214E+03  0.41800000000E+01 0. -1.
         -5    1    3    3    0  502 -0.24629928901E+02  0.30176122837E+02  0.67379627675E+02  0.77940479937E+02  0.41800000000E+01 0. -1.
        -11    1    1    2    0    0 -0.31318661613E+02  0.22673332657E+02  0.59085271845E+02  0.70611669914E+02  0.00000000000E+00 0.  1.
         11    1    1    2    0    0  0.43946897151E+02  0.54264005241E+02  0.24608300931E+02  0.74037021203E+02  0.00000000000E+00 0. -1.
</event>
<event>
 7    1  0.2719869E-009  0.1330861E+03  0.7561462E-02  0.1222947E+00
          1   -1    0    0  501    0  0.00000000000E+00  0.00000000000E+00  0.23661443611E+03  0.23661443611E+03  0.00000000000E+00 0. -1.
         -1   -1    0    0    0  501 -0.00000000000E+00 -0.00000000000E+00 -0.87229627369E+02  0.87229627369E+02  0.00000000000E+00 0.  1.
         25    2    1    2    0    0 -0.79910425145E+02 -0.39116689958E+02  0.11994431592E+03  0.19480566139E+03  0.12508723079E+03 0.  0.
          5    1    3    3  502    0  0.23987212291E+02 -0.32297883482E+02  0.68504854924E+01  0.41023666126E+02  0.41800000000E+01 0.  1.
         -5    1    3    3    0  502 -0.10389763744E+03 -0.68188064764E+01  0.11309383043E+03  0.15378199526E+03  0.41800000000E+01 0.  1.
        -11    1    1    2    0    0  0.67988128478E+02  0.64349338012E+02  0.36126551326E+02  0.10034117115E+03  0.00000000000E+00 0.  1.
         11    1    1    2    0    0  0.11922296667E+02 -0.25232648053E+02 -0.66860585028E+01  0.28697230945E+02  0.00000000000E+00 0. -1.
</event>
<event>
 7    1  0.2719869E-009  0.1026017E+03  0.7561462E-02  0.1274918E+00
          1   -1    0    0  501    0  0.00000000000E+00  0.00000000000E+00  0.18301731142E+03  0.18301731142E+03  0.00000000000E+00 0. -1.
         -1   -1    0    0    0  501 -0.00000000000E+00 -0.00000000000E+00 -0.65877841241E+02  0.65877841241E+02  0.00000000000E+00 0.  1.
         25    2    1    2    0    0 -0.30238575081E+00 -0.31302128394E+02  0.72907052785E+02  0.14813376927E+03  0.12509300769E+03 0.  0.
          5    1    3    3  502    0 -0.70528513003E+01 -0.72379759791E+02  0.11375018532E+02  0.73725408004E+02  0.41800000000E+01 0.  1.
         -5    1    3    3    0  502  0.67504655495E+01  0.41077631396E+02  0.61532034253E+02  0.74408361261E+02  0.41800000000E+01 0.  1.
        -11    1    1    2    0    0 -0.41002305125E+02  0.26776307365E+02  0.23153438797E+02  0.54168638434E+02  0.00000000000E+00 0. -1.
         11    1    1    2    0    0  0.41304690876E+02  0.45258210295E+01  0.21078978597E+02  0.46592744961E+02  0.00000000000E+00 0.  1.
</event>
<event>
 7    1  0.2719869E-009  0.1398750E+03  0.7561462E-02  0.1213497E+00
         -1   -1    0    0    0  501 -0.00000000000E+00  0.00000000000E+00  0.36341278063E+02  0.36341278063E+02  0.00000000000E+00 0.  1.
          1   -1    0    0  501    0  0.00000000000E+00 -0.00000000000E+00 -0.73412460691E+03  0.73412460691E+03  0.00000000000E+00 0. -1.
         25    2    1    2    0    0  0.61084645928E+02 -0.97884899657E+02 -0.46445449130E+03  0.49465032223E+03  0.12509268264E+03 0.  0.
          5    1    3    3  502    0 -0.21201682001E+02 -0.82118148306E+01 -0.22329046663E+03  0.22448396404E+03  0.41800000000E+01 0.  1.
         -5    1    3    3    0  502  0.82286327929E+02 -0.89673084826E+02 -0.24116402467E+03  0.27016635819E+03  0.41800000000E+01 0.  1.
        -11    1    1    2    0    0 -0.20748892097E+02  0.91736005867E+02 -0.10408572384E+03  0.14028488587E+03  0.00000000000E+00 0.  1.
         11    1    1    2    0    0 -0.40335753831E+02  0.61488937899E+01 -0.12924311371E+03  0.13553067687E+03  0.00000000000E+00 0. -1.
</event>
<event>
 7    1  0.2719869E-009  0.2161286E+03  0.7561462E-02  0.1136803E+00
          1   -1    0    0  501    0  0.00000000000E+00  0.00000000000E+00  0.54440373226E+03  0.54440373226E+03  0.00000000000E+00 0. -1.
         -1   -1    0    0    0  501 -0.00000000000E+00 -0.00000000000E+00 -0.92620315453E+02  0.92620315453E+02  0.00000000000E+00 0.  1.
         25    2    1    2    0    0 -0.11286366711E+03  0.15471511686E+03  0.29082007540E+03  0.36999833087E+03  0.12508986311E+03 0.  0.
          5    1    3    3  502    0  0.44717457935E+00  0.87189257312E+02  0.16987152783E+03  0.19098684489E+03  0.41800000000E+01 0.  1.
         -5    1    3    3    0  502 -0.11331084169E+03  0.67525859553E+02  0.12094854757E+03  0.17901148598E+03  0.41800000000E+01 0.  1.
        -11    1    1    2    0    0  0.17986619591E+02 -0.10374641609E+03  0.82812370082E+02  0.13395792614E+03  0.00000000000E+00 0.  1.
         11    1    1    2    0    0  0.94877047518E+02 -0.50968700774E+02  0.78150971323E+02  0.13306779070E+03  0.00000000000E+00 0. -1.
</event>
<event>
 7    1  0.2719869E-009  0.1484837E+03  0.7561462E-02  0.1202349E+00
         -1   -1    0    0    0  501 -0.00000000000E+00  0.00000000000E+00  0.28888318396E+03  0.28888318396E+03  0.00000000000E+00 0.  1.
          1   -1    0    0  501    0  0.00000000000E+00 -0.00000000000E+00 -0.10981490327E+03  0.10981490327E+03  0.00000000000E+00 0. -1.
         25    2    1    2    0    0 -0.12516707342E+03 -0.60772367029E+02  0.67512942424E+02  0.19890977674E+03  0.12508806908E+03 0.  0.
          5    1    3    3  502    0 -0.11302379880E+03 -0.47060591413E+02 -0.63787865796E+01  0.12266719072E+03  0.41800000000E+01 0.  1.
         -5    1    3    3    0  502 -0.12143274621E+02 -0.13711775616E+02  0.73891729004E+02  0.76242586028E+02  0.41800000000E+01 0.  1.
        -11    1    1    2    0    0  0.97735308917E+02  0.76449752072E+02  0.56567454955E+02  0.13636946931E+03  0.00000000000E+00 0. -1.
         11    1    1    2    0    0  0.27431764505E+02 -0.15677385044E+02  0.54987883305E+02  0.63418841176E+02  0.00000000000E+00 0.  1.
</event>
<event>
 7    1  0.2719869E-009  0.1151943E+03  0.7561462E-02  0.1251242E+00
          1   -1    0    0  501    0  0.00000000000E+00  0.00000000000E+00  0.10879501911E+04  0.10879501911E+04  0.00000000000E+00 0. -1.
         -1   -1    0    0    0  501 -0.00000000000E+00 -0.00000000000E+00 -0.33315977142E+02  0.33315977142E+02  0.00000000000E+00 0.  1.
         25    2    1    2    0    0 -0.45621367965E+02  0.65049638905E+02  0.94463040190E+03  0.95618472309E+03  0.12509941542E+03 0.  0.
          5    1    3    3  502    0  0.33124938181E+02  0.36803082987E+02  0.57684459779E+03  0.57898090715E+03  0.41800000000E+01 0. -1.
         -5    1    3    3    0  502 -0.78746306146E+02  0.28246555918E+02  0.36778580411E+03  0.37720381594E+03  0.41800000000E+01 0. -1.
        -11    1    1    2    0    0  0.30496992556E+02 -0.73523559699E+02  0.33028632273E+02  0.86178134904E+02  0.00000000000E+00 0.  1.
         11    1    1    2    0    0  0.15124375409E+02  0.84739207935E+01  0.76975179744E+02  0.78903310208E+02  0.00000000000E+00 0. -1.
</event>
<event>
 7    1  0.2719869E-009  0.9993252E+02  0.7561462E-02  0.1280438E+00
         -2   -1    0    0    0  501 -0.00000000000E+00  0.00000000000E+00  0.14072154375E+03  0.14072154375E+03  0.00000000000E+00 0.  1.
          2   -1    0    0  501    0  0.00000000000E+00 -0.00000000000E+00 -0.12084891009E+03  0.12084891009E+03  0.00000000000E+00 0. -1.
         25    2    1    2    0    0 -0.71777783769E+02 -0.69196305302E+01  0.88654069292E+01  0.14466284060E+03  0.12509520567E+03 0.  0.
          5    1    3    3  502    0 -0.40423748803E+02  0.24987359117E+02  0.59960600516E+02  0.76623714326E+02  0.41800000000E+01 0.  1.
         -5    1    3    3    0  502 -0.31354034966E+02 -0.31906989647E+02 -0.51095193587E+02  0.68039126278E+02  0.41800000000E+01 0.  1.
        -11    1    1    2    0    0  0.62435450850E+02  0.39135126170E+02 -0.14081390725E+02  0.75020191868E+02  0.00000000000E+00 0.  1.
         11    1    1    2    0    0  0.93423329185E+01 -0.32215495639E+02  0.25088617454E+02  0.41887421374E+02  0.00000000000E+00 0. -1.
</event>
<event>
 7    1  0.2719869E-009  0.1140512E+03  0.7561462E-02  0.1253246E+00
         -2   -1    0    0    0  501 -0.00000000000E+00  0.00000000000E+00  0.17224818517E+02  0.17224818517E+02  0.00000000000E+00 0.  1.
          2   -1    0    0  501    0  0.00000000000E+00 -0.00000000000E+00 -0.81540879787E+03  0.81540879787E+03  0.00000000000E+00 0. -1.
         25    2    1    2    0    0  0.41853177150E+02 -0.12672291779E+02 -0.52985838553E+03  0.54617754748E+03  0.12509088393E+03 0.  0.
          5    1    3    3  502    0  0.57492641053E+02 -0.59252735500E+02 -0.30763247399E+03  0.31854591803E+03  0.41800000000E+01 0.  1.
         -5    1    3    3    0  502 -0.15639463903E+02  0.46580443721E+02 -0.22222591154E+03  0.22763162945E+03  0.41800000000E+01 0.  1.
        -11    1    1    2    0    0 -0.26251155923E+02  0.49553269572E+02 -0.11437504075E+03  0.12738249353E+03  0.00000000000E+00 0.  1.
         11    1    1    2    0    0 -0.15602021226E+02 -0.36880977792E+02 -0.15395055307E+03  0.15907357537E+03  0.00000000000E+00 0. -1.
</event>
<event>
 7    1  0.2719869E-009  0.9054834E+02  0.7561462E-02  0.1301529E+00
         -2   -1    0    0    0  501 -0.00000000000E+00  0.00000000000E+00  0.10785695703E+03  0.10785695703E+03  0.00000000000E+00 0.  1.
          2   -1    0    0  501    0  0.00000000000E+00 -0.00000000000E+00 -0.19750003550E+03  0.19750003550E+03  0.00000000000E+00 0. -1.
         25    2    1    2    0    0 -0.30314080744E+02  0.34315925596E+02 -0.13863563981E+03  0.19226266072E+03  0.12509421985E+03 0.  0.
          5    1    3    3  502    0  0.22328847835E+02  0.12589193346E+02 -0.13228124246E+03  0.13480676816E+03  0.41800000000E+01 0. -1.
         -5    1    3    3    0  502 -0.52642928578E+02  0.21726732251E+02 -0.63543973448E+01  0.57455892554E+02  0.41800000000E+01 0. -1.
        -11    1    1    2    0    0 -0.20679453853E+02 -0.41651866641E+02  0.38830364783E+02  0.60583125006E+02  0.00000000000E+00 0.  1.
         11    1    1    2    0    0  0.50993534597E+02  0.73359410450E+01  0.10162196550E+02  0.52511206808E+02  0.00000000000E+00 0. -1.
</event>
<event>
 7    1  0.2719869E-009  0.1419619E+03  0.7561462E-02  0.1210713E+00
         -2   -1    0    0    0  501 -0.00000000000E+00  0.00000000000E+00  0.29734420725E+02  0.29734420725E+02  0.00000000000E+00 0.  1.
          2   -1    0    0  501    0  0.00000000000E+00 -0.00000000000E+00 -0.16254391510E+04  0.16254391510E+04  0.00000000000E+00 0. -1.
         25    2    1    2    0    0  0.79991338451E+01 -0.12776625134E+03 -0.13664046691E+04  0.13780775804E+04  0.12509155257E+03 0.  0.
          5    1    3    3  502    0 -0.73079379001E+01 -0.87956795822E+02 -0.12637693568E+04  0.12668544761E+04  0.41800000000E+01 0. -1.
         -5    1    3    3    0  502  0.15307071745E+02 -0.39809455522E+02 -0.10263531231E+03  0.11122310429E+03  0.41800000000E+01 0. -1.
        -11    1    1    2    0    0  0.30509199679E+02  0.10177831824E+03 -0.18233988295E+03  0.21103902541E+03  0.00000000000E+00 0. -1.
         11    1    1    2    0    0 -0.38508333524E+02  0.25987933101E+02 -0.46960178214E+02  0.66056965988E+02  0.00000000000E+00 0.  1.
</event>
<event>
 7    1  0.2719869E-009  0.1401774E+03  0.7561462E-02  0.1213090E+00
          2   -1    0    0  501    0  0.00000000000E+00  0.00000000000E+00  0.11150342406E+04  0.11150342406E+04  0.00000000000E+00 0. -1.
         -2   -1    0    0    0  501 -0.00000000000E+00 -0.00000000000E+00 -0.19126053782E+02  0.19126053782E+02  0.00000000000E+00 0.  1.
         25    2    1    2    0    0  0.93128162407E+02 -0.13361259449E+02  0.73601458787E+03  0.75247406220E+03  0.12509341648E+03 0.  0.
          5    1    3    3  502    0  0.43551788835E+02  0.54151526787E+02  0.26165679147E+03  0.27075984762E+03  0.41800000000E+01 0.  1.
         -5    1    3    3    0  502  0.49576373572E+02 -0.67512786236E+02  0.47435779640E+03  0.48171421458E+03  0.41800000000E+01 0.  1.
        -11    1    1    2    0    0 -0.10088070057E+03  0.32691641800E+02  0.30926766473E+03  0.32694364597E+03  0.00000000000E+00 0. -1.
         11    1    1    2    0    0  0.77525381652E+01 -0.19330382351E+02  0.50625934263E+02  0.54742586254E+02  0.00000000000E+00 0.  1.
</event>
<event>
 7    1  0.2719869E-009  0.1238638E+03  0.7561462E-02  0.1236856E+00
          3   -1    0    0  501    0  0.00000000000E+00  0.00000000000E+00  0.57661224463E+02  0.57661224463E+02  0.00000000000E+00 0. -1.
         -3   -1    0    0    0  501 -0.00000000000E+00 -0.00000000000E+00 -0.41517004942E+03  0.41517004942E+03  0.00000000000E+00 0.  1.
         25    2    1    2    0    0 -0.13515350344E+01 -0.78505260337E+02 -0.72464624863E+02  0.16450684590E+03  0.12508588227E+03 0.  0.
          5    1    3    3  502    0 -0.12062149489E+02 -0.11175472797E+03 -0.56458770332E+02  0.12585578978E+03  0.41800000000E+01 0. -1.
         -5    1    3    3    0  502  0.10710614455E+02  0.33249467633E+02 -0.16005854530E+02  0.38651056119E+02  0.41800000000E+01 0. -1.
        -11    1    1    2    0    0 -0.30264860659E+02  0.42059483291E+02 -0.22703350117E+03  0.23287157959E+03  0.00000000000E+00 0.  1.
         11    1    1    2    0    0  0.31616395694E+02  0.36445777047E+02 -0.58010698915E+02  0.75452848388E+02  0.00000000000E+00 0. -1.
</event>
<event>
 7    1  0.2719869E-009  0.1582772E+03  0.7561462E-02  0.1190656E+00
          4   -1    0    0  501    0  0.00000000000E+00  0.00000000000E+00  0.89937355029E+02  0.89937355029E+02  0.00000000000E+00 0. -1.
         -4   -1    0    0    0  501 -0.00000000000E+00 -0.00000000000E+00 -0.42575614542E+03  0.42575614542E+03  0.00000000000E+00 0.  1.
         25    2    1    2    0    0 -0.55105759256E+02  0.12906650596E+03 -0.66653756453E+02  0.19946133428E+03  0.12508914005E+03 0.  0.
          5    1    3    3  502    0 -0.55748967096E+02  0.58763124972E+02  0.24073582730E+02  0.84605330649E+02  0.41800000000E+01 0.  1.
         -5    1    3    3    0  502  0.64320783994E+00  0.70303380991E+02 -0.90727339183E+02  0.11485600363E+03  0.41800000000E+01 0.  1.
        -11    1    1    2    0    0 -0.33778945367E+01 -0.99364806559E+02 -0.17860230345E+03  0.20441026821E+03  0.00000000000E+00 0.  1.
         11    1    1    2    0    0  0.58483653793E+02 -0.29701699403E+02 -0.90562730490E+02  0.11182189796E+03  0.00000000000E+00 0. -1.
</event>
<event>
 7    1  0.2719869E-009  0.9412019E+02  0.7561462E-02  0.1293170E+00
          1   -1    0    0  501    0  0.00000000000E+00  0.00000000000E+00  0.33687405821E+03  0.33687405821E+03  0.00000000000E+00 0. -1.
         -1   -1    0    0    0  501 -0.00000000000E+00 -0.00000000000E+00 -0.62754970274E+02  0.62754970274E+02  0.00000000000E+00 0.  1.
         25    2    1    2    0    0  0.66179204820E+02  0.56797227149E+02  0.19941704228E+03  0.25104019018E+03  0.12509359765E+03 0.  0.
          5    1    3    3  502    0  0.44272525422E+02  0.94954306075E+01  0.19307970298E+03  0.19836195153E+03  0.41800000000E+01 0.  1.
         -5    1    3    3    0  502  0.21906679399E+02  0.47301796542E+02  0.63373392912E+01  0.52678238654E+02  0.41800000000E+01 0.  1.
        -11    1    1    2    0    0 -0.38450364385E+01 -0.14847881629E+02  0.71776270512E+02  0.73396709073E+02  0.00000000000E+00 0. -1.
         11    1    1    2    0    0 -0.62334168382E+02 -0.41949345521E+02  0.29257751453E+01  0.75192129227E+02  0.00000000000E+00 0.  1.
</event>
<event>
 7    1  0.2719869E-009  0.9161576E+02  0.7561462E-02  0.1298985E+00
          3   -1    0    0  501    0  0.00000000000E+00  0.00000000000E+00  0.12581755970E+03  0.12581755970E+03  0.00000000000E+00 0. -1.
         -3   -1    0    0    0  501 -0.00000000000E+00 -0.00000000000E+00 -0.13308923949E+03  0.13308923949E+03  0.00000000000E+00 0.  1.
         25    2    1    2    0    0 -0.24559847028E+02  0.53964596559E+02 -0.59177838123E+02  0.15054732720E+03  0.12508843845E+03 0.  0.
          5    1    3    3  502    0 -0.25857938276E+02  0.76222630102E+02 -0.84347384999E+02  0.11666394502E+03  0.41800000000E+01 0. -1.
         -5    1    3    3    0  502  0.12980912480E+01 -0.22258033543E+02  0.25169546876E+02  0.33883382181E+02  0.41800000000E+01 0. -1.
        -11    1    1    2    0    0  0.20388211975E+01 -0.57165737318E+02  0.61214521869E+02  0.83781238966E+02  0.00000000000E+00 0. -1.
         11    1    1    2    0    0  0.22521025830E+02  0.32011407592E+01 -0.93083635378E+01  0.24578233019E+02  0.00000000000E+00 0.  1.
</event>
<event>
 7    1  0.2719869E-009  0.1564595E+03  0.7561462E-02  0.1192753E+00
          2   -1    0    0  501    0  0.00000000000E+00  0.00000000000E+00  0.44149592317E+03  0.44149592317E+03  0.00000000000E+00 0. -1.
         -2   -1    0    0    0  501 -0.00000000000E+00 -0.00000000000E+00 -0.86622000363E+02  0.86622000363E+02  0.00000000000E+00 0.  1.
         25    2    1    2    0    0 -0.10648992228E+03  0.91287051383E+02  0.75217109292E+02  0.20243159438E+03  0.12508999790E+03 0.  0.
          5    1    3    3  502    0  0.12419591694E+02  0.30956210428E+02  0.59187714612E+02  0.68067548677E+02  0.41800000000E+01 0. -1.
         -5    1    3    3    0  502 -0.11890951397E+03  0.60330840955E+02  0.16029394680E+02  0.13436404570E+03  0.41800000000E+01 0. -1.
        -11    1    1    2    0    0  0.63846242903E+02 -0.28307264081E+02  0.21433739978E+03  0.22542884659E+03  0.00000000000E+00 0. -1.
         11    1    1    2    0    0  0.42643679373E+02 -0.62979787302E+02  0.65319413739E+02  0.10025748257E+03  0.00000000000E+00 0.  1.
</event>
<event>
 7    1  0.2719869E-009  0.1250428E+03  0.7561462E-02  0.1235002E+00
          2   -1    0    0  501    0  0.00000000000E+00  0.00000000000E+00  0.22201972208E+03  0.22201972208E+03  0.00000000000E+00 0. -1.
         -2   -1    0    0    0  501 -0.00000000000E+00 -0.00000000000E+00 -0.11295359279E+03  0.11295359279E+03  0.00000000000E+00 0.  1.
         25    2    1    2    0    0  0.52979716795E+02 -0.84057270985E+02 -0.31936204643E+01  0.15977885924E+03  0.12508640795E+03 0.  0.
          5    1    3    3  502    0  0.14172883277E+02  0.72206423491E+01  0.46096770166E+02  0.48942751415E+02  0.41800000000E+01 0. -1.
         -5    1    3    3    0  502  0.38806833518E+02 -0.91277913335E+02 -0.49290390630E+02  0.11083610783E+03  0.41800000000E+01 0. -1.
        -11    1    1    2    0    0  0.12937470189E+02  0.64247193021E+02  0.50823734994E+02  0.82934504187E+02  0.00000000000E+00 0.  1.
         11    1    1    2    0    0 -0.65917186984E+02  0.19810077964E+02  0.61436014766E+02  0.92259951437E+02  0.00000000000E+00 0. -1.
</event>
<event>
 7    1  0.2719869E-009  0.7860108E+02  0.7561462E-02  0.1333069E+00
          4   -1    0    0  501    0  0.00000000000E+00  0.00000000000E+00  0.92391168947E+02  0.92391168947E+02  0.00000000000E+00 0. -1.
         -4   -1    0    0    0  501 -0.00000000000E+00 -0.00000000000E+00 -0.18770086959E+03  0.18770086959E+03  0.00000000000E+00 0.  1.
         25    2    1    2    0    0 -0.33375400984E+01  0.64912662472E+02 -0.87972196967E+02  0.16615879217E+03  0.12507935023E+03 0.  0.
          5    1    3    3  502    0 -0.89531884944E+01  0.57745220749E+02  0.16770816834E+02  0.60937696058E+02  0.41800000000E+01 0. -1.
         -5    1    3    3    0  502  0.56156483960E+01  0.71674417229E+01 -0.10474301380E+03  0.10522109612E+03  0.41800000000E+01 0. -1.
        -11    1    1    2    0    0  0.29696460559E+02 -0.17825091937E+02 -0.38364539117E+02  0.51686086464E+02  0.00000000000E+00 0.  1.
         11    1    1    2    0    0 -0.26358920461E+02 -0.47087570535E+02  0.31027035444E+02  0.62247159897E+02  0.00000000000E+00 0. -1.
</event>
<event>
 7    1  0.2719869E-009  0.2052050E+03  0.7561462E-02  0.1145420E+00
         -2   -1    0    0    0  501 -0.00000000000E+00  0.00000000000E+00  0.13665487731E+03  0.13665487731E+03  0.00000000000E+00 0.  1.
          2   -1    0    0  501    0  0.00000000000E+00 -0.00000000000E+00 -0.34625055800E+03  0.34625055800E+03  0.00000000000E+00 0. -1.
         25    2    1    2    0    0 -0.17934697453E+03  0.31219804973E+02 -0.55305390710E+02  0.22769799476E+03  0.12509067543E+03 0.  0.
          5    1    3    3  502    0 -0.10901317726E+03 -0.43018698843E+02 -0.17394688604E+02  0.11855179821E+03  0.41800000000E+01 0. -1.
         -5    1    3    3    0  502 -0.70333797271E+02  0.74238503816E+02 -0.37910702106E+02  0.10914619655E+03  0.41800000000E+01 0. -1.
        -11    1    1    2    0    0  0.88118065141E+02 -0.44302781139E+02 -0.12347409223E+03  0.15802968478E+03  0.00000000000E+00 0. -1.
         11    1    1    2    0    0  0.91228909389E+02  0.13082976165E+02 -0.30816197752E+02  0.97177755775E+02  0.00000000000E+00 0.  1.
</event>
<event>
 7    1  0.2719869E-009  0.1166264E+03  0.7561462E-02  0.1248768E+00
          1   -1    0    0  501    0  0.00000000000E+00  0.00000000000E+00  0.10055726401E+04  0.10055726401E+04  0.00000000000E+00 0. -1.
         -1   -1    0    0    0  501 -0.00000000000E+00 -0.00000000000E+00 -0.33915648094E+02  0.33915648094E+02  0.00000000000E+00 0.  1.
         25    2    1    2    0    0 -0.25316136966E+02 -0.90046242362E+02  0.84053672886E+03  0.85492743770E+03  0.12509875545E+03 0.  0.
          5    1    3    3  502    0 -0.37122493263E+02 -0.75034099740E+02  0.24261209724E+03  0.25668326349E+03  0.41800000000E+01 0.  1.
         -5    1    3    3    0  502  0.11806356297E+02 -0.15012142621E+02  0.59792463162E+03  0.59824417421E+03  0.41800000000E+01 0.  1.
        -11    1    1    2    0    0 -0.33978166999E+01  0.99572202344E+02  0.10103839615E+03  0.14189759031E+03  0.00000000000E+00 0.  1.
         11    1    1    2    0    0  0.28713953666E+02 -0.95259599818E+01  0.30081867020E+02  0.42663260214E+02  0.00000000000E+00 0. -1.
</event>
<event>
 7    1  0.2719869E-009  0.9691905E+02  0.7561462E-02  0.1286911E+00
          1   -1    0    0  501    0  0.00000000000E+00  0.00000000000E+00  0.78666072778E+02  0.78666072778E+02  0.00000000000E+00 0. -1.
         -1   -1    0    0    0  501 -0.00000000000E+00 -0.00000000000E+00 -0.17038582811E+03  0.17038582811E+03  0.00000000000E+00 0.  1.
         25    2    1    2    0    0 -0.24626553897E+02  0.70925138872E+01 -0.70044515229E+02  0.14564302888E+03  0.12509551086E+03 0.  0.
          5    1    3    3  502    0  0.37590009093E+02 -0.19359884718E+02  0.69948012358E+01  0.43060580166E+02  0.41800000000E+01 0. -1.
         -5    1    3    3    0  502 -0.62216562990E+02  0.26452398605E+02 -0.77039316465E+02  0.10258244871E+03  0.41800000000E+01 0. -1.
        -11    1    1    2    0    0  0.23941475183E+02 -0.42190021903E+02  0.16789979045E+02  0.51333182041E+02  0.00000000000E+00 0. -1.
         11    1    1    2    0    0  0.68507871375E+00  0.35097508015E+02 -0.38465219144E+02  0.52075689967E+02  0.00000000000E+00 0.  1.
</event>
<event>
 7    1  0.2719869E-009  0.1071415E+03  0.7561462E-02  0.1265957E+00
         -1   -1    0    0    0  501 -0.00000000000E+00  0.00000000000E+00  0.95823779708E+02  0.95823779708E+02  0.00000000000E+00 0.  1.
          1   -1    0    0  501    0  0.00000000000E+00 -0.00000000000E+00 -0.21740901987E+03  0.21740901987E+03  0.00000000000E+00 0. -1.
         25    2    1    2    0    0  0.10975260920E+02  0.80803888805E+02 -0.14267651042E+02  0.15000232892E+03  0.12508959995E+03 0.  0.
          5    1    3    3  502    0 -0.17161375977E+02  0.29919654271E+02  0.51495768491E+02  0.62120730111E+02  0.41800000000E+01 0. -1.
         -5    1    3    3    0  502  0.28136636896E+02  0.50884234534E+02 -0.65763419533E+02  0.87881598806E+02  0.41800000000E+01 0. -1.
        -11    1    1    2    0    0 -0.39395694841E+02 -0.42983436628E+01 -0.48493646718E+02  0.62626913561E+02  0.00000000000E+00 0.  1.
         11    1    1    2    0    0  0.28420433921E+02 -0.76505545142E+02 -0.58823942406E+02  0.10060355710E+03  0.00000000000E+00 0. -1.
</event>
<event>
 7    1  0.2719869E-009  0.1372372E+03  0.7561462E-02  0.1217096E+00
          2   -1    0    0  501    0  0.00000000000E+00  0.00000000000E+00  0.56386669989E+02  0.56386669989E+02  0.00000000000E+00 0. -1.
         -2   -1    0    0    0  501 -0.00000000000E+00 -0.00000000000E+00 -0.55253460866E+03  0.55253460866E+03  0.00000000000E+00 0.  1.
         25    2    1    2    0    0  0.23446379458E+02  0.11725362193E+03 -0.38289409862E+03  0.42017954286E+03  0.12507922656E+03 0.  0.
          5    1    3    3  502    0  0.25582116496E+02 -0.95798933586E+01 -0.17071488225E+03  0.17293716334E+03  0.41800000000E+01 0.  1.
         -5    1    3    3    0  502 -0.21357370382E+01  0.12683351529E+03 -0.21217921636E+03  0.24724237952E+03  0.41800000000E+01 0.  1.
        -11    1    1    2    0    0 -0.19751216042E+02 -0.76873822237E+02 -0.12778268271E+02  0.80392656508E+02  0.00000000000E+00 0. -1.
         11    1    1    2    0    0 -0.36951634159E+01 -0.40379799696E+02 -0.10047557179E+03  0.10834907928E+03  0.00000000000E+00 0.  1.
</event>
<event>
 7    1  0.2719869E-009  0.2330550E+03  0.7561462E-02  0.1124508E+00
         -1   -1    0    0    0  501 -0.00000000000E+00  0.00000000000E+00  0.45841471260E+02  0.45841471260E+02  0.00000000000E+00 0.  1.
          1   -1    0    0  501    0  0.00000000000E+00 -0.00000000000E+00 -0.14044244621E+04  0.14044244621E+04  0.00000000000E+00 0. -1.
         25    2    1    2    0    0  0.66068703004E+02  0.20598051551E+03 -0.49091312112E+03  0.55085135552E+03  0.12509387316E+03 0.  0.
          5    1    3    3  502    0  0.79970369432E+02  0.21709662251E+03 -0.44880908699E+03  0.50494878202E+03  0.41800000000E+01 0. -1.
         -5    1    3    3    0  502 -0.13901666428E+02 -0.11116107000E+02 -0.42104034125E+02  0.45902573500E+02  0.41800000000E+01 0. -1.
        -11    1    1    2    0    0 -0.22482466614E+02 -0.59610626378E+02 -0.11558545504E+03  0.13198062547E+03  0.00000000000E+00 0. -1.
         11    1    1    2    0    0 -0.43586236389E+02 -0.14636988914E+03 -0.75208441464E+03  0.76743395233E+03  0.00000000000E+00 0.  1.
</event>
<event>
 7    1  0.2719869E-009  0.1171586E+03  0.7561462E-02  0.1247859E+00
          1   -1    0    0  501    0  0.00000000000E+00  0.00000000000E+00  0.87224336978E+02  0.87224336978E+02  0.00000000000E+00 0. -1.
         -1   -1    0    0    0  501 -0.00000000000E+00 -0.00000000000E+00 -0.23968080956E+03  0.23968080956E+03  0.00000000000E+00 0.  1.
         25    2    1    2    0    0  0.27105810618E+02 -0.91670291748E+02 -0.84568431904E+02  0.17871502416E+03  0.12509625426E+03 0.  0.
          5    1    3    3  502    0  0.45747591463E+02 -0.95888442088E+02 -0.10569471167E+03  0.14992091223E+03  0.41800000000E+01 0.  1.
         -5    1    3    3    0  502 -0.18641780845E+02  0.42181503401E+01  0.21126279761E+02  0.28794111931E+02  0.41800000000E+01 0.  1.
        -11    1    1    2    0    0 -0.27803659266E+02  0.14692460380E+02 -0.63766262086E+02  0.71098861039E+02  0.00000000000E+00 0.  1.
         11    1    1    2    0    0  0.69784864805E+00  0.76977831368E+02 -0.41217785870E+01  0.77091261331E+02  0.00000000000E+00 0. -1.
</event>
<event>
 7    1  0.2719869E-009  0.1395319E+03  0.7561462E-02  0.1213960E+00
          2   -1    0    0  501    0  0.00000000000E+00  0.00000000000E+00  0.30529999293E+03  0.30529999293E+03  0.00000000000E+00 0. -1.
         -2   -1    0    0    0  501 -0.00000000000E+00 -0.00000000000E+00 -0.78649424159E+02  0.78649424159E+02  0.00000000000E+00 0.  1.
         25    2    1    2    0    0 -0.76400862036E+02  0.46197141361E+02  0.20109045443E+03  0.25309399346E+03  0.12509169067E+03 0.  0.
          5    1    3    3  502    0  0.14191247538E+02 -0.30104147124E+02  0.30245343219E+02  0.45165300477E+02  0.41800000000E+01 0.  1.
         -5    1    3    3    0  502 -0.90592109574E+02  0.76301288484E+02  0.17084511121E+03  0.20792869299E+03  0.41800000000E+01 0.  1.
        -11    1    1    2    0    0  0.74611266609E+02 -0.70491063134E+02  0.27942160754E+02  0.10637948785E+03  0.00000000000E+00 0.  1.
         11    1    1    2    0    0  0.17895954266E+01  0.24293921773E+02 -0.23820464200E+01  0.24475935775E+02  0.00000000000E+00 0. -1.
</event>
<event>
 7    1  0.2719869E-009  0.1016041E+03  0.7561462E-02  0.1276958E+00
         -2   -1    0    0    0  501 -0.00000000000E+00  0.00000000000E+00  0.12379730374E+02  0.12379730374E+02  0.00000000000E+00 0. -1.
          2   -1    0    0  501    0  0.00000000000E+00 -0.00000000000E+00 -0.11736914464E+04  0.11736914464E+04  0.00000000000E+00 0.  1.
         25    2    1    2    0    0  0.83755337765E+01  0.15926689585E+02 -0.86982218536E+03  0.87895516288E+03  0.12509090772E+03 0.  0.
          5    1    3    3  502    0  0.58507627194E+02  0.31163890715E+02 -0.62703822954E+03  0.63054638547E+03  0.41800000000E+01 0. -1.
         -5    1    3    3    0  502 -0.50132093417E+02 -0.15237201129E+02 -0.24278395582E+03  0.24840877741E+03  0.41800000000E+01 0. -1.
        -11    1    1    2    0    0  0.37159845268E+02 -0.77738549592E+01 -0.21006756490E+03  0.21347053367E+03  0.00000000000E+00 0.  1.
         11    1    1    2    0    0 -0.45535379044E+02 -0.81528346259E+01 -0.81421965717E+02  0.93645480181E+02  0.00000000000E+00 0. -1.
</event>
<event>
 7    1  0.2719869E-009  0.1136335E+03  0.7561462E-02  0.1253985E+00
          1   -1    0    0  501    0  0.00000000000E+00  0.00000000000E+00  0.62468999232E+03  0.62468999232E+03  0.00000000000E+00 0. -1.
         -1   -1    0    0    0  501 -0.00000000000E+00 -0.00000000000E+00 -0.23774109658E+02  0.23774109658E+02  0.00000000000E+00 0.  1.
         25    2    1    2    0    0 -0.47424966079E+02  0.30357755650E+02  0.32887282757E+03  0.35634038156E+03  0.12510159903E+03 0.  0.
          5    1    3    3  502    0 -0.72116451688E+02 -0.10865138827E+02  0.10883255776E+03  0.13107567232E+03  0.41800000000E+01 0.  1.
         -5    1    3    3    0  502  0.24691485609E+02  0.41222894477E+02  0.22004026981E+03  0.22526470924E+03  0.41800000000E+01 0.  1.
        -11    1    1    2    0    0 -0.27058275709E+02 -0.83097250926E+01  0.85127526787E+02  0.89710075423E+02  0.00000000000E+00 0.  1.
         11    1    1    2    0    0  0.74483241788E+02 -0.22048030557E+02  0.18691552831E+03  0.20241364500E+03  0.00000000000E+00 0. -1.
</event>
<event>
 7    1  0.2719869E-009  0.5321744E+02  0.7561462E-02  0.1428722E+00
         -2   -1    0    0    0  501 -0.00000000000E+00  0.00000000000E+00  0.64179231393E+02  0.64179231393E+02  0.00000000000E+00 0.  1.
          2   -1    0    0  501    0  0.00000000000E+00 -0.00000000000E+00 -0.19479513867E+03  0.19479513867E+03  0.00000000000E+00 0. -1.
         25    2    1    2    0    0 -0.65922953991E+01 -0.16024208049E+02 -0.10175666787E+03  0.16217852536E+03  0.12508885254E+03 0.  0.
          5    1    3    3  502    0  0.24152910337E+01  0.53272540343E+00  0.29303846781E+02  0.29703623740E+02  0.41800000000E+01 0.  1.
         -5    1    3    3    0  502 -0.90075864327E+01 -0.16556933453E+02 -0.13106051465E+03  0.13247490162E+03  0.41800000000E+01 0.  1.
        -11    1    1    2    0    0 -0.15894652507E+02 -0.28363049649E+02  0.96069758858E+01  0.33902751354E+02  0.00000000000E+00 0.  1.
         11    1    1    2    0    0  0.22486947906E+02  0.44387257698E+02 -0.38466215293E+02  0.62893093350E+02  0.00000000000E+00 0. -1.
</event>
<event>
 7    1  0.2719869E-009  0.2980686E+03  0.7561462E-02  0.1086210E+00
         -2   -1    0    0    0  501 -0.00000000000E+00  0.00000000000E+00  0.50457323265E+02  0.50457323265E+02  0.00000000000E+00 0.  1.
          2   -1    0    0  501    0  0.00000000000E+00 -0.00000000000E+00 -0.19028210526E+04  0.19028210526E+04  0.00000000000E+00 0. -1.
         25    2    1    2    0    0  0.16296546980E+03  0.23956856275E+03 -0.95640943462E+03  0.10071331844E+04  0.12508958381E+03 0.  0.
          5    1    3    3  502    0  0.13324019892E+03  0.15666882758E+03 -0.47368681369E+03  0.51642496261E+03  0.41800000000E+01 0.  1.
         -5    1    3    3    0  502  0.29725270876E+02  0.82899735175E+02 -0.48272262093E+03  0.49070822184E+03  0.41800000000E+01 0.  1.
        -11    1    1    2    0    0 -0.11780706571E+03 -0.22641158822E+03 -0.71537911394E+03  0.75954459294E+03  0.00000000000E+00 0.  1.
         11    1    1    2    0    0 -0.45158404088E+02 -0.13156974532E+02 -0.18057518081E+03  0.18660059851E+03  0.00000000000E+00 0. -1.
</event>
<event>
 7    1  0.2719869E-009  0.8549949E+02  0.7561462E-02  0.1314131E+00
         -2   -1    0    0    0  501 -0.00000000000E+00  0.00000000000E+00  0.19377956068E+02  0.19377956068E+02  0.00000000000E+00 0.  1.
          2   -1    0    0  501    0  0.00000000000E+00 -0.00000000000E+00 -0.53350889905E+03  0.53350889905E+03  0.00000000000E+00 0. -1.
         25    2    1    2    0    0  0.14385091080E+02 -0.33248870980E+02 -0.25760692909E+03  0.28865256860E+03  0.12508619900E+03 0.  0.
          5    1    3    3  502    0 -0.35932623378E+02 -0.43767841659E+02 -0.21307863425E+03  0.22051474817E+03  0.41800000000E+01 0. -1.
         -5    1    3    3    0  502  0.50317714459E+02  0.10518970679E+02 -0.44528294838E+02  0.68137820435E+02  0.41800000000E+01 0. -1.
        -11    1    1    2    0    0  0.18859843674E+02  0.64246087753E+01 -0.10123556713E+03  0.10317756226E+03  0.00000000000E+00 0. -1.
         11    1    1    2    0    0 -0.33244934754E+02  0.26824262205E+02 -0.15528844676E+03  0.16105672426E+03  0.00000000000E+00 0.  1.
</event>
<event>
 7    1  0.2719869E-009  0.8764389E+02  0.7561462E-02  0.1308660E+00
         -2   -1    0    0    0  501 -0.00000000000E+00  0.00000000000E+00  0.28450193044E+02  0.28450193044E+02  0.00000000000E+00 0.  1.
          2   -1    0    0  501    0  0.00000000000E+00 -0.00000000000E+00 -0.46409204155E+03  0.46409204155E+03  0.00000000000E+00 0. -1.
         25    2    1    2    0    0  0.11882335429E+02 -0.47045217285E+02 -0.24254939314E+03  0.27717655426E+03  0.12506874811E+03 0.  0.
          5    1    3    3  502    0 -0.23148091426E+02 -0.12568161188E+00 -0.20745245795E+03  0.20878181109E+03  0.41800000000E+01 0.  1.
         -5    1    3    3    0  502  0.35030426855E+02 -0.46919535673E+02 -0.35096935191E+02  0.68394743170E+02  0.41800000000E+01 0.  1.
        -11    1    1    2    0    0  0.14239607769E+02 -0.18009380456E+02 -0.29467052626E+02  0.37355205853E+02  0.00000000000E+00 0.  1.
         11    1    1    2    0    0 -0.26121943199E+02  0.65054597741E+02 -0.16362540273E+03  0.17801047448E+03  0.00000000000E+00 0. -1.
</event>
<event>
 7    1  0.2719869E-009  0.8088668E+02  0.7561462E-02  0.1326554E+00
         -2   -1    0    0    0  501 -0.00000000000E+00  0.00000000000E+00  0.29461833395E+02  0.29461833395E+02  0.00000000000E+00 0. -1.
          2   -1    0    0  501    0  0.00000000000E+00 -0.00000000000E+00 -0.39945581032E+03  0.39945581032E+03  0.00000000000E+00 0.  1.
         25    2    1    2    0    0  0.88279495816E+01 -0.49215979770E+01 -0.19403002663E+03  0.23107888528E+03  0.12509054787E+03 0.  0.
          5    1    3    3  502    0  0.45605559725E+02 -0.11011024131E+02 -0.16933659591E+02  0.50053281185E+02  0.41800000000E+01 0. -1.
         -5    1    3    3    0  502 -0.36777610143E+02  0.60894261541E+01 -0.17709636704E+03  0.18102560410E+03  0.41800000000E+01 0. -1.
        -11    1    1    2    0    0  0.11326628136E+02  0.37321575445E+02 -0.14026178369E+03  0.14558351714E+03  0.00000000000E+00 0.  1.
         11    1    1    2    0    0 -0.20154577718E+02 -0.32399977467E+02 -0.35702166605E+02  0.52255241298E+02  0.00000000000E+00 0. -1.
</event>
<event>
 7    1  0.2719869E-009  0.1614043E+03  0.7561462E-02  0.1187120E+00
         -2   -1    0    0    0  501 -0.00000000000E+00  0.00000000000E+00  0.18290017631E+02  0.18290017631E+02  0.00000000000E+00 0.  1.
          2   -1    0    0  501    0  0.00000000000E+00 -0.00000000000E+00 -0.19953564399E+04  0.19953564399E+04  0.00000000000E+00 0. -1.
         25    2    1    2    0    0 -0.57244580564E+02 -0.12195965718E+03 -0.14815416979E+04  0.14929045750E+04  0.12508863800E+03 0.  0.
          5    1    3    3  502    0  0.31295923592E+02 -0.76127787722E+02 -0.77044618639E+03  0.77484170862E+03  0.41800000000E+01 0. -1.
         -5    1    3    3    0  502 -0.88540504155E+02 -0.45831869463E+02 -0.71109551154E+03  0.71806286638E+03  0.41800000000E+01 0. -1.
        -11    1    1    2    0    0  0.46373514165E+02  0.51456553005E+02 -0.36942002420E+03  0.37585826311E+03  0.00000000000E+00 0. -1.
         11    1    1    2    0    0  0.10871066399E+02  0.70503104179E+02 -0.12610470018E+03  0.14488361947E+03  0.00000000000E+00 0.  1.
</event>
<event>
 7    1  0.2719869E-009  0.1272264E+03  0.7561462E-02  0.1231630E+00
         -1   -1    0    0    0  501 -0.00000000000E+00  0.00000000000E+00  0.37527259728E+02  0.37527259728E+02  0.00000000000E+00 0.  1.
          1   -1    0    0  501    0  0.00000000000E+00 -0.00000000000E+00 -0.52003601153E+03  0.52003601153E+03  0.00000000000E+00 0. -1.
         25    2    1    2    0    0 -0.39223104048E+02 -0.63892725394E+02 -0.35174448521E+03  0.38077840878E+03  0.12508909412E+03 0.  0.
          5    1    3    3  502    0 -0.11281233576E+02 -0.94805764364E+02 -0.29607020386E+03  0.31111161534E+03  0.41800000000E+01 0.  1.
         -5    1    3    3    0  502 -0.27941870472E+02  0.30913038970E+02 -0.55674281349E+02  0.69666793436E+02  0.41800000000E+01 0.  1.
        -11    1    1    2    0    0  0.62575320874E+02  0.17351171532E+02 -0.56446689175E+02  0.86040471029E+02  0.00000000000E+00 0.  1.
         11    1    1    2    0    0 -0.23352216826E+02  0.46541553862E+02 -0.74317577420E+02  0.90744391453E+02  0.00000000000E+00 0. -1.
</event>
<event>
 7    1  0.2719869E-009  0.2497869E+03  0.7561462E-02  0.1113440E+00
         -2   -1    0    0    0  501 -0.00000000000E+00  0.00000000000E+00  0.55228779075E+02  0.55228779075E+02  0.00000000000E+00 0.  1.
          2   -1    0    0  501    0  0.00000000000E+00 -0.00000000000E+00 -0.12703095951E+04  0.12703095951E+04  0.00000000000E+00 0. -1.
         25    2    1    2    0    0 -0.23723185103E+03  0.15690869440E+02 -0.72166069265E+03  0.77004332582E+03  0.12508962305E+03 0.  0.
          5    1    3    3  502    0 -0.14830938448E+03 -0.43804083329E+02 -0.33796695432E+03  0.37169020145E+03  0.41800000000E+01 0. -1.
         -5    1    3    3    0  502 -0.88922466557E+02  0.59494952768E+02 -0.38369373833E+03  0.39835312437E+03  0.41800000000E+01 0. -1.
        -11    1    1    2    0    0  0.12981602386E+03 -0.11078201988E+02 -0.16691756776E+03  0.21174607679E+03  0.00000000000E+00 0.  1.
         11    1    1    2    0    0  0.10741582718E+03 -0.46126674513E+01 -0.32650255565E+03  0.34374897160E+03  0.00000000000E+00 0. -1.
</event>
<event>
 7    1  0.2719869E-009  0.8157961E+02  0.7561462E-02  0.1324628E+00
          2   -1    0    0  501    0  0.00000000000E+00  0.00000000000E+00  0.11950100847E+03  0.11950100847E+03  0.00000000000E+00 0.  1.
         -2   -1    0    0    0  501 -0.00000000000E+00 -0.00000000000E+00 -0.18166960744E+03  0.18166960744E+03  0.00000000000E+00 0. -1.
         25    2    1    2    0    0 -0.10223591676E+02  0.20383349827E+02 -0.13139745206E+03  0.18284209167E+03  0.12508372117E+03 0.  0.
          5    1    3    3  502    0  0.19159669112E+02 -0.16082558132E+02 -0.13339305667E+03  0.13578262615E+03  0.41800000000E+01 0.  1.
         -5    1    3    3    0  502 -0.29383260788E+02  0.36465907959E+02  0.19956046058E+01  0.47059465525E+02  0.41800000000E+01 0.  1.
        -11    1    1    2    0    0  0.15373920904E+02  0.33390860535E+02  0.98566084095E+01  0.38058635559E+02  0.00000000000E+00 0. -1.
         11    1    1    2    0    0 -0.51503292287E+01 -0.53774210363E+02  0.59372244673E+02  0.80269888681E+02  0.00000000000E+00 0.  1.
</event>
<event>
 7    1  0.2719869E-009  0.1398783E+03  0.7561462E-02  0.1213493E+00
          1   -1    0    0  501    0  0.00000000000E+00  0.00000000000E+00  0.71313826601E+02  0.71313826601E+02  0.00000000000E+00 0. -1.
         -1   -1    0    0    0  501 -0.00000000000E+00 -0.00000000000E+00 -0.42269625591E+03  0.42269625591E+03  0.00000000000E+00 0.  1.
         25    2    1    2    0    0 -0.55779275047E+02 -0.10725353808E+03 -0.10075926108E+03  0.20103179272E+03  0.12508678602E+03 0.  0.
          5    1    3    3  502    0  0.15774329382E+02 -0.54868459291E+02 -0.96438672211E+02  0.11214841591E+03  0.41800000000E+01 0.  1.
         -5    1    3    3    0  502 -0.71553604429E+02 -0.52385078787E+02 -0.43205888687E+01  0.88883376817E+02  0.41800000000E+01 0.  1.
        -11    1    1    2    0    0  0.53535551359E+02  0.40971400019E+02 -0.56900211484E+02  0.88217599977E+02  0.00000000000E+00 0. -1.
         11    1    1    2    0    0  0.22437236875E+01  0.66282138059E+02 -0.19372295675E+03  0.20476068981E+03  0.00000000000E+00 0.  1.
</event>
<event>
 7    1  0.2719869E-009  0.1132362E+03  0.7561462E-02  0.1254692E+00
          4   -1    0    0  501    0  0.00000000000E+00  0.00000000000E+00  0.45863955036E+02  0.45863955036E+02  0.00000000000E+00 0. -1.
         -4   -1    0    0    0  501 -0.00000000000E+00 -0.00000000000E+00 -0.79902166257E+03  0.79902166257E+03  0.00000000000E+00 0.  1.
         25    2    1    2    0    0 -0.27672449351E+02 -0.76016601739E+02 -0.69572962588E+03  0.71149621287E+03  0.12507142121E+03 0.  0.
          5    1    3    3  502    0  0.44884401486E+02 -0.32251223755E+02 -0.40055411962E+03  0.40437090162E+03  0.41800000000E+01 0.  1.
         -5    1    3    3    0  502 -0.72556850837E+02 -0.43765377984E+02 -0.29517550626E+03  0.30712531125E+03  0.41800000000E+01 0.  1.
        -11    1    1    2    0    0  0.13218078083E+02  0.68787656703E+02 -0.79549526199E+02  0.10599333197E+03  0.00000000000E+00 0.  1.
         11    1    1    2    0    0  0.14454371268E+02  0.72289450364E+01  0.22121444541E+02  0.27396072778E+02  0.00000000000E+00 0. -1.
</event>
<event>
 7    1  0.2719869E-009  0.1113070E+03  0.7561462E-02  0.1258168E+00
         -2   -1    0    0    0  501 -0.00000000000E+00  0.00000000000E+00  0.15044014518E+03  0.15044014518E+03  0.00000000000E+00 0.  1.
          2   -1    0    0  501    0  0.00000000000E+00 -0.00000000000E+00 -0.12904434661E+03  0.12904434661E+03  0.00000000000E+00 0. -1.
         25    2    1    2    0    0  0.49434496169E+02  0.71129677764E+02 -0.16611809934E+01  0.15216055454E+03  0.12508746686E+03 0.  0.
          5    1    3    3  502    0  0.18215863850E+02  0.67221801082E+02  0.53904708262E+02  0.88169032031E+02  0.41800000000E+01 0.  1.
         -5    1    3    3    0  502  0.31218632318E+02  0.39078766822E+01 -0.55565889256E+02  0.63991522507E+02  0.41800000000E+01 0.  1.
        -11    1    1    2    0    0 -0.52063608472E+02 -0.21853820309E+01 -0.60134133935E+01  0.52455279643E+02  0.00000000000E+00 0. -1.
         11    1    1    2    0    0  0.26291123037E+01 -0.68944295733E+02  0.29070392962E+02  0.74868657612E+02  0.00000000000E+00 0.  1.
</event>
<event>
 7    1  0.2897160E-009  0.7122439E+02  0.7561462E-02  0.1355978E+00
         -4   -1    0    0    0  501 -0.00000000000E+00  0.00000000000E+00  0.45003174715E+02  0.45003174715E+02  0.00000000000E+00 0.  1.
          4   -1    0    0  501    0  0.00000000000E+00 -0.00000000000E+00 -0.35082612371E+03  0.35082612371E+03  0.00000000000E+00 0. -1.
         25    2    1    2    0    0 -0.28898185383E+02 -0.19753852701E+02 -0.25389784584E+03  0.28519602496E+03  0.12508931496E+03 0.  0.
          5    1    3    3  502    0  0.10147810410E+02 -0.45891735507E+02 -0.28957953349E+02  0.55363028333E+02  0.41800000000E+01 0. -1.
         -5    1    3    3    0  502 -0.39045995793E+02  0.26137882807E+02 -0.22493989249E+03  0.22983299663E+03  0.41800000000E+01 0. -1.
        -11    1    1    2    0    0  0.11894950235E+02  0.27079017055E+02  0.20430397559E+02  0.35946684829E+02  0.00000000000E+00 0.  1.
         11    1    1    2    0    0  0.17003235147E+02 -0.73251643548E+01 -0.72355500712E+02  0.74686588633E+02  0.00000000000E+00 0. -1.
</event>
<event>
 7    1  0.2719869E-009  0.9447092E+02  0.7561462E-02  0.1292372E+00
         -2   -1    0    0    0  501 -0.00000000000E+00  0.00000000000E+00  0.45853788519E+02  0.45853788519E+02  0.00000000000E+00 0.  1.
          2   -1    0    0  501    0  0.00000000000E+00 -0.00000000000E+00 -0.30708187482E+03  0.30708187482E+03  0.00000000000E+00 0. -1.
         25    2    1    2    0    0 -0.46689201532E+02  0.31813697315E+02 -0.18119385596E+03  0.22731098124E+03  0.12508827235E+03 0.  0.
          5    1    3    3  502    0 -0.55720482203E+02 -0.58948636670E+01 -0.17225302242E+02  0.58768231145E+02  0.41800000000E+01 0.  1.
         -5    1    3    3    0  502  0.90312806716E+01  0.37708560982E+02 -0.16396855371E+03  0.16854275009E+03  0.41800000000E+01 0.  1.
        -11    1    1    2    0    0  0.42954279255E+02 -0.55272471912E+02 -0.72319627436E+02  0.10064911709E+03  0.00000000000E+00 0. -1.
         11    1    1    2    0    0  0.37349222763E+01  0.23458774597E+02 -0.77146029136E+01  0.24975565021E+02  0.00000000000E+00 0.  1.
</event>
<event>
 7    1  0.2719869E-009  0.8371240E+02  0.7561462E-02  0.1318835E+00
          2   -1    0    0  501    0  0.00000000000E+00  0.00000000000E+00  0.19177324743E+03  0.19177324743E+03  0.00000000000E+00 0. -1.
         -2   -1    0    0    0  501 -0.00000000000E+00 -0.00000000000E+00 -0.84014330127E+02  0.84014330127E+02  0.00000000000E+00 0.  1.
         25    2    1    2    0    0 -0.17011641873E+02  0.46465584210E+02  0.11081824729E+03  0.17429051388E+03  0.12509217731E+03 0.  0.
          5    1    3    3  502    0 -0.24872318012E+02  0.52692938716E+02  0.13537281192E+03  0.14743964392E+03  0.41800000000E+01 0.  1.
         -5    1    3    3    0  502  0.78606761398E+01 -0.62273545059E+01 -0.24554564630E+02  0.26850869961E+02  0.41800000000E+01 0.  1.
        -11    1    1    2    0    0 -0.20247393485E+02  0.15730435059E+02  0.10555302194E+02  0.27727566328E+02  0.00000000000E+00 0. -1.
         11    1    1    2    0    0  0.37259035357E+02 -0.62196019270E+02 -0.13614632180E+02  0.73769497343E+02  0.00000000000E+00 0.  1.
</event>
<event>
 7    1  0.2719869E-009  0.8817779E+02  0.7561462E-02  0.1307325E+00
          2   -1    0    0  501    0  0.00000000000E+00  0.00000000000E+00  0.23006060323E+03  0.23006060323E+03  0.00000000000E+00 0. -1.
         -2   -1    0    0    0  501 -0.00000000000E+00 -0.00000000000E+00 -0.87247025371E+02  0.87247025371E+02  0.00000000000E+00 0.  1.
         25    2    1    2    0    0 -0.23225150178E+01 -0.66939731886E+02  0.14782864753E+02  0.14266291145E+03  0.12509137233E+03 0.  0.
          5    1    3    3  502    0 -0.28989378195E+02 -0.49946408171E+02  0.62543885473E+02  0.85230497754E+02  0.41800000000E+01 0.  1.
         -5    1    3    3    0  502  0.26666863178E+02 -0.16993323715E+02 -0.47761020720E+02  0.57432413695E+02  0.41800000000E+01 0.  1.
        -11    1    1    2    0    0 -0.25982023904E+02  0.25743559169E+02 -0.66679551101E+00  0.36581976725E+02  0.00000000000E+00 0.  1.
         11    1    1    2    0    0  0.28304538922E+02  0.41196172717E+02  0.12869750862E+03  0.13806274043E+03  0.00000000000E+00 0. -1.
</event>
<event>
 7    1  0.2719869E-009  0.9538126E+02  0.7561462E-02  0.1290320E+00
         -1   -1    0    0    0  501 -0.00000000000E+00  0.00000000000E+00  0.12298676618E+03  0.12298676618E+03  0.00000000000E+00 0.  1.
          1   -1    0    0  501    0  0.00000000000E+00 -0.00000000000E+00 -0.14174271378E+03  0.14174271378E+03  0.00000000000E+00 0. -1.
         25    2    1    2    0    0  0.54529347895E+02  0.26937843513E+02 -0.55401768301E+02  0.14971329117E+03  0.12508243852E+03 0.  0.
          5    1    3    3  502    0  0.70668963836E+01  0.67100669884E+02 -0.55393840999E+02  0.87397888671E+02  0.41800000000E+01 0.  1.
         -5    1    3    3    0  502  0.47462451512E+02 -0.40162826372E+02 -0.79273016865E-02  0.62315402498E+02  0.41800000000E+01 0.  1.
        -11    1    1    2    0    0 -0.24422096532E+02 -0.13048415461E+02 -0.29848302079E+02  0.40713892986E+02  0.00000000000E+00 0. -1.
         11    1    1    2    0    0 -0.30107251363E+02 -0.13889428051E+02  0.66494122781E+02  0.74302295797E+02  0.00000000000E+00 0.  1.
</event>
<event>
 7    1  0.2719869E-009  0.1196413E+03  0.7561462E-02  0.1243690E+00
         -2   -1    0    0    0  501 -0.00000000000E+00  0.00000000000E+00  0.30460301723E+03  0.30460301723E+03  0.00000000000E+00 0.  1.
          2   -1    0    0  501    0  0.00000000000E+00 -0.00000000000E+00 -0.79367531622E+02  0.79367531622E+02  0.00000000000E+00 0. -1.
         25    2    1    2    0    0 -0.10588801714E+03 -0.10644395396E+02  0.82330467518E+02  0.18371937858E+03  0.12509567882E+03 0.  0.
          5    1    3    3  502    0 -0.33863319025E+02  0.12759092724E+02  0.99495460009E+02  0.10595441371E+03  0.41800000000E+01 0. -1.
         -5    1    3    3    0  502 -0.72024698114E+02 -0.23403488120E+02 -0.17164992491E+02  0.77764964873E+02  0.41800000000E+01 0. -1.
        -11    1    1    2    0    0  0.77511132136E+02 -0.25003727037E+02  0.12909803721E+03  0.15264162336E+03  0.00000000000E+00 0.  1.
         11    1    1    2    0    0  0.28376885003E+02  0.35648122432E+02  0.13806980877E+02  0.47609546904E+02  0.00000000000E+00 0. -1.
</event>
<event>
 7    1  0.2719869E-009  0.9448962E+02  0.7561462E-02  0.1292330E+00
          2   -1    0    0  501    0  0.00000000000E+00  0.00000000000E+00  0.70500718060E+02  0.70500718060E+02  0.00000000000E+00 0. -1.
         -2   -1    0    0    0  501 -0.00000000000E+00 -0.00000000000E+00 -0.24495819949E+03  0.24495819949E+03  0.00000000000E+00 0.  1.
         25    2    1    2    0    0  0.24306988715E+02  0.64304936766E+02 -0.12955541354E+03  0.19276057616E+03  0.12508429138E+03 0.  0.
          5    1    3    3  502    0  0.26629562356E+01 -0.20008468419E+02  0.13933345177E+02  0.24880527571E+02  0.41800000000E+01 0. -1.
         -5    1    3    3    0  502  0.21644032480E+02  0.84313405185E+02 -0.14348875872E+03  0.16788004859E+03  0.41800000000E+01 0. -1.
        -11    1    1    2    0    0  0.12559824459E+02 -0.13402589143E+02 -0.55946572752E+02  0.58884612497E+02  0.00000000000E+00 0.  1.
         11    1    1    2    0    0 -0.36866813174E+02 -0.50902347623E+02  0.11044504865E+02  0.63813728890E+02  0.00000000000E+00 0. -1.
</event>
<event>
 7    1  0.2719869E-009  0.1187334E+03  0.7561462E-02  0.1245201E+00
          1   -1    0    0  501    0  0.00000000000E+00  0.00000000000E+00  0.15824466406E+03  0.15824466406E+03  0.00000000000E+00 0. -1.
         -1   -1    0    0    0  501 -0.00000000000E+00 -0.00000000000E+00 -0.10970142785E+03  0.10970142785E+03  0.00000000000E+00 0.  1.
         25    2    1    2    0    0 -0.63086342498E+02 -0.16426069344E+02 -0.11851437242E+02  0.14155392298E+03  0.12508938477E+03 0.  0.
          5    1    3    3  502    0  0.38075239532E+02 -0.55445691856E+01  0.21604644808E+01  0.38763463721E+02  0.41800000000E+01 0. -1.
         -5    1    3    3    0  502 -0.10116158203E+03 -0.10881500158E+02 -0.14011901722E+02  0.10279045926E+03  0.41800000000E+01 0. -1.
        -11    1    1    2    0    0 -0.15746022503E+02  0.79695776815E+01 -0.10070900079E+02  0.20319311540E+02  0.00000000000E+00 0.  1.
         11    1    1    2    0    0  0.78832365001E+02  0.84564916622E+01  0.70465573523E+02  0.10607285739E+03  0.00000000000E+00 0. -1.
</event>
<event>
 7    1  0.2719869E-009  0.1446588E+03  0.7561462E-02  0.1207194E+00
          1   -1    0    0  501    0  0.00000000000E+00  0.00000000000E+00  0.16364208382E+03  0.16364208382E+03  0.00000000000E+00 0. -1.
         -1   -1    0    0    0  501 -0.00000000000E+00 -0.00000000000E+00 -0.23334690779E+03  0.23334690779E+03  0.00000000000E+00 0.  1.
         25    2    1    2    0    0 -0.11230124866E+03  0.15264564844E+02  0.81161196158E+02  0.18729417832E+03  0.12508953625E+03 0.  0.
          5    1    3    3  502    0 -0.19939430273E+02  0.49499113265E+02  0.69930996921E+02  0.88065656325E+02  0.41800000000E+01 0. -1.
         -5    1    3    3    0  502 -0.92361818389E+02 -0.34234548421E+02  0.11230199236E+02  0.99228521992E+02  0.41800000000E+01 0. -1.
        -11    1    1    2    0    0  0.22122482946E+02 -0.38205248842E+02 -0.18436810764E+02  0.47843090221E+02  0.00000000000E+00 0.  1.
         11    1    1    2    0    0  0.90178765717E+02  0.22940683998E+02 -0.13242920937E+03  0.16185172308E+03  0.00000000000E+00 0. -1.
</event>
<event>
 7    1  0.2719869E-009  0.9449385E+02  0.7561462E-02  0.1292320E+00
          4   -1    0    0  501    0  0.00000000000E+00  0.00000000000E+00  0.14886680243E+03  0.14886680243E+03  0.00000000000E+00 0. -1.
         -4   -1    0    0    0  501 -0.00000000000E+00 -0.00000000000E+00 -0.87497971899E+02  0.87497971899E+02  0.00000000000E+00 0.  1.
         25    2    1    2    0    0  0.14239220526E+02  0.32947723810E+02  0.42579835103E+02  0.13693373436E+03  0.12509795100E+03 0.  0.
          5    1    3    3  502    0  0.38582106287E+02 -0.25173752015E+02 -0.17797591539E+02  0.49563326973E+02  0.41800000000E+01 0.  1.
         -5    1    3    3    0  502 -0.24342885761E+02  0.58121475825E+02  0.60377426642E+02  0.87370407388E+02  0.41800000000E+01 0.  1.
        -11    1    1    2    0    0  0.28398674064E+02 -0.56635256632E+01 -0.20393151969E+02  0.35418086605E+02  0.00000000000E+00 0.  1.
         11    1    1    2    0    0 -0.42637894590E+02 -0.27284198147E+02  0.39182147400E+02  0.64012953365E+02  0.00000000000E+00 0. -1.
</event>
<event>
 7    1  0.2719869E-009  0.1017050E+03  0.7561462E-02  0.1276751E+00
          2   -1    0    0  501    0  0.00000000000E+00  0.00000000000E+00  0.66288848732E+03  0.66288848732E+03  0.00000000000E+00 0. -1.
         -2   -1    0    0    0  501 -0.00000000000E+00 -0.00000000000E+00 -0.27019484227E+02  0.27019484227E+02  0.00000000000E+00 0.  1.
         25    2    1    2    0    0 -0.72493927287E+02 -0.98315109359E+01  0.42167874392E+03  0.44588492483E+03  0.12509346510E+03 0.  0.
          5    1    3    3  502    0 -0.14207622633E+02 -0.22336504171E+02  0.35631341545E+03  0.35731988245E+03  0.41800000000E+01 0. -1.
         -5    1    3    3    0  502 -0.58286304654E+02  0.12504993235E+02  0.65365328467E+02  0.88565042379E+02  0.41800000000E+01 0. -1.
        -11    1    1    2    0    0  0.78965635427E+02 -0.23900611118E+02  0.15494652596E+03  0.17554269195E+03  0.00000000000E+00 0.  1.
         11    1    1    2    0    0 -0.64717081406E+01  0.33732122054E+02  0.59243733217E+02  0.68480354775E+02  0.00000000000E+00 0. -1.
</event>
<event>
 7    1  0.2719869E-009  0.6620012E+02  0.7561462E-02  0.1373513E+00
         -1   -1    0    0    0  501 -0.00000000000E+00  0.00000000000E+00  0.11703625973E+03  0.11703625973E+03  0.00000000000E+00 0.  1.
          1   -1    0    0  501    0  0.00000000000E+00 -0.00000000000E+00 -0.10492552484E+03  0.10492552484E+03  0.00000000000E+00 0. -1.
         25    2    1    2    0    0  0.26449205210E+02  0.38391612025E+02  0.40096375422E+02  0.13938943608E+03  0.12509284247E+03 0.  0.
          5    1    3    3  502    0  0.31886126430E+02  0.30096051964E+02 -0.39443302419E+02  0.59124816348E+02  0.41800000000E+01 0.  1.
         -5    1    3    3    0  502 -0.54369212210E+01  0.82955600616E+01  0.79539677840E+02  0.80264619728E+02  0.41800000000E+01 0.  1.
        -11    1    1    2    0    0  0.14541520144E+02 -0.33236320046E+02 -0.11067360354E+02  0.37928818113E+02  0.00000000000E+00 0.  1.
         11    1    1    2    0    0 -0.40990725354E+02 -0.51552919797E+01 -0.16918280175E+02  0.44643530377E+02  0.00000000000E+00 0. -1.
</event>
<event>
 7    1  0.2719869E-009  0.1553267E+03  0.7561462E-02  0.1194076E+00
          1   -1    0    0  501    0  0.00000000000E+00  0.00000000000E+00  0.10623576383E+04  0.10623576383E+04  0.00000000000E+00 0. -1.
         -1   -1    0    0    0  501 -0.00000000000E+00 -0.00000000000E+00 -0.25241211688E+02  0.25241211688E+02  0.00000000000E+00 0.  1.
         25    2    1    2    0    0 -0.37511880188E+02 -0.11422753696E+03  0.47771738331E+03  0.50824430180E+03  0.12507318115E+03 0.  0.
          5    1    3    3  502    0  0.11688056948E+02 -0.11208026722E+03  0.23640370516E+03  0.26192132634E+03  0.41800000000E+01 0. -1.
         -5    1    3    3    0  502 -0.49199937135E+02 -0.21472697386E+01  0.24131367815E+03  0.24632297547E+03  0.41800000000E+01 0. -1.
        -11    1    1    2    0    0  0.41076380118E+02  0.12790017629E+03  0.52965697519E+03  0.54642678875E+03  0.00000000000E+00 0. -1.
         11    1    1    2    0    0 -0.35644999301E+01 -0.13672639330E+02  0.29742068148E+02  0.32927759470E+02  0.00000000000E+00 0.  1.
</event>
<event>
 7    1  0.2719869E-009  0.6738600E+02  0.7561462E-02  0.1369215E+00
         -3   -1    0    0    0  501 -0.00000000000E+00  0.00000000000E+00  0.16357770043E+03  0.16357770043E+03  0.00000000000E+00 0.  1.
          3   -1    0    0  501    0  0.00000000000E+00 -0.00000000000E+00 -0.74316737583E+02  0.74316737583E+02  0.00000000000E+00 0. -1.
         25    2    1    2    0    0  0.37917898640E+01  0.22732088171E+02  0.56006874447E+02  0.13898495329E+03  0.12509565042E+03 0.  0.
          5    1    3    3  502    0  0.38632762051E+02  0.16397450706E+02 -0.26010259714E+02  0.49551717465E+02  0.41800000000E+01 0.  1.
         -5    1    3    3    0  502 -0.34840972187E+02  0.63346374650E+01  0.82017134161E+02  0.89433235829E+02  0.41800000000E+01 0.  1.
        -11    1    1    2    0    0 -0.26361916131E+02 -0.22471859875E+01 -0.22916201662E+02  0.35002182298E+02  0.00000000000E+00 0. -1.
         11    1    1    2    0    0  0.22570126267E+02 -0.20484902183E+02  0.56170290062E+02  0.63907302422E+02  0.00000000000E+00 0.  1.
</event>
<event>
 7    1  0.2719869E-009  0.1164063E+03  0.7561462E-02  0.1249146E+00
          3   -1    0    0  501    0  0.00000000000E+00  0.00000000000E+00  0.59502325567E+03  0.59502325567E+03  0.00000000000E+00 0. -1.
         -3   -1    0    0    0  501 -0.00000000000E+00 -0.00000000000E+00 -0.27203207688E+02  0.27203207688E+02  0.00000000000E+00 0.  1.
         25    2    1    2    0    0 -0.79294662984E+01  0.64454552767E+02  0.35659145692E+03  0.38344439875E+03  0.12511943883E+03 0.  0.
          5    1    3    3  502    0  0.28035982905E+02 -0.27598186398E+02  0.13708283219E+03  0.14267743869E+03  0.41800000000E+01 0.  1.
         -5    1    3    3    0  502 -0.35965449204E+02  0.92052739165E+02  0.21950862473E+03  0.24076696006E+03  0.41800000000E+01 0.  1.
        -11    1    1    2    0    0  0.36339334973E+02 -0.19735140492E+02  0.15936156800E+03  0.16463940109E+03  0.00000000000E+00 0. -1.
         11    1    1    2    0    0 -0.28409868674E+02 -0.44719412275E+02  0.51867023063E+02  0.74142663519E+02  0.00000000000E+00 0.  1.
</event>
<event>
 7    1  0.2979862E-009  0.1409327E+03  0.7561462E-02  0.1212079E+00
         -1   -1    0    0    0  501 -0.00000000000E+00  0.00000000000E+00  0.51923546134E+02  0.51923546134E+02  0.00000000000E+00 0.  1.
          1   -1    0    0  501    0  0.00000000000E+00 -0.00000000000E+00 -0.46658159670E+03  0.46658159670E+03  0.00000000000E+00 0. -1.
         25    2    1    2    0    0  0.10729729651E+03  0.24615110776E+02 -0.24930678916E+03  0.29986765306E+03  0.12509244866E+03 0.  0.
          5    1    3    3  502    0  0.11279741587E+03 -0.98954191379E+00 -0.24894938277E+03  0.27334502702E+03  0.41800000000E+01 0. -1.
         -5    1    3    3    0  502 -0.55001193563E+01  0.25604652689E+02 -0.35740639023E+00  0.26522626031E+02  0.41800000000E+01 0. -1.
        -11    1    1    2    0    0 -0.76281817555E+02  0.28108870096E+02 -0.84549000990E+02  0.11729261629E+03  0.00000000000E+00 0.  1.
         11    1    1    2    0    0 -0.31015478955E+02 -0.52723980871E+02 -0.80802260419E+02  0.10134487349E+03  0.00000000000E+00 0. -1.
</event>
<event>
 7    1  0.2719869E-009  0.1038328E+03  0.7561462E-02  0.1272436E+00
         -4   -1    0    0    0  501 -0.00000000000E+00  0.00000000000E+00  0.15999603183E+02  0.15999603183E+02  0.00000000000E+00 0.  1.
          4   -1    0    0  501    0  0.00000000000E+00 -0.00000000000E+00 -0.79715964932E+03  0.79715964932E+03  0.00000000000E+00 0. -1.
         25    2    1    2    0    0 -0.20897882972E+02  0.83031258544E+01 -0.52540225020E+03  0.54055656939E+03  0.12509283266E+03 0.  0.
          5    1    3    3  502    0 -0.66908672445E+02  0.18182905452E+02 -0.41025657637E+03  0.41609532484E+03  0.41800000000E+01 0. -1.
         -5    1    3    3    0  502  0.46010789473E+02 -0.98797795974E+01 -0.11514567383E+03  0.12446124455E+03  0.41800000000E+01 0. -1.
        -11    1    1    2    0    0  0.55982896524E+01 -0.48047292760E+02 -0.17153479528E+03  0.17822477151E+03  0.00000000000E+00 0.  1.
         11    1    1    2    0    0  0.15299593320E+02  0.39744166905E+02 -0.84223000657E+02  0.94377911602E+02  0.00000000000E+00 0. -1.
</event>
<event>
 7    1  0.3265540E-009  0.1114164E+03  0.7561462E-02  0.1257969E+00
         -2   -1    0    0    0  501 -0.00000000000E+00  0.00000000000E+00  0.68995620700E+02  0.68995620700E+02  0.00000000000E+00 0. -1.
          2   -1    0    0  501    0  0.00000000000E+00 -0.00000000000E+00 -0.27863551602E+03  0.27863551602E+03  0.00000000000E+00 0.  1.
         25    2    1    2    0    0 -0.75620606379E+02 -0.16411317542E+02 -0.67396077817E+02  0.16179508939E+03  0.12509041607E+03 0.  0.
          5    1    3    3  502    0 -0.10987853080E+03 -0.10824432907E+02 -0.40474376680E+02  0.11766948392E+03  0.41800000000E+01 0.  1.
         -5    1    3    3    0  502  0.34257924421E+02 -0.55868846350E+01 -0.26921701137E+02  0.44125605466E+02  0.41800000000E+01 0.  1.
        -11    1    1    2    0    0  0.36940073640E+02  0.82234662083E+01  0.36681784374E+00  0.37846122553E+02  0.00000000000E+00 0. -1.
         11    1    1    2    0    0  0.38680532739E+02  0.81878513336E+01 -0.14261063534E+03  0.14798992478E+03  0.00000000000E+00 0.  1.
</event>
<event>
 7    1  0.2719869E-009  0.2446688E+03  0.7561462E-02  0.1116721E+00
         -2   -1    0    0    0  501 -0.00000000000E+00  0.00000000000E+00  0.11868097922E+03  0.11868097922E+03  0.00000000000E+00 0.  1.
          2   -1    0    0  501    0  0.00000000000E+00 -0.00000000000E+00 -0.59510264172E+03  0.59510264172E+03  0.00000000000E+00 0. -1.
         25    2    1    2    0    0  0.12811821075E+03  0.19751943911E+03 -0.32065461233E+03  0.41700751652E+03  0.12509070180E+03 0.  0.
          5    1    3    3  502    0  0.17944421891E+02  0.12275301904E+02  0.83560922713E+01  0.23663938638E+02  0.41800000000E+01 0.  1.
         -5    1    3    3    0  502  0.11017378886E+03  0.18524413721E+03 -0.32901070460E+03  0.39334357788E+03  0.41800000000E+01 0.  1.
        -11    1    1    2    0    0 -0.10948741474E+03 -0.20430933885E+03 -0.15010339788E+03  0.27615363474E+03  0.00000000000E+00 0. -1.
         11    1    1    2    0    0 -0.18630796015E+02  0.67898997379E+01 -0.56636522991E+01  0.20622469686E+02  0.00000000000E+00 0.  1.
</event>
<event>
 7    1  0.2719869E-009  0.2760665E+03  0.7561462E-02  0.1097857E+00
          1   -1    0    0  501    0  0.00000000000E+00  0.00000000000E+00  0.13967477167E+03  0.13967477167E+03  0.00000000000E+00 0. -1.
         -1   -1    0    0    0  501 -0.00000000000E+00 -0.00000000000E+00 -0.73616185448E+03  0.73616185448E+03  0.00000000000E+00 0.  1.
         25    2    1    2    0    0 -0.52715156900E+01  0.25475938254E+03 -0.83717320268E+02  0.29594743894E+03  0.12508463148E+03 0.  0.
          5    1    3    3  502    0  0.58227231934E+02  0.13855892391E+03 -0.31971097058E+02  0.15371600235E+03  0.41800000000E+01 0. -1.
         -5    1    3    3    0  502 -0.63498747624E+02  0.11620045863E+03 -0.51746223210E+02  0.14223143658E+03  0.41800000000E+01 0. -1.
        -11    1    1    2    0    0  0.41658936749E+02 -0.19441334276E+03 -0.35024156749E+03  0.40274206442E+03  0.00000000000E+00 0. -1.
         11    1    1    2    0    0 -0.36387421059E+02 -0.60346039781E+02 -0.16252819505E+03  0.17714712280E+03  0.00000000000E+00 0.  1.
</event>
<event>
 7    1  0.2719869E-009  0.1074443E+03  0.7561462E-02  0.1265377E+00
          2   -1    0    0  501    0  0.00000000000E+00  0.00000000000E+00  0.42608964619E+03  0.42608964619E+03  0.00000000000E+00 0. -1.
         -2   -1    0    0    0  501 -0.00000000000E+00 -0.00000000000E+00 -0.40962305544E+02  0.40962305544E+02  0.00000000000E+00 0.  1.
         25    2    1    2    0    0  0.98148374589E+01  0.43264224565E+01  0.34530000370E+03  0.36741639772E+03  0.12509063831E+03 0.  0.
          5    1    3    3  502    0 -0.26629005677E+02  0.55330556441E+02  0.14581365620E+03  0.15827087273E+03  0.41800000000E+01 0.  1.
         -5    1    3    3    0  502  0.36443843136E+02 -0.51004133985E+02  0.19948634750E+03  0.20914552499E+03  0.41800000000E+01 0.  1.
        -11    1    1    2    0    0 -0.31904207487E+02  0.33783399705E+02  0.13805203841E+02  0.48474531500E+02  0.00000000000E+00 0. -1.
         11    1    1    2    0    0  0.22089370028E+02 -0.38109822162E+02  0.26022133107E+02  0.51161022516E+02  0.00000000000E+00 0.  1.
</event>
<event>
 7    1  0.2719869E-009  0.1234295E+03  0.7561462E-02  0.1237544E+00
          1   -1    0    0  501    0  0.00000000000E+00  0.00000000000E+00  0.22348613781E+03  0.22348613781E+03  0.00000000000E+00 0. -1.
         -1   -1    0    0    0  501 -0.00000000000E+00 -0.00000000000E+00 -0.12168266222E+03  0.12168266222E+03  0.00000000000E+00 0.  1.
         25    2    1    2    0    0  0.58346410182E+01  0.11605906883E+03  0.83705782947E+02  0.19015313325E+03  0.12509118870E+03 0.  0.
          5    1    3    3  502    0  0.16127733599E+02  0.11169983827E+02  0.82257063855E+02  0.84667403903E+02  0.41800000000E+01 0.  1.
         -5    1    3    3    0  502 -0.10293092580E+02  0.10488908501E+03  0.14487190922E+01  0.10548572935E+03  0.41800000000E+01 0.  1.
        -11    1    1    2    0    0  0.14574705928E+02 -0.39907209279E+02  0.53730331080E+02  0.68497853129E+02  0.00000000000E+00 0. -1.
         11    1    1    2    0    0 -0.20409346946E+02 -0.76151859555E+02 -0.35632638443E+02  0.86517813651E+02  0.00000000000E+00 0.  1.
</event>
<event>
 7    1  0.2719869E-009  0.1499371E+03  0.7561462E-02  0.1200550E+00
          2   -1    0    0  501    0  0.00000000000E+00  0.00000000000E+00  0.95408318454E+02  0.95408318454E+02  0.00000000000E+00 0.  1.
         -2   -1    0    0    0  501 -0.00000000000E+00 -0.00000000000E+00 -0.27365923340E+03  0.27365923340E+03  0.00000000000E+00 0. -1.
         25    2    1    2    0    0 -0.63647183484E+02  0.99233373012E+02 -0.10984739275E+03  0.20399045088E+03  0.12508968012E+03 0.  0.
          5    1    3    3  502    0 -0.88080062550E+02  0.83873452997E+02 -0.12207139784E+03  0.17237097235E+03  0.41800000000E+01 0. -1.
         -5    1    3    3    0  502  0.24432879067E+02  0.15359920015E+02  0.12224005094E+02  0.31619478536E+02  0.41800000000E+01 0. -1.
        -11    1    1    2    0    0  0.27935981996E+02 -0.10856784857E+03 -0.60277263783E+02  0.12728214864E+03  0.00000000000E+00 0. -1.
         11    1    1    2    0    0  0.35711201488E+02  0.93344755618E+01 -0.81262584136E+01  0.37794952328E+02  0.00000000000E+00 0.  1.
</event>
<event>
 7    1  0.2719869E-009  0.9165949E+02  0.7561462E-02  0.1298882E+00
          2   -1    0    0  501    0  0.00000000000E+00  0.00000000000E+00  0.53820267624E+03  0.53820267624E+03  0.00000000000E+00 0. -1.
         -2   -1    0    0    0  501 -0.00000000000E+00 -0.00000000000E+00 -0.29599064426E+02  0.29599064426E+02  0.00000000000E+00 0.  1.
         25    2    1    2    0    0  0.14535578006E+02  0.36462212689E+02  0.29382171496E+03  0.32174307934E+03  0.12508650184E+03 0.  0.
          5    1    3    3  502    0  0.28170569208E+02  0.32601585047E+01  0.31541768300E+01  0.28838010238E+02  0.41800000000E+01 0. -1.
         -5    1    3    3    0  502 -0.13634991203E+02  0.33202054184E+02  0.29066753813E+03  0.29290506911E+03  0.41800000000E+01 0. -1.
        -11    1    1    2    0    0  0.41334001004E+02  0.13586930475E+02  0.98517954486E+02  0.10769815075E+03  0.00000000000E+00 0. -1.
         11    1    1    2    0    0 -0.55869579010E+02 -0.50049143164E+02  0.11626394237E+03  0.13836051057E+03  0.00000000000E+00 0.  1.
</event>
<event>
 7    1  0.2719869E-009  0.1290872E+03  0.7561462E-02  0.1228817E+00
          4   -1    0    0  501    0  0.00000000000E+00  0.00000000000E+00  0.10264285849E+03  0.10264285849E+03  0.00000000000E+00 0. -1.
         -4   -1    0    0    0  501 -0.00000000000E+00 -0.00000000000E+00 -0.27291987481E+03  0.27291987481E+03  0.00000000000E+00 0.  1.
         25    2    1    2    0    0 -0.31757739987E+02  0.10978637710E+03 -0.27699499520E+02  0.17169900363E+03  0.12510668618E+03 0.  0.
          5    1    3    3  502    0  0.19840481721E+02  0.62742093897E+02  0.37686887474E+02  0.75947277429E+02  0.41800000000E+01 0. -1.
         -5    1    3    3    0  502 -0.51598221709E+02  0.47044283203E+02 -0.65386386993E+02  0.95751726197E+02  0.41800000000E+01 0. -1.
        -11    1    1    2    0    0  0.36258967088E+02 -0.47102777009E+02 -0.12530342773E+03  0.13868789888E+03  0.00000000000E+00 0.  1.
         11    1    1    2    0    0 -0.45012271012E+01 -0.62683600090E+02 -0.17274089069E+02  0.65175830788E+02  0.00000000000E+00 0. -1.
</event>
<event>
 7    1  0.2719869E-009  0.1108926E+03  0.7561462E-02  0.1258926E+00
          1   -1    0    0  501    0  0.00000000000E+00  0.00000000000E+00  0.29677583050E+03  0.29677583050E+03  0.00000000000E+00 0. -1.
         -1   -1    0    0    0  501 -0.00000000000E+00 -0.00000000000E+00 -0.52616948970E+02  0.52616948970E+02  0.00000000000E+00 0.  1.
         25    2    1    2    0    0 -0.15081104038E+02 -0.27342699362E+02  0.61264248604E+02  0.14274495318E+03  0.12509096927E+03 0.  0.
          5    1    3    3  502    0 -0.37651167148E+02  0.41574817142E+02  0.28598497994E+02  0.63098512625E+02  0.41800000000E+01 0.  1.
         -5    1    3    3    0  502  0.22570063110E+02 -0.68917516504E+02  0.32665750611E+02  0.79646440553E+02  0.41800000000E+01 0.  1.
        -11    1    1    2    0    0 -0.36240696480E+02  0.18952255743E+02  0.10786919168E+03  0.11536177266E+03  0.00000000000E+00 0. -1.
         11    1    1    2    0    0  0.51321800518E+02  0.83904436194E+01  0.75025441251E+02  0.91286053630E+02  0.00000000000E+00 0.  1.
</event>
<event>
 7    1  0.3750897E-009  0.1170408E+03  0.7561462E-02  0.1248060E+00
         -2   -1    0    0    0  501 -0.00000000000E+00  0.00000000000E+00  0.14128631186E+03  0.14128631186E+03  0.00000000000E+00 0. -1.
          2   -1    0    0  501    0  0.00000000000E+00 -0.00000000000E+00 -0.16875925634E+03  0.16875925634E+03  0.00000000000E+00 0.  1.
         25    2    1    2    0    0  0.45282590231E+02  0.56183839218E+02 -0.97426674651E+02  0.17418746311E+03  0.12506869554E+03 0.  0.
          5    1    3    3  502    0  0.15574745039E+01 -0.32312437293E+02  0.36783189127E+01  0.32825626584E+02  0.41800000000E+01 0. -1.
         -5    1    3    3    0  502  0.43725115727E+02  0.88496276510E+02 -0.10110499356E+03  0.14136183652E+03  0.41800000000E+01 0. -1.
        -11    1    1    2    0    0 -0.25111215112E+02  0.14611149510E+02  0.52812392562E+02  0.60276094951E+02  0.00000000000E+00 0. -1.
         11    1    1    2    0    0 -0.20171375119E+02 -0.70794988728E+02  0.17141337608E+02  0.75582010149E+02  0.00000000000E+00 0.  1.
</event>
<event>
 7    1  0.2719869E-009  0.1262496E+03  0.7561462E-02  0.1233129E+00
          2   -1    0    0  501    0  0.00000000000E+00  0.00000000000E+00  0.88644794243E+02  0.88644794243E+02  0.00000000000E+00 0. -1.
         -2   -1    0    0    0  501 -0.00000000000E+00 -0.00000000000E+00 -0.34864087197E+03  0.34864087197E+03  0.00000000000E+00 0.  1.
         25    2    1    2    0    0 -0.58381268423E+02 -0.89137002382E+02 -0.29059546719E+02  0.16688809189E+03  0.12511354947E+03 0.  0.
          5    1    3    3  502    0 -0.23738936006E+02 -0.10410169510E+02 -0.67617803081E+02  0.72536531523E+02  0.41800000000E+01 0. -1.
         -5    1    3    3    0  502 -0.34642332417E+02 -0.78726832872E+02  0.38558256362E+02  0.94351560364E+02  0.41800000000E+01 0. -1.
        -11    1    1    2    0    0 -0.13658735130E+02 -0.10464369703E+02 -0.21322505501E+02  0.27399148152E+02  0.00000000000E+00 0.  1.
         11    1    1    2    0    0  0.72040003553E+02  0.99601372086E+02 -0.20961402551E+03  0.24299842617E+03  0.00000000000E+00 0. -1.
</event>
<event>
 7    1  0.2812217E-009  0.1240491E+03  0.7561462E-02  0.1236563E+00
          2   -1    0    0  501    0  0.00000000000E+00  0.00000000000E+00  0.96453976913E+03  0.96453976913E+03  0.00000000000E+00 0. -1.
         -2   -1    0    0    0  501 -0.00000000000E+00 -0.00000000000E+00 -0.20528372437E+02  0.20528372437E+02  0.00000000000E+00 0.  1.
         25    2    1    2    0    0 -0.31159989367E+02 -0.79096615324E+02  0.61083406426E+03  0.62927410203E+03  0.12506167251E+03 0.  0.
          5    1    3    3  502    0 -0.38011301175E+02  0.94582863790E+01  0.63224229403E+02  0.74492239743E+02  0.41800000000E+01 0. -1.
         -5    1    3    3    0  502  0.68513118079E+01 -0.88554901703E+02  0.54760983486E+03  0.55478186229E+03  0.41800000000E+01 0. -1.
        -11    1    1    2    0    0 -0.28098745375E+02  0.12829411485E+02  0.13661368958E+03  0.14006224856E+03  0.00000000000E+00 0. -1.
         11    1    1    2    0    0  0.59258734742E+02  0.66267203839E+02  0.19656364285E+03  0.21573179098E+03  0.00000000000E+00 0.  1.
</event>
<event>
 7    1  0.2719869E-009  0.8653326E+02  0.7561462E-02  0.1311471E+00
          2   -1    0    0  501    0  0.00000000000E+00  0.00000000000E+00  0.27232215971E+03  0.27232215971E+03  0.00000000000E+00 0.  1.
         -2   -1    0    0    0  501 -0.00000000000E+00 -0.00000000000E+00 -0.65294857258E+02  0.65294857258E+02  0.00000000000E+00 0. -1.
         25    2    1    2    0    0 -0.65158069752E+02 -0.23571180326E+02  0.64880417922E+02  0.15702992225E+03  0.12509097991E+03 0.  0.
          5    1    3    3  502    0 -0.28362485490E+02 -0.48332796245E+02  0.89838741505E+02  0.10596679504E+03  0.41800000000E+01 0. -1.
         -5    1    3    3    0  502 -0.36795584262E+02  0.24761615919E+02 -0.24958323583E+02  0.51063127207E+02  0.41800000000E+01 0. -1.
        -11    1    1    2    0    0  0.42908528689E+02  0.47318625192E+01  0.87563943286E+01  0.44047778591E+02  0.00000000000E+00 0. -1.
         11    1    1    2    0    0  0.22249541063E+02  0.18839317807E+02  0.13339049020E+03  0.13653931613E+03  0.00000000000E+00 0.  1.
</event>
<event>
 7    1  0.2719869E-009  0.1050801E+03  0.7561462E-02  0.1269962E+00
         -2   -1    0    0    0  501 -0.00000000000E+00  0.00000000000E+00  0.10405366058E+03  0.10405366058E+03  0.00000000000E+00 0.  1.
          2   -1    0    0  501    0  0.00000000000E+00 -0.00000000000E+00 -0.15855445908E+03  0.15855445908E+03  0.00000000000E+00 0. -1.
         25    2    1    2    0    0 -0.54644053927E+02  0.52771158747E+01  0.11991601500E+02  0.13713174551E+03  0.12508995378E+03 0.  0.
          5    1    3    3  502    0  0.18368998837E+02  0.38716741330E+02 -0.23703749497E+02  0.49150242295E+02  0.41800000000E+01 0. -1.
         -5    1    3    3    0  502 -0.73013052763E+02 -0.33439625456E+02  0.35695350997E+02  0.87981503211E+02  0.41800000000E+01 0. -1.
        -11    1    1    2    0    0  0.99669360205E+01  0.28814645820E+02  0.86035450054E+01  0.31680350598E+02  0.00000000000E+00 0.  1.
         11    1    1    2    0    0  0.44677117906E+02 -0.34091761695E+02 -0.75095945002E+02  0.93796023559E+02  0.00000000000E+00 0. -1.
</event>
<event>
 7    1  0.2719869E-009  0.1918183E+03  0.7561462E-02  0.1156832E+00
         -1   -1    0    0    0  501 -0.00000000000E+00  0.00000000000E+00  0.14898953130E+03  0.14898953130E+03  0.00000000000E+00 0.  1.
          1   -1    0    0  501    0  0.00000000000E+00 -0.00000000000E+00 -0.39380390157E+03  0.39380390157E+03  0.00000000000E+00 0. -1.
         25    2    1    2    0    0  0.17265046512E+03  0.45609826628E+02 -0.26303618450E+03  0.34164975489E+03  0.12509229100E+03 0.  0.
          5    1    3    3  502    0  0.76244681933E+02  0.49714778104E+02 -0.41794637904E+02  0.10024507391E+03  0.41800000000E+01 0.  1.
         -5    1    3    3    0  502  0.96405783185E+02 -0.41049514763E+01 -0.22124154660E+03  0.24140468098E+03  0.41800000000E+01 0.  1.
        -11    1    1    2    0    0 -0.47859747601E+02 -0.52392031905E+02  0.26850813545E+02  0.75871250389E+02  0.00000000000E+00 0.  1.
         11    1    1    2    0    0 -0.12479071752E+03  0.67822052770E+01 -0.86289993130E+01  0.12527242760E+03  0.00000000000E+00 0. -1.
</event>
<event>
 7    1  0.2719869E-009  0.1509516E+03  0.7561462E-02  0.1199309E+00
          3   -1    0    0  501    0  0.00000000000E+00  0.00000000000E+00  0.33582236673E+02  0.33582236673E+02  0.00000000000E+00 0. -1.
         -3   -1    0    0    0  501 -0.00000000000E+00 -0.00000000000E+00 -0.82714258934E+03  0.82714258934E+03  0.00000000000E+00 0.  1.
         25    2    1    2    0    0  0.33016076265E+02  0.12007990292E+03 -0.47817777078E+03  0.50971581352E+03  0.12508791189E+03 0.  0.
          5    1    3    3  502    0  0.49300582039E+02  0.14113454787E+03 -0.40304240690E+03  0.42989552469E+03  0.41800000000E+01 0.  1.
         -5    1    3    3    0  502 -0.16284505774E+02 -0.21054644945E+02 -0.75135363880E+02  0.79820288821E+02  0.41800000000E+01 0.  1.
        -11    1    1    2    0    0 -0.27092913295E+02 -0.71445832245E+02 -0.80181051510E+02  0.11075889995E+03  0.00000000000E+00 0. -1.
         11    1    1    2    0    0 -0.59231629700E+01 -0.48634070678E+02 -0.23520153038E+03  0.24025011256E+03  0.00000000000E+00 0.  1.
</event>
<event>
 7    1  0.2719869E-009  0.1467437E+03  0.7561462E-02  0.1204532E+00
         -1   -1    0    0    0  501 -0.00000000000E+00  0.00000000000E+00  0.10915289795E+04  0.10915289795E+04  0.00000000000E+00 0.  1.
          1   -1    0    0  501    0  0.00000000000E+00 -0.00000000000E+00 -0.23518399487E+02  0.23518399487E+02  0.00000000000E+00 0. -1.
         25    2    1    2    0    0 -0.10434103519E+03  0.26684538776E+02  0.40972222466E+03  0.44172480576E+03  0.12509750761E+03 0.  0.
          5    1    3    3  502    0 -0.24671800892E+02  0.68977177267E+02  0.21258894259E+03  0.22489570840E+03  0.41800000000E+01 0.  1.
         -5    1    3    3    0  502 -0.79669234300E+02 -0.42292638492E+02  0.19713328207E+03  0.21682909736E+03  0.41800000000E+01 0.  1.
        -11    1    1    2    0    0  0.11453915763E+02  0.22103818208E+02  0.47907804171E+02  0.53990079331E+02  0.00000000000E+00 0. -1.
         11    1    1    2    0    0  0.92887119430E+02 -0.48788356984E+02  0.61038055119E+03  0.61933249390E+03  0.00000000000E+00 0.  1.
</event>
<event>
 7    1  0.2719869E-009  0.2029928E+03  0.7561462E-02  0.1147238E+00
         -2   -1    0    0    0  501 -0.00000000000E+00  0.00000000000E+00  0.19246520898E+02  0.19246520898E+02  0.00000000000E+00 0.  1.
          2   -1    0    0  501    0  0.00000000000E+00 -0.00000000000E+00 -0.25009554867E+04  0.25009554867E+04  0.00000000000E+00 0. -1.
         25    2    1    2    0    0 -0.14964971952E+03  0.99873334625E+02 -0.15871401933E+04  0.16021958099E+04  0.12509076241E+03 0.  0.
          5    1    3    3  502    0 -0.15926584696E+03  0.82076668749E+02 -0.15439873315E+04  0.15543540593E+04  0.41800000000E+01 0. -1.
         -5    1    3    3    0  502  0.96161274455E+01  0.17796665877E+02 -0.43152861787E+02  0.47841750635E+02  0.41800000000E+01 0. -1.
        -11    1    1    2    0    0  0.13656434551E+03 -0.36441742935E+02 -0.61173436423E+03  0.62785090067E+03  0.00000000000E+00 0. -1.
         11    1    1    2    0    0  0.13085374002E+02 -0.63431591691E+02 -0.28283440826E+03  0.29015529693E+03  0.00000000000E+00 0.  1.
</event>
<event>
 7    1  0.2719869E-009  0.1791299E+03  0.7561462E-02  0.1168648E+00
          2   -1    0    0  501    0  0.00000000000E+00  0.00000000000E+00  0.30839451255E+03  0.30839451255E+03  0.00000000000E+00 0. -1.
         -2   -1    0    0    0  501 -0.00000000000E+00 -0.00000000000E+00 -0.14505775914E+03  0.14505775914E+03  0.00000000000E+00 0.  1.
         25    2    1    2    0    0  0.15828912748E+03 -0.66441939727E+02  0.26944250620E+02  0.21410675283E+03  0.12508289144E+03 0.  0.
          5    1    3    3  502    0  0.44731581929E+02  0.13450965567E+02 -0.38384466332E+02  0.60602661263E+02  0.41800000000E+01 0.  1.
         -5    1    3    3    0  502  0.11355754555E+03 -0.79892905294E+02  0.65328716952E+02  0.15350409156E+03  0.41800000000E+01 0.  1.
        -11    1    1    2    0    0 -0.25782069888E+02  0.44519186264E+01 -0.13886405876E+02  0.29620381080E+02  0.00000000000E+00 0.  1.
         11    1    1    2    0    0 -0.13250705760E+03  0.61990021100E+02  0.15027890867E+03  0.20972513778E+03  0.00000000000E+00 0. -1.
</event>
<event>
 7    1  0.2719869E-009  0.1739864E+03  0.7561462E-02  0.1173753E+00
          1   -1    0    0  501    0  0.00000000000E+00  0.00000000000E+00  0.29582414802E+03  0.29582414802E+03  0.00000000000E+00 0. -1.
         -1   -1    0    0    0  501 -0.00000000000E+00 -0.00000000000E+00 -0.18796029777E+03  0.18796029777E+03  0.00000000000E+00 0.  1.
         25    2    1    2    0    0  0.15433882941E+03  0.44118950742E+02  0.19282400746E+03  0.28034924217E+03  0.12509054184E+03 0.  0.
          5    1    3    3  502    0  0.38958347786E+02 -0.16326182510E+02  0.12788254671E+03  0.13474314547E+03  0.41800000000E+01 0.  1.
         -5    1    3    3    0  502  0.11538048162E+03  0.60445133251E+02  0.64941460745E+02  0.14560609670E+03  0.41800000000E+01 0.  1.
        -11    1    1    2    0    0 -0.30560589074E+01  0.13107534797E+02  0.91774343190E+01  0.16290250617E+02  0.00000000000E+00 0. -1.
         11    1    1    2    0    0 -0.15128277050E+03 -0.57226485539E+02 -0.94137591523E+02  0.18714495300E+03  0.00000000000E+00 0.  1.
</event>
<event>
 7    1  0.2719869E-009  0.1165078E+03  0.7561462E-02  0.1248972E+00
         -1   -1    0    0    0  501 -0.00000000000E+00  0.00000000000E+00  0.20160790129E+03  0.20160790129E+03  0.00000000000E+00 0.  1.
          1   -1    0    0  501    0  0.00000000000E+00 -0.00000000000E+00 -0.10988911102E+03  0.10988911102E+03  0.00000000000E+00 0. -1.
         25    2    1    2    0    0 -0.68508973234E+02 -0.39195423222E+02 -0.16205688667E+02  0.14879471939E+03  0.12508990191E+03 0.  0.
          5    1    3    3  502    0 -0.55101585594E+02 -0.78915359496E+02  0.13450553629E+02  0.97273883917E+02  0.41800000000E+01 0. -1.
         -5    1    3    3    0  502 -0.13407387641E+02  0.39719936274E+02 -0.29656242296E+02  0.51520835476E+02  0.41800000000E+01 0. -1.
        -11    1    1    2    0    0  0.48415936601E+02 -0.22701341987E+01  0.35374239393E+01  0.48598043112E+02  0.00000000000E+00 0. -1.
         11    1    1    2    0    0  0.20093036634E+02  0.41465557421E+02  0.10438705500E+03  0.11410424981E+03  0.00000000000E+00 0.  1.
</event>
<event>
 7    1  0.2719869E-009  0.1571968E+03  0.7561462E-02  0.1191898E+00
          2   -1    0    0  501    0  0.00000000000E+00  0.00000000000E+00  0.20534647089E+04  0.20534647089E+04  0.00000000000E+00 0. -1.
         -2   -1    0    0    0  501 -0.00000000000E+00 -0.00000000000E+00 -0.16874856932E+02  0.16874856932E+02  0.00000000000E+00 0.  1.
         25    2    1    2    0    0 -0.32785793638E+02 -0.12919140929E+03  0.14685275594E+04  0.14798601498E+04  0.12509013519E+03 0.  0.
          5    1    3    3  502    0 -0.20896792259E+01 -0.14105929415E+03  0.13275752645E+04  0.13350564208E+04  0.41800000000E+01 0. -1.
         -5    1    3    3    0  502 -0.30696114412E+02  0.11867884858E+02  0.14095229486E+03  0.14480372909E+03  0.41800000000E+01 0. -1.
        -11    1    1    2    0    0  0.43270315611E+02  0.96669099212E+02  0.52464360284E+03  0.53522719003E+03  0.00000000000E+00 0. -1.
         11    1    1    2    0    0 -0.10484521973E+02  0.32522310081E+02  0.43418689768E+02  0.55252225975E+02  0.00000000000E+00 0.  1.
</event>
<event>
 7    1  0.2719869E-009  0.1034394E+03  0.7561462E-02  0.1273225E+00
          1   -1    0    0  501    0  0.00000000000E+00  0.00000000000E+00  0.50335540644E+03  0.50335540644E+03  0.00000000000E+00 0. -1.
         -1   -1    0    0    0  501 -0.00000000000E+00 -0.00000000000E+00 -0.23869059908E+02  0.23869059908E+02  0.00000000000E+00 0.  1.
         25    2    1    2    0    0 -0.16290081146E+02 -0.11955795001E+02  0.30363113028E+03  0.32901035692E+03  0.12509054285E+03 0.  0.
          5    1    3    3  502    0  0.23194349888E+02  0.48556449021E+02  0.11752642270E+03  0.12932764222E+03  0.41800000000E+01 0.  1.
         -5    1    3    3    0  502 -0.39484431034E+02 -0.60512244022E+02  0.18610470757E+03  0.19968271470E+03  0.41800000000E+01 0.  1.
        -11    1    1    2    0    0  0.47604887585E+02  0.12467379313E+02  0.14913925143E+03  0.15704832755E+03  0.00000000000E+00 0. -1.
         11    1    1    2    0    0 -0.31314806438E+02 -0.51158431189E+00  0.26715964817E+02  0.41165781869E+02  0.00000000000E+00 0.  1.
</event>
<event>
 7    1  0.2719869E-009  0.7063052E+02  0.7561462E-02  0.1357962E+00
         -1   -1    0    0    0  501 -0.00000000000E+00  0.00000000000E+00  0.75156888882E+03  0.75156888882E+03  0.00000000000E+00 0.  1.
          1   -1    0    0  501    0  0.00000000000E+00 -0.00000000000E+00 -0.19269037181E+02  0.19269037181E+02  0.00000000000E+00 0. -1.
         25    2    1    2    0    0  0.32619450469E+02  0.34434692955E+02  0.47533863687E+03  0.49380526305E+03  0.12508813487E+03 0.  0.
          5    1    3    3  502    0  0.15088613044E+02  0.13371633566E+02  0.46300790001E+03  0.46346548383E+03  0.41800000000E+01 0. -1.
         -5    1    3    3    0  502  0.17530837425E+02  0.21063059389E+02  0.12330736860E+02  0.30339779221E+02  0.41800000000E+01 0. -1.
        -11    1    1    2    0    0 -0.55611165620E+01  0.26077507475E+02  0.14068353874E+03  0.14318805986E+03  0.00000000000E+00 0.  1.
         11    1    1    2    0    0 -0.27058333907E+02 -0.60512200430E+02  0.11627767602E+03  0.13384460309E+03  0.00000000000E+00 0. -1.
</event>
<event>
 6    1  0.2719869E-009  0.3041022E+03  0.7561462E-02  0.1083208E+00
          2   -1    0    0  501    0  0.00000000000E+00  0.00000000000E+00  0.13282600776E+04  0.13282600776E+04  0.00000000000E+00 0. -1.
         -2   -1    0    0    0  501 -0.00000000000E+00 -0.00000000000E+00 -0.13004802005E+03  0.13004802005E+03  0.00000000000E+00 0.  1.
          5    1    1    2  502    0 -0.10231267932E+03 -0.13831934706E+03  0.67058890584E+03  0.69232006988E+03  0.41800000000E+01 0. -1.
         -5    1    1    2    0  502  0.16263502947E+02 -0.14172620620E+03  0.41574682987E+03  0.43956082400E+03  0.41800000000E+01 0. -1.
        -11    1    1    2    0    0  0.48665222328E+02  0.13163943904E+03  0.10117089390E+03  0.17301096945E+03  0.00000000000E+00 0. -1.
         11    1    1    2    0    0  0.37383954046E+02  0.14840611421E+03  0.10705427891E+02  0.15341623428E+03  0.00000000000E+00 0.  1.
</event>
<event>
 7    1  0.2719869E-009  0.2020808E+03  0.7561462E-02  0.1147995E+00
          1   -1    0    0  501    0  0.00000000000E+00  0.00000000000E+00  0.28108013030E+03  0.28108013030E+03  0.00000000000E+00 0. -1.
         -1   -1    0    0    0  501 -0.00000000000E+00 -0.00000000000E+00 -0.16726066016E+03  0.16726066016E+03  0.00000000000E+00 0.  1.
         25    2    1    2    0    0  0.56967373544E+02 -0.17259631652E+03  0.10645405595E+03  0.24497853047E+03  0.12508894531E+03 0.  0.
          5    1    3    3  502    0  0.13665906436E+02  0.76825608283E+01 -0.15966017886E+02  0.22763234979E+02  0.41800000000E+01 0. -1.
         -5    1    3    3    0  502  0.43301467108E+02 -0.18027887735E+03  0.12242007383E+03  0.22221529549E+03  0.41800000000E+01 0. -1.
        -11    1    1    2    0    0  0.22378521495E+02  0.18021040718E+02 -0.50323620510E+01  0.29169861170E+02  0.00000000000E+00 0. -1.
         11    1    1    2    0    0 -0.79345895038E+02  0.15457527580E+03  0.12397776247E+02  0.17419239882E+03  0.00000000000E+00 0.  1.
</event>
<event>
 7    1  0.2719869E-009  0.1389470E+03  0.7561462E-02  0.1214753E+00
         -1   -1    0    0    0  501 -0.00000000000E+00  0.00000000000E+00  0.60664086105E+02  0.60664086105E+02  0.00000000000E+00 0.  1.
          1   -1    0    0  501    0  0.00000000000E+00 -0.00000000000E+00 -0.40435957760E+03  0.40435957760E+03  0.00000000000E+00 0. -1.
         25    2    1    2    0    0 -0.33051352320E+02 -0.10334096816E+03 -0.13917373389E+03  0.21630642363E+03  0.12508954037E+03 0.  0.
          5    1    3    3  502    0 -0.78456084913E+02 -0.84049841656E+02 -0.10799180395E+03  0.15779554893E+03  0.41800000000E+01 0.  1.
         -5    1    3    3    0  502  0.45404732593E+02 -0.19291126507E+02 -0.31181929942E+02  0.58510874705E+02  0.41800000000E+01 0.  1.
        -11    1    1    2    0    0  0.22745646728E+02  0.99914626052E+02 -0.21204431266E+03  0.23550602429E+03  0.00000000000E+00 0. -1.
         11    1    1    2    0    0  0.10305705592E+02  0.34263421118E+01  0.75225550514E+01  0.13211215785E+02  0.00000000000E+00 0.  1.
</event>
<event>
 7    1  0.2857836E-009  0.2120708E+03  0.7561462E-02  0.1139937E+00
          2   -1    0    0  501    0  0.00000000000E+00  0.00000000000E+00  0.23228251104E+03  0.23228251104E+03  0.00000000000E+00 0. -1.
         -2   -1    0    0    0  501 -0.00000000000E+00 -0.00000000000E+00 -0.21606066052E+03  0.21606066052E+03  0.00000000000E+00 0.  1.
         25    2    1    2    0    0 -0.67253303813E+02 -0.18203718261E+03  0.32528864552E+02  0.23316737882E+03  0.12509339227E+03 0.  0.
          5    1    3    3  502    0 -0.27184254857E+02  0.12044217855E+02  0.16603103368E+02  0.34310090897E+02  0.41800000000E+01 0.  1.
         -5    1    3    3    0  502 -0.40069048955E+02 -0.19408140047E+03  0.15925761184E+02  0.19885728792E+03  0.41800000000E+01 0.  1.
        -11    1    1    2    0    0  0.44167052149E+02  0.81025833861E+02 -0.51582469941E+02  0.10571974959E+03  0.00000000000E+00 0. -1.
         11    1    1    2    0    0  0.23086251663E+02  0.10101134875E+03  0.35275455905E+02  0.10945604315E+03  0.00000000000E+00 0.  1.
</event>
<event>
 7    1  0.2719869E-009  0.1678653E+03  0.7561462E-02  0.1180092E+00
          2   -1    0    0  501    0  0.00000000000E+00  0.00000000000E+00  0.67167540430E+02  0.67167540430E+02  0.00000000000E+00 0. -1.
         -2   -1    0    0    0  501 -0.00000000000E+00 -0.00000000000E+00 -0.48033558888E+03  0.48033558888E+03  0.00000000000E+00 0.  1.
         25    2    1    2    0    0  0.70238838856E+01 -0.13866107321E+03 -0.16354876938E+03  0.24833821642E+03  0.12508973419E+03 0.  0.
          5    1    3    3  502    0  0.32629041781E+02 -0.11955060014E+01 -0.77244190508E+02  0.83965593961E+02  0.41800000000E+01 0. -1.
         -5    1    3    3    0  502 -0.25605157895E+02 -0.13746556721E+03 -0.86304578877E+02  0.16437262246E+03  0.41800000000E+01 0. -1.
        -11    1    1    2    0    0 -0.41291584283E+02  0.11240934734E+03 -0.16165519800E+03  0.20117966931E+03  0.00000000000E+00 0.  1.
         11    1    1    2    0    0  0.34267700398E+02  0.26251725868E+02 -0.87964081070E+02  0.97985243583E+02  0.00000000000E+00 0. -1.
</event>
<event>
 7    1  0.2719869E-009  0.9180067E+02  0.7561462E-02  0.1298549E+00
         -2   -1    0    0    0  501 -0.00000000000E+00  0.00000000000E+00  0.34642656983E+02  0.34642656983E+02  0.00000000000E+00 0.  1.
          2   -1    0    0  501    0  0.00000000000E+00 -0.00000000000E+00 -0.53026711621E+03  0.53026711621E+03  0.00000000000E+00 0. -1.
         25    2    1    2    0    0  0.16403716959E+02  0.20248802649E+01 -0.43771427951E+03  0.45553586494E+03  0.12508377869E+03 0.  0.
          5    1    3    3  502    0 -0.63220466566E+01 -0.57188790084E+02 -0.27198060909E+03  0.27803138331E+03  0.41800000000E+01 0. -1.
         -5    1    3    3    0  502  0.22725763615E+02  0.59213670349E+02 -0.16573367042E+03  0.17750448163E+03  0.41800000000E+01 0. -1.
        -11    1    1    2    0    0 -0.36596598139E+02  0.11128250883E+02  0.81025615240E+01  0.39099878086E+02  0.00000000000E+00 0.  1.
         11    1    1    2    0    0  0.20192881181E+02 -0.13153131148E+02 -0.66012741241E+02  0.70274030165E+02  0.00000000000E+00 0. -1.
</event>
<event>
 7    1  0.2719869E-009  0.1956557E+03  0.7561462E-02  0.1153457E+00
          2   -1    0    0  501    0  0.00000000000E+00  0.00000000000E+00  0.10261595920E+04  0.10261595920E+04  0.00000000000E+00 0. -1.
         -2   -1    0    0    0  501 -0.00000000000E+00 -0.00000000000E+00 -0.40732014334E+02  0.40732014334E+02  0.00000000000E+00 0.  1.
         25    2    1    2    0    0 -0.16332851474E+03  0.32668021188E+02  0.37123225598E+03  0.42568061921E+03  0.12508876190E+03 0.  0.
          5    1    3    3  502    0 -0.77322896603E+02  0.78815977251E+02  0.20420297874E+03  0.23217906352E+03  0.41800000000E+01 0.  1.
         -5    1    3    3    0  502 -0.86005618136E+02 -0.46147956063E+02  0.16702927724E+03  0.19350155569E+03  0.41800000000E+01 0.  1.
        -11    1    1    2    0    0  0.55329463783E+02 -0.48990094210E+02  0.28184224297E+03  0.29136991748E+03  0.00000000000E+00 0. -1.
         11    1    1    2    0    0  0.10799905096E+03  0.16322073022E+02  0.33235307871E+03  0.34984106963E+03  0.00000000000E+00 0.  1.
</event>
<event>
 7    1  0.2719869E-009  0.8080067E+02  0.7561462E-02  0.1326794E+00
          2   -1    0    0  501    0  0.00000000000E+00  0.00000000000E+00  0.46822805471E+03  0.46822805471E+03  0.00000000000E+00 0. -1.
         -2   -1    0    0    0  501 -0.00000000000E+00 -0.00000000000E+00 -0.26460919768E+02  0.26460919768E+02  0.00000000000E+00 0.  1.
         25    2    1    2    0    0 -0.15527551655E+02  0.57708995740E+01  0.30060550333E+03  0.32601493386E+03  0.12509060848E+03 0.  0.
          5    1    3    3  502    0 -0.15723536772E+02  0.58724832443E+02  0.89127013152E+02  0.10796727480E+03  0.41800000000E+01 0. -1.
         -5    1    3    3    0  502  0.19598511706E+00 -0.52953932869E+02  0.21147849017E+03  0.21804765906E+03  0.41800000000E+01 0. -1.
        -11    1    1    2    0    0 -0.32709105456E+01 -0.22284811721E+02 -0.26707937102E+01  0.22681376243E+02  0.00000000000E+00 0.  1.
         11    1    1    2    0    0  0.18798462201E+02  0.16513912147E+02  0.14383242533E+03  0.14599266438E+03  0.00000000000E+00 0. -1.
</event>
<event>
 7    1  0.2719869E-009  0.8154092E+02  0.7561462E-02  0.1324735E+00
         -2   -1    0    0    0  501 -0.00000000000E+00  0.00000000000E+00  0.86897716341E+02  0.86897716341E+02  0.00000000000E+00 0. -1.
          2   -1    0    0  501    0  0.00000000000E+00 -0.00000000000E+00 -0.82774993500E+02  0.82774993500E+02  0.00000000000E+00 0.  1.
         25    2    1    2    0    0  0.22438583891E+01  0.17627627181E+02 -0.42184182501E+01  0.12641511771E+03  0.12508884360E+03 0.  0.
          5    1    3    3  502    0  0.51340839714E+02  0.42292723718E+02  0.14522198119E+02  0.68212337155E+02  0.41800000000E+01 0.  1.
         -5    1    3    3    0  502 -0.49096981324E+02 -0.24665096537E+02 -0.18740616369E+02  0.58202780554E+02  0.41800000000E+01 0.  1.
        -11    1    1    2    0    0  0.12527447333E+02  0.56649312821E+01 -0.18101290672E+01  0.13867406043E+02  0.00000000000E+00 0.  1.
         11    1    1    2    0    0 -0.14771305722E+02 -0.23292558464E+02  0.10151270158E+02  0.29390186089E+02  0.00000000000E+00 0. -1.
</event>
<event>
 7    1  0.2719869E-009  0.1249626E+03  0.7561462E-02  0.1235128E+00
          2   -1    0    0  501    0  0.00000000000E+00  0.00000000000E+00  0.40617358400E+02  0.40617358400E+02  0.00000000000E+00 0.  1.
         -2   -1    0    0    0  501 -0.00000000000E+00 -0.00000000000E+00 -0.62479079383E+03  0.62479079383E+03  0.00000000000E+00 0. -1.
         25    2    1    2    0    0 -0.68232635877E+02  0.93904341166E+02 -0.31905503114E+03  0.36182376890E+03  0.12508640598E+03 0.  0.
          5    1    3    3  502    0 -0.23853831347E+02  0.20043301433E+02 -0.24821075786E+03  0.25019350894E+03  0.41800000000E+01 0. -1.
         -5    1    3    3    0  502 -0.44378804529E+02  0.73861039734E+02 -0.70844273282E+02  0.11163025996E+03  0.41800000000E+01 0. -1.
        -11    1    1    2    0    0  0.94667313889E+01 -0.66864865002E+02 -0.66823358206E+02  0.95004686078E+02  0.00000000000E+00 0.  1.
         11    1    1    2    0    0  0.58765904488E+02 -0.27039476165E+02 -0.19829504609E+03  0.20857969725E+03  0.00000000000E+00 0. -1.
</event>
<event>
 7    1  0.2719869E-009  0.9133789E+02  0.7561462E-02  0.1299644E+00
         -1   -1    0    0    0  501 -0.00000000000E+00  0.00000000000E+00  0.13607950460E+02  0.13607950460E+02  0.00000000000E+00 0.  1.
          1   -1    0    0  501    0  0.00000000000E+00 -0.00000000000E+00 -0.12947626405E+04  0.12947626405E+04  0.00000000000E+00 0. -1.
         25    2    1    2    0    0 -0.54665546190E+02  0.11001905100E+02 -0.97036227974E+03  0.97997924068E+03  0.12508794660E+03 0.  0.
          5    1    3    3  502    0 -0.63449790091E+02  0.16370739780E+02 -0.22132351194E+03  0.23085806531E+03  0.41800000000E+01 0. -1.
         -5    1    3    3    0  502  0.87842439007E+01 -0.53688346809E+01 -0.74903876780E+03  0.74912117537E+03  0.41800000000E+01 0. -1.
        -11    1    1    2    0    0  0.69778711369E+02 -0.34596004294E+02 -0.22045453791E+03  0.23380794546E+03  0.00000000000E+00 0.  1.
         11    1    1    2    0    0 -0.15113165179E+02  0.23594099195E+02 -0.90337872416E+02  0.94583404841E+02  0.00000000000E+00 0. -1.
</event>
<event>
 7    1  0.2719869E-009  0.1551275E+03  0.7561462E-02  0.1194310E+00
         -1   -1    0    0    0  501 -0.00000000000E+00  0.00000000000E+00  0.14690693862E+02  0.14690693862E+02  0.00000000000E+00 0.  1.
          1   -1    0    0  501    0  0.00000000000E+00 -0.00000000000E+00 -0.18668346888E+04  0.18668346888E+04  0.00000000000E+00 0. -1.
         25    2    1    2    0    0  0.78902183673E+02  0.89197164000E+02 -0.12028331547E+04  0.12151692924E+04  0.12508845903E+03 0.  0.
          5    1    3    3  502    0  0.10355098179E+03  0.29157769895E+02 -0.75747655333E+03  0.76508900307E+03  0.41800000000E+01 0.  1.
         -5    1    3    3    0  502 -0.24648798115E+02  0.60039394106E+02 -0.44535660138E+03  0.45008028938E+03  0.41800000000E+01 0.  1.
        -11    1    1    2    0    0 -0.58281338764E+02 -0.98880380602E+02 -0.61176732631E+03  0.62244140741E+03  0.00000000000E+00 0. -1.
         11    1    1    2    0    0 -0.20620844909E+02  0.96832166017E+01 -0.37543513906E+02  0.43914682794E+02  0.00000000000E+00 0.  1.
</event>
<event>
 7    1  0.2719869E-009  0.1075061E+03  0.7561462E-02  0.1265259E+00
         -3   -1    0    0    0  501 -0.00000000000E+00  0.00000000000E+00  0.36082660286E+03  0.36082660286E+03  0.00000000000E+00 0.  1.
          3   -1    0    0  501    0  0.00000000000E+00 -0.00000000000E+00 -0.42326208431E+02  0.42326208431E+02  0.00000000000E+00 0. -1.
         25    2    1    2    0    0  0.30966889764E+02 -0.40765964174E+01  0.97145289189E+02  0.16143368768E+03  0.12509221161E+03 0.  0.
          5    1    3    3  502    0 -0.23664174043E+02 -0.50127149017E+02  0.55860661788E+02  0.78807424378E+02  0.41800000000E+01 0.  1.
         -5    1    3    3    0  502  0.54631063808E+02  0.46050552599E+02  0.41284627401E+02  0.82626263301E+02  0.41800000000E+01 0.  1.
        -11    1    1    2    0    0  0.84998821699E+01 -0.32771143978E+02  0.14029675498E+03  0.14432385573E+03  0.00000000000E+00 0.  1.
         11    1    1    2    0    0 -0.39466771934E+02  0.36847740395E+02  0.81058350259E+02  0.97395267882E+02  0.00000000000E+00 0. -1.
</event>
<event>
 7    1  0.2719869E-009  0.1041669E+03  0.7561462E-02  0.1271770E+00
         -2   -1    0    0    0  501 -0.00000000000E+00  0.00000000000E+00  0.28518762547E+03  0.28518762547E+03  0.00000000000E+00 0.  1.
          2   -1    0    0  501    0  0.00000000000E+00 -0.00000000000E+00 -0.62648557673E+02  0.62648557673E+02  0.00000000000E+00 0. -1.
         25    2    1    2    0    0 -0.42705818195E+01  0.73272403407E+02  0.16821467923E+03  0.22210768354E+03  0.12509421172E+03 0.  0.
          5    1    3    3  502    0 -0.35389998712E+02  0.38539821693E+02  0.54851398047E+01  0.52776216458E+02  0.41800000000E+01 0. -1.
         -5    1    3    3    0  502  0.31119416892E+02  0.34732581714E+02  0.16272953943E+03  0.16933146708E+03  0.41800000000E+01 0. -1.
        -11    1    1    2    0    0  0.41444130676E+02 -0.26159553758E+02  0.41820166550E+02  0.64427203498E+02  0.00000000000E+00 0.  1.
         11    1    1    2    0    0 -0.37173548856E+02 -0.47112849649E+02  0.12504222016E+02  0.61301296111E+02  0.00000000000E+00 0. -1.
</event>
<event>
 7    1  0.2719869E-009  0.7182822E+02  0.7561462E-02  0.1353984E+00
         -2   -1    0    0    0  501 -0.00000000000E+00  0.00000000000E+00  0.34335102319E+02  0.34335102319E+02  0.00000000000E+00 0.  1.
          2   -1    0    0  501    0  0.00000000000E+00 -0.00000000000E+00 -0.65195329780E+03  0.65195329780E+03  0.00000000000E+00 0. -1.
         25    2    1    2    0    0  0.24934281745E+02  0.41407751032E+02 -0.54315630886E+03  0.55946632988E+03  0.12508988035E+03 0.  0.
          5    1    3    3  502    0  0.15130958210E+02 -0.10598287527E+02 -0.62545739602E+01  0.19946470622E+02  0.41800000000E+01 0.  1.
         -5    1    3    3    0  502  0.98033235351E+01  0.52006038559E+02 -0.53690173490E+03  0.53951985926E+03  0.41800000000E+01 0.  1.
        -11    1    1    2    0    0  0.14918183596E+02 -0.11192311902E+01 -0.68184493280E+02  0.69806375096E+02  0.00000000000E+00 0. -1.
         11    1    1    2    0    0 -0.39852465341E+02 -0.40288519842E+02 -0.62773933396E+01  0.57015695137E+02  0.00000000000E+00 0.  1.
</event>
<event>
 7    1  0.2719869E-009  0.1203725E+03  0.7561462E-02  0.1242484E+00
         -2   -1    0    0    0  501 -0.00000000000E+00  0.00000000000E+00  0.43868453196E+02  0.43868453196E+02  0.00000000000E+00 0.  1.
          2   -1    0    0  501    0  0.00000000000E+00 -0.00000000000E+00 -0.47527647489E+03  0.47527647489E+03  0.00000000000E+00 0. -1.
         25    2    1    2    0    0 -0.36571046847E+02  0.83300657759E+02 -0.18235397300E+03  0.23911707586E+03  0.12509022124E+03 0.  0.
          5    1    3    3  502    0 -0.68839653243E+01  0.10948391290E+03 -0.15819701296E+03  0.19255618264E+03  0.41800000000E+01 0.  1.
         -5    1    3    3    0  502 -0.29687081522E+02 -0.26183255144E+02 -0.24156960036E+02  0.46560893220E+02  0.41800000000E+01 0.  1.
        -11    1    1    2    0    0  0.15182701560E+02 -0.41826351481E+02 -0.22130947239E+03  0.22573843420E+03  0.00000000000E+00 0. -1.
         11    1    1    2    0    0  0.21388345287E+02 -0.41474306279E+02 -0.27744576311E+02  0.54289418030E+02  0.00000000000E+00 0.  1.
</event>
<event>
 7    1  0.2719869E-009  0.2779971E+03  0.7561462E-02  0.1096788E+00
         -2   -1    0    0    0  501 -0.00000000000E+00  0.00000000000E+00  0.49944444408E+02  0.49944444408E+02  0.00000000000E+00 0. -1.
          2   -1    0    0  501    0  0.00000000000E+00 -0.00000000000E+00 -0.16347942027E+04  0.16347942027E+04  0.00000000000E+00 0.  1.
         25    2    1    2    0    0  0.17310229652E+03 -0.19650255443E+03 -0.70751765656E+03  0.76472629960E+03  0.12508964785E+03 0.  0.
          5    1    3    3  502    0  0.35098257725E+02 -0.11675485100E+03 -0.21690393477E+03  0.24885411840E+03  0.41800000000E+01 0.  1.
         -5    1    3    3    0  502  0.13800403879E+03 -0.79747703431E+02 -0.49061372179E+03  0.51587218120E+03  0.41800000000E+01 0.  1.
        -11    1    1    2    0    0 -0.88514887583E+02  0.41014592848E+02 -0.25597515841E+03  0.27393496285E+03  0.00000000000E+00 0. -1.
         11    1    1    2    0    0 -0.84587408932E+02  0.15548796158E+03 -0.62135694333E+03  0.64607738466E+03  0.00000000000E+00 0.  1.
</event>
<event>
 7    1  0.2719869E-009  0.1432097E+03  0.7561462E-02  0.1209074E+00
          4   -1    0    0  501    0  0.00000000000E+00  0.00000000000E+00  0.38007226951E+03  0.38007226951E+03  0.00000000000E+00 0. -1.
         -4   -1    0    0    0  501 -0.00000000000E+00 -0.00000000000E+00 -0.60827506670E+02  0.60827506670E+02  0.00000000000E+00 0.  1.
         25    2    1    2    0    0 -0.86509559257E+02  0.39547026917E+02  0.10373037989E+03  0.18829451881E+03  0.12508782083E+03 0.  0.
          5    1    3    3  502    0  0.96210304604E+01 -0.33769269930E+02  0.31784443920E+02  0.47546304735E+02  0.41800000000E+01 0. -1.
         -5    1    3    3    0  502 -0.96130589718E+02  0.73316296846E+02  0.71945935971E+02  0.14074821408E+03  0.41800000000E+01 0. -1.
        -11    1    1    2    0    0 -0.14216280337E+01 -0.42095921347E+02  0.51890644127E+02  0.66833573661E+02  0.00000000000E+00 0.  1.
         11    1    1    2    0    0  0.87931187291E+02  0.25488944306E+01  0.16362373882E+03  0.18577168370E+03  0.00000000000E+00 0. -1.
</event>
<event>
 7    1  0.2719869E-009  0.1007462E+03  0.7561462E-02  0.1278735E+00
          2   -1    0    0  501    0  0.00000000000E+00  0.00000000000E+00  0.35279287744E+03  0.35279287744E+03  0.00000000000E+00 0. -1.
         -2   -1    0    0    0  501 -0.00000000000E+00 -0.00000000000E+00 -0.43751734171E+02  0.43751734171E+02  0.00000000000E+00 0.  1.
         25    2    1    2    0    0  0.28109979371E+01 -0.43958439459E+02  0.10475574405E+03  0.16900165919E+03  0.12509016263E+03 0.  0.
          5    1    3    3  502    0  0.28219921147E+02  0.25214863643E+02  0.84159330088E+02  0.92371091468E+02  0.41800000000E+01 0.  1.
         -5    1    3    3    0  502 -0.25408923210E+02 -0.69173303102E+02  0.20596413960E+02  0.76630567718E+02  0.41800000000E+01 0.  1.
        -11    1    1    2    0    0 -0.15602027695E+02  0.63976791066E+02  0.94273923189E+02  0.11499576365E+03  0.00000000000E+00 0.  1.
         11    1    1    2    0    0  0.12791029758E+02 -0.20018351607E+02  0.11001147603E+03  0.11254718877E+03  0.00000000000E+00 0. -1.
</event>
<event>
 7    1  0.2719869E-009  0.1094561E+03  0.7561462E-02  0.1261581E+00
          4   -1    0    0  501    0  0.00000000000E+00  0.00000000000E+00  0.30304641673E+02  0.30304641673E+02  0.00000000000E+00 0. -1.
         -4   -1    0    0    0  501 -0.00000000000E+00 -0.00000000000E+00 -0.42470160315E+03  0.42470160315E+03  0.00000000000E+00 0.  1.
         25    2    1    2    0    0  0.20909800456E+02  0.41656060457E+01 -0.24133123915E+03  0.27265897024E+03  0.12509026755E+03 0.  0.
          5    1    3    3  502    0  0.10048684542E+01  0.61211775813E+02 -0.15916838512E+03  0.17058704077E+03  0.41800000000E+01 0.  1.
         -5    1    3    3    0  502  0.19904932002E+02 -0.57046169768E+02 -0.82162854030E+02  0.10207192947E+03  0.41800000000E+01 0.  1.
        -11    1    1    2    0    0 -0.45741713495E+02  0.30035088091E+02 -0.67351018240E+02  0.86778859914E+02  0.00000000000E+00 0.  1.
         11    1    1    2    0    0  0.24831913039E+02 -0.34200694137E+02 -0.85714704091E+02  0.95568414667E+02  0.00000000000E+00 0. -1.
</event>
<event>
 7    1  0.2719869E-009  0.1035422E+03  0.7561462E-02  0.1273019E+00
         -2   -1    0    0    0  501 -0.00000000000E+00  0.00000000000E+00  0.14937363916E+02  0.14937363916E+02  0.00000000000E+00 0. -1.
          2   -1    0    0  501    0  0.00000000000E+00 -0.00000000000E+00 -0.11810045821E+04  0.11810045821E+04  0.00000000000E+00 0.  1.
         25    2    1    2    0    0 -0.62862120454E+02  0.14622642862E+02 -0.82179744403E+03  0.83376778220E+03  0.12510878360E+03 0.  0.
          5    1    3    3  502    0 -0.57084809903E+02 -0.20223903515E+02 -0.76034138379E+03  0.76276088921E+03  0.41800000000E+01 0. -1.
         -5    1    3    3    0  502 -0.57773105510E+01  0.34846546377E+02 -0.61456060239E+02  0.71006892987E+02  0.41800000000E+01 0. -1.
        -11    1    1    2    0    0  0.85058337120E+02 -0.15948916979E+01 -0.28790975639E+03  0.30021574279E+03  0.00000000000E+00 0.  1.
         11    1    1    2    0    0 -0.22196216666E+02 -0.13027751164E+02 -0.56360017736E+02  0.61958421008E+02  0.00000000000E+00 0. -1.
</event>
<event>
 7    1  0.2719869E-009  0.8521854E+02  0.7561462E-02  0.1314862E+00
          3   -1    0    0  501    0  0.00000000000E+00  0.00000000000E+00  0.64798412712E+02  0.64798412712E+02  0.00000000000E+00 0. -1.
         -3   -1    0    0    0  501 -0.00000000000E+00 -0.00000000000E+00 -0.23693714440E+03  0.23693714440E+03  0.00000000000E+00 0.  1.
         25    2    1    2    0    0  0.45184543742E+02 -0.23033433916E+02 -0.10998250291E+03  0.17411430266E+03  0.12508979724E+03 0.  0.
          5    1    3    3  502    0  0.58156112399E+02  0.57812096102E+01  0.10455049934E+01  0.58601376047E+02  0.41800000000E+01 0.  1.
         -5    1    3    3    0  502 -0.12971568657E+02 -0.28814643526E+02 -0.11102800790E+03  0.11551292661E+03  0.41800000000E+01 0.  1.
        -11    1    1    2    0    0  0.55485046802E+01  0.28415624972E+02  0.16906473066E+02  0.33527041001E+02  0.00000000000E+00 0. -1.
         11    1    1    2    0    0 -0.50733048422E+02 -0.53821910558E+01 -0.79062701846E+02  0.94094213456E+02  0.00000000000E+00 0.  1.
</event>
<event>
 7    1  0.2719869E-009  0.1097725E+03  0.7561462E-02  0.1260992E+00
         -1   -1    0    0    0  501 -0.00000000000E+00  0.00000000000E+00  0.71397958724E+03  0.71397958724E+03  0.00000000000E+00 0.  1.
          1   -1    0    0  501    0  0.00000000000E+00 -0.00000000000E+00 -0.21333163704E+02  0.21333163704E+02  0.00000000000E+00 0. -1.
         25    2    1    2    0    0 -0.14900667932E+02 -0.55864646937E+02  0.38914064374E+03  0.41282073451E+03  0.12509048545E+03 0.  0.
          5    1    3    3  502    0  0.34687037153E+02  0.90427094601E+01  0.38510121122E+02  0.52777485443E+02  0.41800000000E+01 0. -1.
         -5    1    3    3    0  502 -0.49587705084E+02 -0.64907356397E+02  0.35063052261E+03  0.36004324907E+03  0.41800000000E+01 0. -1.
        -11    1    1    2    0    0 -0.34848688173E+02  0.18545633571E+02  0.65330560522E+02  0.76331210721E+02  0.00000000000E+00 0. -1.
         11    1    1    2    0    0  0.49749356105E+02  0.37319013366E+02  0.23817521928E+03  0.24616080572E+03  0.00000000000E+00 0.  1.
</event>
<event>
 7    1  0.2719869E-009  0.9673958E+02  0.7561462E-02  0.1287305E+00
          1   -1    0    0  501    0  0.00000000000E+00  0.00000000000E+00  0.37787836902E+02  0.37787836902E+02  0.00000000000E+00 0. -1.
         -1   -1    0    0    0  501 -0.00000000000E+00 -0.00000000000E+00 -0.45197990769E+03  0.45197990769E+03  0.00000000000E+00 0.  1.
         25    2    1    2    0    0 -0.12386019303E+02 -0.58383817980E+02 -0.30553513581E+03  0.33550146729E+03  0.12508969448E+03 0.  0.
          5    1    3    3  502    0 -0.81497569350E+01 -0.86721557330E+02 -0.12353993028E+03  0.15121717434E+03  0.41800000000E+01 0. -1.
         -5    1    3    3    0  502 -0.42362623681E+01  0.28337739350E+02 -0.18199520553E+03  0.18428429295E+03  0.41800000000E+01 0. -1.
        -11    1    1    2    0    0 -0.16699724286E+02  0.38838281270E+02 -0.11136434783E+03  0.11911889376E+03  0.00000000000E+00 0.  1.
         11    1    1    2    0    0  0.29085743589E+02  0.19545536710E+02  0.27074128511E+01  0.35147383540E+02  0.00000000000E+00 0. -1.
</event>
<event>
 7    1  0.2719869E-009  0.1471645E+03  0.7561462E-02  0.1204001E+00
         -1   -1    0    0    0  501 -0.00000000000E+00  0.00000000000E+00  0.20299013839E+03  0.20299013839E+03  0.00000000000E+00 0.  1.
          1   -1    0    0  501    0  0.00000000000E+00 -0.00000000000E+00 -0.25508069087E+03  0.25508069087E+03  0.00000000000E+00 0. -1.
         25    2    1    2    0    0 -0.30824094393E+02 -0.12888793271E+03  0.11682721498E+03  0.21646586566E+03  0.12508656540E+03 0.  0.
          5    1    3    3  502    0  0.68022129336E+01 -0.12049208445E+03  0.12813812116E+03  0.17607232324E+03  0.41800000000E+01 0.  1.
         -5    1    3    3    0  502 -0.37626307326E+02 -0.83958482663E+01 -0.11310906179E+02  0.40393542426E+02  0.41800000000E+01 0.  1.
        -11    1    1    2    0    0  0.15211240933E+02  0.21843605354E+02 -0.11993799408E+03  0.12285620607E+03  0.00000000000E+00 0. -1.
         11    1    1    2    0    0  0.15612853459E+02  0.10704432736E+03 -0.48979773391E+02  0.11874875753E+03  0.00000000000E+00 0.  1.
</event>
<event>
 7    1  0.2719869E-009  0.1002709E+03  0.7561462E-02  0.1279727E+00
          2   -1    0    0  501    0  0.00000000000E+00  0.00000000000E+00  0.91103863614E+03  0.91103863614E+03  0.00000000000E+00 0. -1.
         -2   -1    0    0    0  501 -0.00000000000E+00 -0.00000000000E+00 -0.19901171741E+02  0.19901171741E+02  0.00000000000E+00 0.  1.
         25    2    1    2    0    0 -0.38720528139E+02 -0.68928298865E+02  0.43889197983E+03  0.46316693690E+03  0.12508817607E+03 0.  0.
          5    1    3    3  502    0 -0.33989461800E+02 -0.36036459384E+02  0.42618633823E+02  0.65480762575E+02  0.41800000000E+01 0. -1.
         -5    1    3    3    0  502 -0.47310663386E+01 -0.32891839481E+02  0.39627334601E+03  0.39768617433E+03  0.41800000000E+01 0. -1.
        -11    1    1    2    0    0  0.81670473636E+01  0.83210097299E+02  0.27831345034E+03  0.29060109703E+03  0.00000000000E+00 0.  1.
         11    1    1    2    0    0  0.30553480775E+02 -0.14281798434E+02  0.17393203423E+03  0.17717177395E+03  0.00000000000E+00 0. -1.
</event>
<event>
 7    1  0.2719869E-009  0.1171865E+03  0.7561462E-02  0.1247812E+00
          2   -1    0    0  501    0  0.00000000000E+00  0.00000000000E+00  0.15460111391E+04  0.15460111391E+04  0.00000000000E+00 0. -1.
         -2   -1    0    0    0  501 -0.00000000000E+00 -0.00000000000E+00 -0.11936002704E+02  0.11936002704E+02  0.00000000000E+00 0.  1.
         25    2    1    2    0    0 -0.44162888913E+02 -0.53664864383E+02  0.10993045003E+04  0.11085791771E+04  0.12508848556E+03 0.  0.
          5    1    3    3  502    0 -0.42745037623E+02 -0.82113442003E+02  0.10201804618E+04  0.10243804970E+04  0.41800000000E+01 0. -1.
         -5    1    3    3    0  502 -0.14178512907E+01  0.28448577620E+02  0.79124038442E+02  0.84198680098E+02  0.41800000000E+01 0. -1.
        -11    1    1    2    0    0  0.47800326802E+02 -0.10259554125E+02  0.21306347537E+03  0.21860049000E+03  0.00000000000E+00 0. -1.
         11    1    1    2    0    0 -0.36374378888E+01  0.63924418508E+02  0.22170716072E+03  0.23076747464E+03  0.00000000000E+00 0.  1.
</event>
<event>
 7    1  0.2719869E-009  0.9647055E+02  0.7561462E-02  0.1287898E+00
          2   -1    0    0  501    0  0.00000000000E+00  0.00000000000E+00  0.12296120189E+03  0.12296120189E+03  0.00000000000E+00 0. -1.
         -2   -1    0    0    0  501 -0.00000000000E+00 -0.00000000000E+00 -0.93512970744E+02  0.93512970744E+02  0.00000000000E+00 0.  1.
         25    2    1    2    0    0 -0.65655937708E+01 -0.16888898882E+01  0.11847722228E+02  0.12582663606E+03  0.12508402956E+03 0.  0.
          5    1    3    3  502    0  0.59001907929E+02 -0.49369834912E+01  0.84962552080E+01  0.59960467792E+02  0.41800000000E+01 0. -1.
         -5    1    3    3    0  502 -0.65567501700E+02  0.32480936030E+01  0.33514670197E+01  0.65866168269E+02  0.41800000000E+01 0. -1.
        -11    1    1    2    0    0 -0.19796834742E+02  0.25498848812E+02  0.37859240825E+02  0.49753673959E+02  0.00000000000E+00 0. -1.
         11    1    1    2    0    0  0.26362428513E+02 -0.23809958923E+02 -0.20258731907E+02  0.40893862614E+02  0.00000000000E+00 0.  1.
</event>
<event>
 7    1  0.2719869E-009  0.1248304E+03  0.7561462E-02  0.1235335E+00
         -2   -1    0    0    0  501 -0.00000000000E+00  0.00000000000E+00  0.69359568906E+02  0.69359568906E+02  0.00000000000E+00 0.  1.
          2   -1    0    0  501    0  0.00000000000E+00 -0.00000000000E+00 -0.39074585905E+03  0.39074585905E+03  0.00000000000E+00 0. -1.
         25    2    1    2    0    0 -0.88259688034E+02  0.30347063137E+02 -0.58000896757E+02  0.16649847691E+03  0.12508765733E+03 0.  0.
          5    1    3    3  502    0 -0.10882560371E+03  0.34585273590E+02 -0.10930000082E+02  0.11478715292E+03  0.41800000000E+01 0. -1.
         -5    1    3    3    0  502  0.20565915679E+02 -0.42382104533E+01 -0.47070896675E+02  0.51711323996E+02  0.41800000000E+01 0. -1.
        -11    1    1    2    0    0  0.12276084551E+02  0.19548601699E+02 -0.11436603083E+02  0.25761327031E+02  0.00000000000E+00 0.  1.
         11    1    1    2    0    0  0.75983603483E+02 -0.49895664836E+02 -0.25194879030E+03  0.26784562401E+03  0.00000000000E+00 0. -1.
</event>
<event>
 7    1  0.2719869E-009  0.9969626E+02  0.7561462E-02  0.1280936E+00
          3   -1    0    0  501    0  0.00000000000E+00  0.00000000000E+00  0.96256789790E+02  0.96256789790E+02  0.00000000000E+00 0. -1.
         -3   -1    0    0    0  501 -0.00000000000E+00 -0.00000000000E+00 -0.13775147803E+03  0.13775147803E+03  0.00000000000E+00 0.  1.
         25    2    1    2    0    0 -0.56069508891E+01 -0.36551907920E+02 -0.45218377018E+02  0.13806354482E+03  0.12509740572E+03 0.  0.
          5    1    3    3  502    0 -0.39214260979E+01  0.46512333677E+02 -0.21508639100E+02  0.51564219403E+02  0.41800000000E+01 0.  1.
         -5    1    3    3    0  502 -0.16855247913E+01 -0.83064241597E+02 -0.23709737917E+02  0.86499325419E+02  0.41800000000E+01 0.  1.
        -11    1    1    2    0    0  0.12335334875E+02 -0.13819007109E+02  0.32600077138E+02  0.37495206005E+02  0.00000000000E+00 0. -1.
         11    1    1    2    0    0 -0.67283839857E+01  0.50370915029E+02 -0.28876388362E+02  0.58449516993E+02  0.00000000000E+00 0.  1.
</event>
<event>
 7    1  0.2719869E-009  0.1205835E+03  0.7561462E-02  0.1242138E+00
          1   -1    0    0  501    0  0.00000000000E+00  0.00000000000E+00  0.67670105467E+03  0.67670105467E+03  0.00000000000E+00 0. -1.
         -1   -1    0    0    0  501 -0.00000000000E+00 -0.00000000000E+00 -0.22122679612E+02  0.22122679612E+02  0.00000000000E+00 0.  1.
         25    2    1    2    0    0  0.55458622813E+02 -0.57066524851E+01  0.37497283923E+03  0.39919975918E+03  0.12509033871E+03 0.  0.
          5    1    3    3  502    0  0.55872985258E+02 -0.58259629229E+02  0.18174355416E+03  0.19890743263E+03  0.41800000000E+01 0.  1.
         -5    1    3    3    0  502 -0.41436244528E+00  0.52552976744E+02  0.19322928507E+03  0.20029232654E+03  0.41800000000E+01 0.  1.
        -11    1    1    2    0    0  0.61688755996E+01  0.37684824225E+02  0.10423420557E+03  0.11100887628E+03  0.00000000000E+00 0. -1.
         11    1    1    2    0    0 -0.61627498412E+02 -0.31978171740E+02  0.17537133026E+03  0.18861509883E+03  0.00000000000E+00 0.  1.
</event>
<event>
 7    1  0.2719869E-009  0.1056525E+03  0.7561462E-02  0.1268839E+00
         -2   -1    0    0    0  501 -0.00000000000E+00  0.00000000000E+00  0.51856866551E+02  0.51856866551E+02  0.00000000000E+00 0. -1.
          2   -1    0    0  501    0  0.00000000000E+00 -0.00000000000E+00 -0.36497696516E+03  0.36497696516E+03  0.00000000000E+00 0.  1.
         25    2    1    2    0    0  0.50304506833E+02 -0.12818765921E+02 -0.27257017645E+03  0.30436262092E+03  0.12508892740E+03 0.  0.
          5    1    3    3  502    0 -0.13584902981E+02 -0.44476733126E+02 -0.18778006880E+03  0.19349820675E+03  0.41800000000E+01 0. -1.
         -5    1    3    3    0  502  0.63889409815E+02  0.31657967205E+02 -0.84790107646E+02  0.11086441417E+03  0.41800000000E+01 0. -1.
        -11    1    1    2    0    0 -0.61642610443E+02  0.33088504378E+02 -0.51744991751E+01  0.70152947094E+02  0.00000000000E+00 0. -1.
         11    1    1    2    0    0  0.11338103609E+02 -0.20269738458E+02 -0.35375422987E+02  0.42318263694E+02  0.00000000000E+00 0.  1.
</event>
<event>
 7    1  0.2719869E-009  0.1616024E+03  0.7561462E-02  0.1186899E+00
          3   -1    0    0  501    0  0.00000000000E+00  0.00000000000E+00  0.13758481413E+03  0.13758481413E+03  0.00000000000E+00 0.  1.
         -3   -1    0    0    0  501 -0.00000000000E+00 -0.00000000000E+00 -0.21839394197E+03  0.21839394197E+03  0.00000000000E+00 0. -1.
         25    2    1    2    0    0  0.31010417944E+02  0.12912211472E+03 -0.22670948363E+02  0.18383652323E+03  0.12509088233E+03 0.  0.
          5    1    3    3  502    0  0.54790058144E+02  0.20629369543E+02 -0.40441987759E+02  0.71277963868E+02  0.41800000000E+01 0. -1.
         -5    1    3    3    0  502 -0.23779640200E+02  0.10849274517E+03  0.17771039396E+02  0.11255855936E+03  0.41800000000E+01 0. -1.
        -11    1    1    2    0    0 -0.10327744917E+02 -0.13206920050E+03 -0.27883147222E+02  0.13537505655E+03  0.00000000000E+00 0.  1.
         11    1    1    2    0    0 -0.20682673027E+02  0.29470857856E+01 -0.30255032251E+02  0.36767176322E+02  0.00000000000E+00 0. -1.
</event>
<event>
 7    1  0.2719869E-009  0.1913305E+03  0.7561462E-02  0.1157267E+00
          2   -1    0    0  501    0  0.00000000000E+00  0.00000000000E+00  0.22543961910E+03  0.22543961910E+03  0.00000000000E+00 0.  1.
         -2   -1    0    0    0  501 -0.00000000000E+00 -0.00000000000E+00 -0.19076086453E+03  0.19076086453E+03  0.00000000000E+00 0. -1.
         25    2    1    2    0    0  0.40116464030E+02  0.16358889245E+03 -0.33150309353E+02  0.21240726938E+03  0.12508896298E+03 0.  0.
          5    1    3    3  502    0  0.77468855211E+02  0.86240582677E+02 -0.47263041498E+02  0.12526024557E+03  0.41800000000E+01 0.  1.
         -5    1    3    3    0  502 -0.37352391181E+02  0.77348309771E+02  0.14112732145E+02  0.87147023816E+02  0.41800000000E+01 0.  1.
        -11    1    1    2    0    0 -0.53872568213E+02 -0.83289619842E+02  0.71443613039E+02  0.12224403553E+03  0.00000000000E+00 0.  1.
         11    1    1    2    0    0  0.13756104183E+02 -0.80299272606E+02 -0.36145491247E+01  0.81549178712E+02  0.00000000000E+00 0. -1.
</event>
<event>
 7    1  0.2719869E-009  0.1448635E+03  0.7561462E-02  0.1206931E+00
         -4   -1    0    0    0  501 -0.00000000000E+00  0.00000000000E+00  0.80375766132E+02  0.80375766132E+02  0.00000000000E+00 0.  1.
          4   -1    0    0  501    0  0.00000000000E+00 -0.00000000000E+00 -0.31369376560E+03  0.31369376560E+03  0.00000000000E+00 0. -1.
         25    2    1    2    0    0 -0.62552724696E+02  0.86267651280E+02 -0.17018840180E+03  0.23657234849E+03  0.12508969956E+03 0.  0.
          5    1    3    3  502    0  0.28018276151E+02 -0.62057606120E+01 -0.10210438331E+02  0.30745092522E+02  0.41800000000E+01 0. -1.
         -5    1    3    3    0  502 -0.90571000847E+02  0.92473411891E+02 -0.15997796347E+03  0.20582725597E+03  0.41800000000E+01 0. -1.
        -11    1    1    2    0    0  0.11808004537E+02  0.14318328310E+02 -0.37671876669E+02  0.41995401993E+02  0.00000000000E+00 0. -1.
         11    1    1    2    0    0  0.50744720158E+02 -0.10058597959E+03 -0.25457720992E+02  0.11550178125E+03  0.00000000000E+00 0.  1.
</event>
<event>
 7    1  0.2719869E-009  0.1042869E+03  0.7561462E-02  0.1271531E+00
         -2   -1    0    0    0  501 -0.00000000000E+00  0.00000000000E+00  0.19308091760E+02  0.19308091760E+02  0.00000000000E+00 0.  1.
          2   -1    0    0  501    0  0.00000000000E+00 -0.00000000000E+00 -0.63615110553E+03  0.63615110553E+03  0.00000000000E+00 0. -1.
         25    2    1    2    0    0  0.13123207890E+02 -0.13316691838E+02 -0.38816550638E+03  0.40825127306E+03  0.12508832375E+03 0.  0.
          5    1    3    3  502    0 -0.12109423240E+02 -0.63779338783E+02 -0.15073303913E+03  0.16417175053E+03  0.41800000000E+01 0.  1.
         -5    1    3    3    0  502  0.25232631130E+02  0.50462646945E+02 -0.23743246725E+03  0.24407952252E+03  0.41800000000E+01 0.  1.
        -11    1    1    2    0    0  0.24726098266E+02  0.35358804813E+02 -0.16029899192E+03  0.16600419218E+03  0.00000000000E+00 0.  1.
         11    1    1    2    0    0 -0.37849306156E+02 -0.22042112975E+02 -0.68378515470E+02  0.81203732050E+02  0.00000000000E+00 0. -1.
</event>
<event>
 7    1  0.2719869E-009  0.1263728E+03  0.7561462E-02  0.1232939E+00
          1   -1    0    0  501    0  0.00000000000E+00  0.00000000000E+00  0.16034408481E+04  0.16034408481E+04  0.00000000000E+00 0. -1.
         -1   -1    0    0    0  501 -0.00000000000E+00 -0.00000000000E+00 -0.44240530249E+02  0.44240530249E+02  0.00000000000E+00 0.  1.
         25    2    1    2    0    0 -0.44451039960E+02 -0.22888587559E+02  0.14602275407E+04  0.14664279396E+04  0.12508656641E+03 0.  0.
          5    1    3    3  502    0 -0.60019187421E+02 -0.64119667423E+02  0.82899122240E+03  0.83364114212E+03  0.41800000000E+01 0. -1.
         -5    1    3    3    0  502  0.15568147460E+02  0.41231079864E+02  0.63123631827E+03  0.63278679748E+03  0.41800000000E+01 0. -1.
        -11    1    1    2    0    0  0.81277985163E+02  0.12097945151E+02  0.11358287488E+03  0.14019108607E+03  0.00000000000E+00 0. -1.
         11    1    1    2    0    0 -0.36826945203E+02  0.10790642408E+02 -0.14610097664E+02  0.41062352713E+02  0.00000000000E+00 0.  1.
</event>
<event>
 7    1  0.2719869E-009  0.1703891E+03  0.7561462E-02  0.1177443E+00
         -2   -1    0    0    0  501 -0.00000000000E+00  0.00000000000E+00  0.42358268186E+03  0.42358268186E+03  0.00000000000E+00 0. -1.
          2   -1    0    0  501    0  0.00000000000E+00 -0.00000000000E+00 -0.16251423083E+03  0.16251423083E+03  0.00000000000E+00 0.  1.
         25    2    1    2    0    0 -0.11260522058E+03 -0.68714849245E+02  0.34548141035E+03  0.39039315440E+03  0.12509094249E+03 0.  0.
          5    1    3    3  502    0 -0.13491155882E+03 -0.79504933238E+02  0.29940804534E+03  0.33791243411E+03  0.41800000000E+01 0. -1.
         -5    1    3    3    0  502  0.22306338240E+02  0.10790083994E+02  0.46073365009E+02  0.52480720284E+02  0.41800000000E+01 0. -1.
        -11    1    1    2    0    0  0.41827918633E+02  0.77110233477E+02 -0.33848860355E+01  0.87789636845E+02  0.00000000000E+00 0. -1.
         11    1    1    2    0    0  0.70777301945E+02 -0.83953842318E+01 -0.81028073282E+02  0.10791412144E+03  0.00000000000E+00 0.  1.
</event>
<event>
 7    1  0.2936742E-009  0.9601293E+02  0.7561462E-02  0.1288911E+00
         -2   -1    0    0    0  501 -0.00000000000E+00  0.00000000000E+00  0.36235544912E+02  0.36235544912E+02  0.00000000000E+00 0.  1.
          2   -1    0    0  501    0  0.00000000000E+00 -0.00000000000E+00 -0.45153885896E+03  0.45153885896E+03  0.00000000000E+00 0. -1.
         25    2    1    2    0    0  0.32765294036E+02 -0.21755673104E+02 -0.33649854019E+03  0.36114469250E+03  0.12508935830E+03 0.  0.
          5    1    3    3  502    0 -0.44485505197E+02 -0.22097184736E+02 -0.17681618016E+03  0.18370813731E+03  0.41800000000E+01 0.  1.
         -5    1    3    3    0  502  0.77250799233E+02  0.34151163283E+00 -0.15968236003E+03  0.17743655519E+03  0.41800000000E+01 0.  1.
        -11    1    1    2    0    0 -0.46616908305E+02  0.12881689363E+02 -0.23455279495E+01  0.48420817446E+02  0.00000000000E+00 0.  1.
         11    1    1    2    0    0  0.13851614269E+02  0.88739837403E+01 -0.76459245910E+02  0.78208893934E+02  0.00000000000E+00 0. -1.
</event>
<event>
 7    1  0.2719869E-009  0.6985640E+02  0.7561462E-02  0.1360582E+00
          3   -1    0    0  501    0  0.00000000000E+00  0.00000000000E+00  0.48841950285E+02  0.48841950285E+02  0.00000000000E+00 0. -1.
         -3   -1    0    0    0  501 -0.00000000000E+00 -0.00000000000E+00 -0.17526485651E+03  0.17526485651E+03  0.00000000000E+00 0.  1.
         25    2    1    2    0    0  0.55777381888E+01 -0.10114390981E+02 -0.72667127612E+02  0.14512531815E+03  0.12508970568E+03 0.  0.
          5    1    3    3  502    0  0.15811689535E+02  0.45096795555E+02 -0.74705652306E+02  0.88781402229E+02  0.41800000000E+01 0. -1.
         -5    1    3    3    0  502 -0.10233951346E+02 -0.55211186536E+02  0.20385246945E+01  0.56343915925E+02  0.41800000000E+01 0. -1.
        -11    1    1    2    0    0  0.28300306236E+01  0.21274632793E+02  0.19495871321E+01  0.21550405188E+02  0.00000000000E+00 0. -1.
         11    1    1    2    0    0 -0.84077688124E+01 -0.11160241812E+02 -0.55705365743E+02  0.57431083450E+02  0.00000000000E+00 0.  1.
</event>
<event>
 7    1  0.2719869E-009  0.1933453E+03  0.7561462E-02  0.1155478E+00
          1   -1    0    0  501    0  0.00000000000E+00  0.00000000000E+00  0.14449998703E+04  0.14449998703E+04  0.00000000000E+00 0. -1.
         -1   -1    0    0    0  501 -0.00000000000E+00 -0.00000000000E+00 -0.30145727075E+02  0.30145727075E+02  0.00000000000E+00 0.  1.
         25    2    1    2    0    0 -0.10566754545E+03 -0.13604391331E+03  0.90444668369E+03  0.92916339020E+03  0.12508887061E+03 0.  0.
          5    1    3    3  502    0 -0.95051959442E+02 -0.15285981671E+03  0.87533481088E+03  0.89366073098E+03  0.41800000000E+01 0.  1.
         -5    1    3    3    0  502 -0.10615586011E+02  0.16815903401E+02  0.29111872804E+02  0.35502659220E+02  0.41800000000E+01 0.  1.
        -11    1    1    2    0    0  0.71653359805E+02  0.13434849446E+03  0.34500907955E+03  0.37711402375E+03  0.00000000000E+00 0. -1.
         11    1    1    2    0    0  0.34014185648E+02  0.16954188480E+01  0.16539837999E+03  0.16886818342E+03  0.00000000000E+00 0.  1.
</event>
<event>
 7    1  0.2719869E-009  0.1105296E+03  0.7561462E-02  0.1259592E+00
         -1   -1    0    0    0  501 -0.00000000000E+00  0.00000000000E+00  0.32338009166E+03  0.32338009166E+03  0.00000000000E+00 0.  1.
          1   -1    0    0  501    0  0.00000000000E+00 -0.00000000000E+00 -0.45639023103E+02  0.45639023103E+02  0.00000000000E+00 0. -1.
         25    2    1    2    0    0 -0.28839378298E+02  0.31759709699E+01  0.88605937169E+02  0.15601350699E+03  0.12508959082E+03 0.  0.
          5    1    3    3  502    0  0.41295596028E+02 -0.24915777534E+02  0.54850194393E+02  0.73158310850E+02  0.41800000000E+01 0.  1.
         -5    1    3    3    0  502 -0.70134974326E+02  0.28091748504E+02  0.33755742775E+02  0.82855196144E+02  0.41800000000E+01 0.  1.
        -11    1    1    2    0    0  0.62232331808E+02  0.55139131337E+01  0.13579918954E+03  0.14948139095E+03  0.00000000000E+00 0. -1.
         11    1    1    2    0    0 -0.33392953510E+02 -0.86898841035E+01  0.53335941848E+02  0.63524216820E+02  0.00000000000E+00 0.  1.
</event>
<event>
 7    1  0.2719869E-009  0.1142809E+03  0.7561462E-02  0.1252842E+00
          1   -1    0    0  501    0  0.00000000000E+00  0.00000000000E+00  0.12084219048E+03  0.12084219048E+03  0.00000000000E+00 0. -1.
         -1   -1    0    0    0  501 -0.00000000000E+00 -0.00000000000E+00 -0.12320356117E+03  0.12320356117E+03  0.00000000000E+00 0.  1.
         25    2    1    2    0    0  0.29483348023E+02 -0.39932210497E+01  0.34980455883E+02  0.13325900515E+03  0.12509642894E+03 0.  0.
          5    1    3    3  502    0 -0.38137525954E+02  0.31286869175E+02  0.64118200827E+00  0.49509823096E+02  0.41800000000E+01 0.  1.
         -5    1    3    3    0  502  0.67620873978E+02 -0.35280090225E+02  0.34339273874E+02  0.83749182049E+02  0.41800000000E+01 0.  1.
        -11    1    1    2    0    0 -0.16521219398E+02  0.51156762256E+02 -0.97714291368E+01  0.54639233544E+02  0.00000000000E+00 0. -1.
         11    1    1    2    0    0 -0.12962128625E+02 -0.47163541206E+02 -0.27570397436E+02  0.56147512967E+02  0.00000000000E+00 0.  1.
</event>
<event>
 7    1  0.2719869E-009  0.7488653E+02  0.7561462E-02  0.1344223E+00
         -1   -1    0    0    0  501 -0.00000000000E+00  0.00000000000E+00  0.42549107332E+02  0.42549107332E+02  0.00000000000E+00 0.  1.
          1   -1    0    0  501    0  0.00000000000E+00 -0.00000000000E+00 -0.30807536515E+03  0.30807536515E+03  0.00000000000E+00 0. -1.
         25    2    1    2    0    0 -0.38639941943E+02  0.15850870080E+02 -0.14128091199E+03  0.19326562209E+03  0.12508800658E+03 0.  0.
          5    1    3    3  502    0  0.96357959037E+01 -0.66313935888E+01  0.19902725477E+02  0.23460921231E+02  0.41800000000E+01 0. -1.
         -5    1    3    3    0  502 -0.48275737847E+02  0.22482263668E+02 -0.16118363747E+03  0.16980470085E+03  0.41800000000E+01 0. -1.
        -11    1    1    2    0    0  0.38208533475E+02 -0.42574989864E+02 -0.42248245201E+02  0.71115652390E+02  0.00000000000E+00 0.  1.
         11    1    1    2    0    0  0.43140846850E+00  0.26724119784E+02 -0.81997100620E+02  0.86243198002E+02  0.00000000000E+00 0. -1.
</event>
<event>
 7    1  0.2719869E-009  0.1096218E+03  0.7561462E-02  0.1261272E+00
          2   -1    0    0  501    0  0.00000000000E+00  0.00000000000E+00  0.14689090147E+03  0.14689090147E+03  0.00000000000E+00 0. -1.
         -2   -1    0    0    0  501 -0.00000000000E+00 -0.00000000000E+00 -0.13786938722E+03  0.13786938722E+03  0.00000000000E+00 0.  1.
         25    2    1    2    0    0  0.77219203544E+01 -0.45301547671E+02  0.85718667968E+02  0.15845196098E+03  0.12508987020E+03 0.  0.
          5    1    3    3  502    0  0.22214129675E+02  0.38782853195E+02  0.45898192435E+02  0.64200418441E+02  0.41800000000E+01 0.  1.
         -5    1    3    3    0  502 -0.14492209321E+02 -0.84084400866E+02  0.39820475533E+02  0.94251542543E+02  0.41800000000E+01 0.  1.
        -11    1    1    2    0    0  0.11658628156E+02  0.62158246805E+02 -0.78207541866E+02  0.10057828225E+03  0.00000000000E+00 0.  1.
         11    1    1    2    0    0 -0.19380548510E+02 -0.16856699134E+02  0.15103881471E+01  0.25730045445E+02  0.00000000000E+00 0. -1.
</event>
<event>
 7    1  0.2719869E-009  0.9537323E+02  0.7561462E-02  0.1290338E+00
          2   -1    0    0  501    0  0.00000000000E+00  0.00000000000E+00  0.39289969963E+03  0.39289969963E+03  0.00000000000E+00 0. -1.
         -2   -1    0    0    0  501 -0.00000000000E+00 -0.00000000000E+00 -0.54088487480E+02  0.54088487480E+02  0.00000000000E+00 0.  1.
         25    2    1    2    0    0  0.55960798588E+02 -0.39400614616E+02  0.80091762113E+02  0.16355166427E+03  0.12510170708E+03 0.  0.
          5    1    3    3  502    0  0.27789677673E+02 -0.47715716290E+02  0.10891693050E+03  0.12218602995E+03  0.41800000000E+01 0. -1.
         -5    1    3    3    0  502  0.28171120915E+02  0.83151016742E+01 -0.28825168387E+02  0.41365634312E+02  0.41800000000E+01 0. -1.
        -11    1    1    2    0    0  0.18623897110E+02 -0.44948647555E+01  0.10758577924E+03  0.10927832926E+03  0.00000000000E+00 0. -1.
         11    1    1    2    0    0 -0.74584695698E+02  0.43895479372E+02  0.15113367080E+03  0.17415819358E+03  0.00000000000E+00 0.  1.
</event>
<event>
 7    1  0.2719869E-009  0.1515237E+03  0.7561462E-02  0.1198613E+00
          2   -1    0    0  501    0  0.00000000000E+00  0.00000000000E+00  0.21657787850E+03  0.21657787850E+03  0.00000000000E+00 0. -1.
         -2   -1    0    0    0  501 -0.00000000000E+00 -0.00000000000E+00 -0.13559100199E+03  0.13559100199E+03  0.00000000000E+00 0.  1.
         25    2    1    2    0    0 -0.11718248788E+03 -0.42270742099E+02 -0.34923925880E+00  0.17653890841E+03  0.12508922061E+03 0.  0.
          5    1    3    3  502    0 -0.13093668733E+03 -0.73543155891E+00 -0.10512472036E+02  0.13142656283E+03  0.41800000000E+01 0. -1.
         -5    1    3    3    0  502  0.13754199444E+02 -0.41535310540E+02  0.10163232778E+02  0.45112345588E+02  0.41800000000E+01 0. -1.
        -11    1    1    2    0    0  0.86512434538E+02  0.44597494207E+02  0.10008509434E+03  0.13960789350E+03  0.00000000000E+00 0. -1.
         11    1    1    2    0    0  0.30670053347E+02 -0.23267521081E+01 -0.18748978573E+02  0.36022078580E+02  0.00000000000E+00 0.  1.
</event>
<event>
 7    1  0.2719869E-009  0.9050880E+02  0.7561462E-02  0.1301624E+00
          2   -1    0    0  501    0  0.00000000000E+00  0.00000000000E+00  0.21065794207E+03  0.21065794207E+03  0.00000000000E+00 0. -1.
         -2   -1    0    0    0  501 -0.00000000000E+00 -0.00000000000E+00 -0.59811893920E+02  0.59811893920E+02  0.00000000000E+00 0.  1.
         25    2    1    2    0    0 -0.27867387623E+02  0.49003182167E+01  0.10258216375E+03  0.16423567306E+03  0.12509856744E+03 0.  0.
          5    1    3    3  502    0  0.30498043492E+02  0.40048533076E+02  0.75414795103E+02  0.90768272975E+02  0.41800000000E+01 0.  1.
         -5    1    3    3    0  502 -0.58365431115E+02 -0.35148214859E+02  0.27167368643E+02  0.73467400090E+02  0.41800000000E+01 0.  1.
        -11    1    1    2    0    0 -0.15406582916E+02 -0.10451371114E+02  0.58525377383E+02  0.61415093854E+02  0.00000000000E+00 0. -1.
         11    1    1    2    0    0  0.43273970539E+02  0.55510528970E+01 -0.10261492977E+02  0.44819069073E+02  0.00000000000E+00 0.  1.
</event>
<event>
 7    1  0.2898872E-009  0.1758939E+03  0.7561462E-02  0.1171837E+00
          2   -1    0    0  501    0  0.00000000000E+00  0.00000000000E+00  0.12438652995E+04  0.12438652995E+04  0.00000000000E+00 0. -1.
         -2   -1    0    0    0  501 -0.00000000000E+00 -0.00000000000E+00 -0.29434754202E+02  0.29434754202E+02  0.00000000000E+00 0.  1.
         25    2    1    2    0    0  0.28131107835E+01  0.15443860406E+03  0.53567358659E+03  0.57136048009E+03  0.12508961120E+03 0.  0.
          5    1    3    3  502    0  0.35249991116E+02  0.64430683543E+01  0.44241362272E+02  0.57086299049E+02  0.41800000000E+01 0. -1.
         -5    1    3    3    0  502 -0.32436880333E+02  0.14799553571E+03  0.49143222431E+03  0.51427418104E+03  0.41800000000E+01 0. -1.
        -11    1    1    2    0    0  0.22898157865E+02 -0.11361160346E+03  0.58635801942E+03  0.59770197340E+03  0.00000000000E+00 0. -1.
         11    1    1    2    0    0 -0.25711268649E+02 -0.40827000602E+02  0.92398939308E+02  0.10423760022E+03  0.00000000000E+00 0.  1.
</event>
<event>
 7    1  0.2719869E-009  0.1351165E+03  0.7561462E-02  0.1220055E+00
          2   -1    0    0  501    0  0.00000000000E+00  0.00000000000E+00  0.21193728934E+03  0.21193728934E+03  0.00000000000E+00 0. -1.
         -2   -1    0    0    0  501 -0.00000000000E+00 -0.00000000000E+00 -0.15521114778E+03  0.15521114778E+03  0.00000000000E+00 0.  1.
         25    2    1    2    0    0  0.24790317373E+02  0.11999331928E+03 -0.48548302735E+02  0.18170654568E+03  0.12508946614E+03 0.  0.
          5    1    3    3  502    0  0.89830674987E+01  0.32813850082E+02  0.42496482928E+02  0.54597323379E+02  0.41800000000E+01 0. -1.
         -5    1    3    3    0  502  0.15807249874E+02  0.87179469198E+02 -0.91044785663E+02  0.12710922230E+03  0.41800000000E+01 0. -1.
        -11    1    1    2    0    0  0.30282228677E+02 -0.43218959192E+02  0.62291075964E+02  0.81639879667E+02  0.00000000000E+00 0. -1.
         11    1    1    2    0    0 -0.55072546050E+02 -0.76774360087E+02  0.42983368331E+02  0.10380201177E+03  0.00000000000E+00 0.  1.
</event>
<event>
 7    1  0.2719869E-009  0.1121597E+03  0.7561462E-02  0.1256622E+00
         -2   -1    0    0    0  501 -0.00000000000E+00  0.00000000000E+00  0.21849194888E+02  0.21849194888E+02  0.00000000000E+00 0. -1.
          2   -1    0    0  501    0  0.00000000000E+00 -0.00000000000E+00 -0.63989682619E+03  0.63989682619E+03  0.00000000000E+00 0.  1.
         25    2    1    2    0    0  0.32041047239E+01 -0.51485151744E+02 -0.31555416309E+03  0.34333512075E+03  0.12507433053E+03 0.  0.
          5    1    3    3  502    0 -0.57740690601E+02 -0.44116500520E+01 -0.14253354330E+03  0.15390494915E+03  0.41800000000E+01 0. -1.
         -5    1    3    3    0  502  0.60944795325E+02 -0.47073501692E+02 -0.17302061979E+03  0.18943017160E+03  0.41800000000E+01 0. -1.
        -11    1    1    2    0    0  0.34598418286E+02  0.29072876764E+02 -0.82459563003E+02  0.94031176967E+02  0.00000000000E+00 0. -1.
         11    1    1    2    0    0 -0.37802523010E+02  0.22412274980E+02 -0.22003390521E+03  0.22437972337E+03  0.00000000000E+00 0.  1.
</event>
<event>
 7    1  0.2719869E-009  0.1082588E+03  0.7561462E-02  0.1263829E+00
         -3   -1    0    0    0  501 -0.00000000000E+00  0.00000000000E+00  0.92081272309E+02  0.92081272309E+02  0.00000000000E+00 0.  1.
          3   -1    0    0  501    0  0.00000000000E+00 -0.00000000000E+00 -0.14506541603E+03  0.14506541603E+03  0.00000000000E+00 0. -1.
         25    2    1    2    0    0  0.20635986580E+02  0.13109993348E+02  0.19302886254E+01  0.12747314091E+03  0.12509180537E+03 0.  0.
          5    1    3    3  502    0  0.12213312793E+02  0.69184399853E+02  0.48132416387E+01  0.70542794724E+02  0.41800000000E+01 0.  1.
         -5    1    3    3    0  502  0.84226737868E+01 -0.56074406505E+02 -0.28829530133E+01  0.56930346185E+02  0.41800000000E+01 0.  1.
        -11    1    1    2    0    0  0.23302246656E+02 -0.33528756922E+02 -0.43964992576E+02  0.60000773430E+02  0.00000000000E+00 0. -1.
         11    1    1    2    0    0 -0.43938233236E+02  0.20418763574E+02 -0.10949439771E+02  0.49672774002E+02  0.00000000000E+00 0.  1.
</event>
<event>
 7    1  0.2719869E-009  0.1468674E+03  0.7561462E-02  0.1204376E+00
         -3   -1    0    0    0  501 -0.00000000000E+00  0.00000000000E+00  0.44263043442E+02  0.44263043442E+02  0.00000000000E+00 0. -1.
          3   -1    0    0  501    0  0.00000000000E+00 -0.00000000000E+00 -0.72907501746E+03  0.72907501746E+03  0.00000000000E+00 0.  1.
         25    2    1    2    0    0 -0.11623344797E+03 -0.22896570331E+02 -0.54432789779E+03  0.57094194207E+03  0.12508946215E+03 0.  0.
          5    1    3    3  502    0  0.23958049437E+02  0.73705593344E+01 -0.48279559922E+02  0.54559156738E+02  0.41800000000E+01 0.  1.
         -5    1    3    3    0  502 -0.14019149741E+03 -0.30267129665E+02 -0.49604833787E+03  0.51638278533E+03  0.41800000000E+01 0.  1.
        -11    1    1    2    0    0  0.85162555460E+02  0.34205286142E+02 -0.14224795401E+03  0.16928420739E+03  0.00000000000E+00 0.  1.
         11    1    1    2    0    0  0.31070892513E+02 -0.11308715811E+02  0.17638777749E+01  0.33111911447E+02  0.00000000000E+00 0. -1.
</event>
<event>
 7    1  0.2719869E-009  0.1602868E+03  0.7561462E-02  0.1188373E+00
          1   -1    0    0  501    0  0.00000000000E+00  0.00000000000E+00  0.35102226789E+03  0.35102226789E+03  0.00000000000E+00 0. -1.
         -1   -1    0    0    0  501 -0.00000000000E+00 -0.00000000000E+00 -0.88444425729E+02  0.88444425729E+02  0.00000000000E+00 0.  1.
         25    2    1    2    0    0  0.49036023558E+02 -0.12807800473E+03  0.16637783369E+03  0.24927323422E+03  0.12508818830E+03 0.  0.
          5    1    3    3  502    0  0.34523667049E+02  0.12987145195E+02  0.65173252397E+02  0.75003831601E+02  0.41800000000E+01 0. -1.
         -5    1    3    3    0  502  0.14512356509E+02 -0.14106514992E+03  0.10120458130E+03  0.17426940262E+03  0.41800000000E+01 0. -1.
        -11    1    1    2    0    0 -0.32462900179E+02  0.37944588586E+02  0.84025183573E+02  0.97743865104E+02  0.00000000000E+00 0. -1.
         11    1    1    2    0    0 -0.16573123379E+02  0.90133416142E+02  0.12174824896E+02  0.92449594295E+02  0.00000000000E+00 0.  1.
</event>
<event>
 7    1  0.2719869E-009  0.1661848E+03  0.7561462E-02  0.1181886E+00
         -1   -1    0    0    0  501 -0.00000000000E+00  0.00000000000E+00  0.12355648189E+03  0.12355648189E+03  0.00000000000E+00 0.  1.
          1   -1    0    0  501    0  0.00000000000E+00 -0.00000000000E+00 -0.32478769201E+03  0.32478769201E+03  0.00000000000E+00 0. -1.
         25    2    1    2    0    0 -0.16075658044E+03  0.11853135609E+02 -0.16242552881E+03  0.26079245509E+03  0.12508987666E+03 0.  0.
          5    1    3    3  502    0 -0.69192192133E+02  0.33260729003E+02 -0.14633094374E+03  0.16529988820E+03  0.41800000000E+01 0.  1.
         -5    1    3    3    0  502 -0.91564388308E+02 -0.21407593395E+02 -0.16094585071E+02  0.95492566882E+02  0.41800000000E+01 0.  1.
        -11    1    1    2    0    0  0.57104690369E+02 -0.71087328275E+00  0.28132514063E+02  0.63662307141E+02  0.00000000000E+00 0.  1.
         11    1    1    2    0    0  0.10365189007E+03 -0.11142262326E+02 -0.66938195374E+02  0.12388941167E+03  0.00000000000E+00 0. -1.
</event>
<event>
 6    1  0.2719869E-009  0.6349990E+02  0.7561462E-02  0.1383705E+00
          4   -1    0    0  501    0  0.00000000000E+00  0.00000000000E+00  0.14098687735E+03  0.14098687735E+03  0.00000000000E+00 0.  1.
         -4   -1    0    0    0  501 -0.00000000000E+00 -0.00000000000E+00 -0.98201849692E+02  0.98201849692E+02  0.00000000000E+00 0. -1.
          5    1    1    2  502    0 -0.66973248361E+01 -0.19967319467E+01 -0.48743562744E+02  0.49419109739E+02  0.41800000000E+01 0. -1.
         -5    1    1    2    0  502  0.29092298446E+02 -0.37270448978E+02  0.71149777210E+02  0.85529009073E+02  0.41800000000E+01 0. -1.
        -11    1    1    2    0    0 -0.20234944340E+02 -0.96559560219E+01  0.44366824054E+02  0.49710215608E+02  0.00000000000E+00 0.  1.
         11    1    1    2    0    0 -0.21600292703E+01  0.48923136947E+02 -0.23988010857E+02  0.54530392627E+02  0.00000000000E+00 0. -1.
</event>
<event>
 7    1  0.2719869E-009  0.1544441E+03  0.7561462E-02  0.1195116E+00
         -2   -1    0    0    0  501 -0.00000000000E+00  0.00000000000E+00  0.14366280764E+02  0.14366280764E+02  0.00000000000E+00 0.  1.
          2   -1    0    0  501    0  0.00000000000E+00 -0.00000000000E+00 -0.17514456119E+04  0.17514456119E+04  0.00000000000E+00 0. -1.
         25    2    1    2    0    0 -0.11128031177E+03  0.25232612559E+01 -0.11202451741E+04  0.11326899666E+04  0.12509050928E+03 0.  0.
          5    1    3    3  502    0 -0.13885803633E+03  0.63766179223E+01 -0.90897199921E+03  0.91954868455E+03  0.41800000000E+01 0.  1.
         -5    1    3    3    0  502  0.27577724556E+02 -0.38533566664E+01 -0.21127317493E+03  0.21314128201E+03  0.41800000000E+01 0.  1.
        -11    1    1    2    0    0  0.46683085256E+02  0.42333282177E+02 -0.31247031189E+03  0.31876184377E+03  0.00000000000E+00 0.  1.
         11    1    1    2    0    0  0.64597226518E+02 -0.44856543433E+02 -0.30436384508E+03  0.31436008232E+03  0.00000000000E+00 0. -1.
</event>
<event>
 7    1  0.2719869E-009  0.1023737E+03  0.7561462E-02  0.1275382E+00
         -1   -1    0    0    0  501 -0.00000000000E+00  0.00000000000E+00  0.23529666844E+03  0.23529666844E+03  0.00000000000E+00 0.  1.
          1   -1    0    0  501    0  0.00000000000E+00 -0.00000000000E+00 -0.63993922586E+02  0.63993922586E+02  0.00000000000E+00 0. -1.
         25    2    1    2    0    0  0.38480534662E+02 -0.41980197212E+02  0.88905633142E+02  0.16369166101E+03  0.12509060626E+03 0.  0.
          5    1    3    3  502    0  0.32565028201E+02 -0.80208583059E+02  0.89761388260E+02  0.12477370348E+03  0.41800000000E+01 0. -1.
         -5    1    3    3    0  502  0.59155064609E+01  0.38228385847E+02 -0.85575511825E+00  0.38917957526E+02  0.41800000000E+01 0. -1.
        -11    1    1    2    0    0 -0.28080849623E+02 -0.71296932532E+01  0.80288418909E+02  0.85355707790E+02  0.00000000000E+00 0.  1.
         11    1    1    2    0    0 -0.10399685039E+02  0.49109890465E+02  0.21086938044E+01  0.50243222229E+02  0.00000000000E+00 0. -1.
</event>
<event>
 7    1  0.2719869E-009  0.1046467E+03  0.7561462E-02  0.1270817E+00
         -1   -1    0    0    0  501 -0.00000000000E+00  0.00000000000E+00  0.24883840107E+02  0.24883840107E+02  0.00000000000E+00 0.  1.
          1   -1    0    0  501    0  0.00000000000E+00 -0.00000000000E+00 -0.52180932667E+03  0.52180932667E+03  0.00000000000E+00 0. -1.
         25    2    1    2    0    0 -0.69849817285E+01  0.26745214897E+02 -0.24288629515E+03  0.27460096715E+03  0.12509133582E+03 0.  0.
          5    1    3    3  502    0 -0.35583539125E+02 -0.32691677805E+02 -0.45725544627E+02  0.66657571856E+02  0.41800000000E+01 0. -1.
         -5    1    3    3    0  502  0.28598557397E+02  0.59436892701E+02 -0.19716075052E+03  0.20794339529E+03  0.41800000000E+01 0. -1.
        -11    1    1    2    0    0 -0.33565629368E+01  0.33452643847E+02 -0.61406949761E+02  0.70008280753E+02  0.00000000000E+00 0.  1.
         11    1    1    2    0    0  0.10341544665E+02 -0.60197858743E+02 -0.19263224165E+03  0.20208391887E+03  0.00000000000E+00 0. -1.
</event>
<event>
 7    1  0.2719869E-009  0.1765212E+03  0.7561462E-02  0.1171213E+00
         -2   -1    0    0    0  501 -0.00000000000E+00  0.00000000000E+00  0.21902557019E+03  0.21902557019E+03  0.00000000000E+00 0. -1.
          2   -1    0    0  501    0  0.00000000000E+00 -0.00000000000E+00 -0.20831923317E+03  0.20831923317E+03  0.00000000000E+00 0.  1.
         25    2    1    2    0    0  0.94265645305E+02  0.14886918507E+03  0.56489405571E+02  0.22335625501E+03  0.12509563366E+03 0.  0.
          5    1    3    3  502    0  0.41228765892E+02  0.74364788746E+02  0.91831844831E+02  0.12522177553E+03  0.41800000000E+01 0. -1.
         -5    1    3    3    0  502  0.53036879413E+02  0.74504396323E+02 -0.35342439261E+02  0.98134479477E+02  0.41800000000E+01 0. -1.
        -11    1    1    2    0    0 -0.20771937972E+02 -0.27304539029E+02 -0.51429715922E+02  0.61822543935E+02  0.00000000000E+00 0.  1.
         11    1    1    2    0    0 -0.73493707334E+02 -0.12156464604E+03  0.56466473771E+01  0.14216600441E+03  0.00000000000E+00 0. -1.
</event>
<event>
 7    1  0.2719869E-009  0.7243288E+02  0.7561462E-02  0.1352010E+00
         -1   -1    0    0    0  501 -0.00000000000E+00  0.00000000000E+00  0.14823703734E+03  0.14823703734E+03  0.00000000000E+00 0.  1.
          1   -1    0    0  501    0  0.00000000000E+00 -0.00000000000E+00 -0.10387791722E+03  0.10387791722E+03  0.00000000000E+00 0. -1.
         25    2    1    2    0    0 -0.56951566956E+02  0.11612997697E+02  0.95116614562E+01  0.13825998806E+03  0.12508800862E+03 0.  0.
          5    1    3    3  502    0  0.11323199045E+01  0.74642096956E+01 -0.52433420267E+02  0.53138804424E+02  0.41800000000E+01 0.  1.
         -5    1    3    3    0  502 -0.58083886860E+02  0.41487880013E+01  0.61945081723E+02  0.85121183640E+02  0.41800000000E+01 0.  1.
        -11    1    1    2    0    0  0.41626676221E+02 -0.31889814837E+02 -0.17813641153E+02  0.55381100338E+02  0.00000000000E+00 0. -1.
         11    1    1    2    0    0  0.15324890735E+02  0.20276817141E+02  0.52661099820E+02  0.58473866160E+02  0.00000000000E+00 0.  1.
</event>
<event>
 7    1  0.2719869E-009  0.1033175E+03  0.7561462E-02  0.1273470E+00
         -2   -1    0    0    0  501 -0.00000000000E+00  0.00000000000E+00  0.80741641962E+01  0.80741641962E+01  0.00000000000E+00 0.  1.
          2   -1    0    0  501    0  0.00000000000E+00 -0.00000000000E+00 -0.19828241956E+04  0.19828241956E+04  0.00000000000E+00 0. -1.
         25    2    1    2    0    0  0.22048889599E+02 -0.16032813600E+02 -0.15694755659E+04  0.15746870948E+04  0.12507073955E+03 0.  0.
          5    1    3    3  502    0 -0.31453827335E+02  0.28239469129E+02 -0.26726052646E+03  0.27061498901E+03  0.41800000000E+01 0.  1.
         -5    1    3    3    0  502  0.53502716934E+02 -0.44272282729E+02 -0.13022150394E+04  0.13040721058E+04  0.41800000000E+01 0.  1.
        -11    1    1    2    0    0  0.20733452124E+02 -0.26909908216E+02 -0.13287456109E+03  0.13714834371E+03  0.00000000000E+00 0.  1.
         11    1    1    2    0    0 -0.42782341723E+02  0.42942721816E+02 -0.27239990447E+03  0.27906292136E+03  0.00000000000E+00 0. -1.
</event>
<event>
 7    1  0.2830974E-009  0.1800868E+03  0.7561462E-02  0.1167719E+00
          1   -1    0    0  501    0  0.00000000000E+00  0.00000000000E+00  0.22973215971E+03  0.22973215971E+03  0.00000000000E+00 0. -1.
         -1   -1    0    0    0  501 -0.00000000000E+00 -0.00000000000E+00 -0.18214168166E+03  0.18214168166E+03  0.00000000000E+00 0.  1.
         25    2    1    2    0    0  0.90025272421E+02  0.13152645612E+03 -0.42891404172E+02  0.20710303211E+03  0.12509290557E+03 0.  0.
          5    1    3    3  502    0  0.10212514774E+03  0.43719155477E+02 -0.40561486196E+02  0.11833687895E+03  0.41800000000E+01 0. -1.
         -5    1    3    3    0  502 -0.12099875322E+02  0.87807300643E+02 -0.23299179756E+01  0.88766153160E+02  0.41800000000E+01 0. -1.
        -11    1    1    2    0    0 -0.17109979951E+02 -0.38035830500E+02 -0.16715596975E+02  0.44932026417E+02  0.00000000000E+00 0.  1.
         11    1    1    2    0    0 -0.72915292470E+02 -0.93490625620E+02  0.10719747920E+03  0.15983878285E+03  0.00000000000E+00 0. -1.
</event>
<event>
 7    1  0.2719869E-009  0.1152139E+03  0.7561462E-02  0.1251208E+00
          4   -1    0    0  501    0  0.00000000000E+00  0.00000000000E+00  0.30707660123E+03  0.30707660123E+03  0.00000000000E+00 0. -1.
         -4   -1    0    0    0  501 -0.00000000000E+00 -0.00000000000E+00 -0.51449667444E+02  0.51449667444E+02  0.00000000000E+00 0.  1.
         25    2    1    2    0    0 -0.43787290686E+02 -0.43906594201E+02  0.16600718166E+03  0.21691155445E+03  0.12508845770E+03 0.  0.
          5    1    3    3  502    0  0.34227458799E+02 -0.21943156616E+01  0.75243673539E+01  0.35361313058E+02  0.41800000000E+01 0. -1.
         -5    1    3    3    0  502 -0.78014749485E+02 -0.41712278539E+02  0.15848281431E+03  0.18155024139E+03  0.41800000000E+01 0. -1.
        -11    1    1    2    0    0  0.66106026545E+02  0.51433431815E+02  0.56733523183E+02  0.10116371537E+03  0.00000000000E+00 0. -1.
         11    1    1    2    0    0 -0.22318735859E+02 -0.75268376146E+01  0.32886228948E+02  0.40450998865E+02  0.00000000000E+00 0.  1.
</event>
<event>
 7    1  0.2719869E-009  0.1250680E+03  0.7561462E-02  0.1234963E+00
          2   -1    0    0  501    0  0.00000000000E+00  0.00000000000E+00  0.88150674964E+03  0.88150674964E+03  0.00000000000E+00 0. -1.
         -2   -1    0    0    0  501 -0.00000000000E+00 -0.00000000000E+00 -0.21700976124E+02  0.21700976124E+02  0.00000000000E+00 0.  1.
         25    2    1    2    0    0  0.39179199364E+02 -0.68042717114E+02  0.34493005589E+03  0.37521929183E+03  0.12509177626E+03 0.  0.
          5    1    3    3  502    0  0.68745856387E+02 -0.74302905840E+01  0.24488468554E+03  0.25449397557E+03  0.41800000000E+01 0.  1.
         -5    1    3    3    0  502 -0.29566657023E+02 -0.60612426530E+02  0.10004537035E+03  0.12072531626E+03  0.41800000000E+01 0.  1.
        -11    1    1    2    0    0  0.25245220278E+02  0.12207774527E+02  0.78382199255E+02  0.83247342695E+02  0.00000000000E+00 0.  1.
         11    1    1    2    0    0 -0.64424419642E+02  0.55834942587E+02  0.43649351836E+03  0.44474109123E+03  0.00000000000E+00 0. -1.
</event>
<event>
 7    1  0.2719869E-009  0.1951544E+03  0.7561462E-02  0.1153893E+00
         -4   -1    0    0    0  501 -0.00000000000E+00  0.00000000000E+00  0.28138571756E+03  0.28138571756E+03  0.00000000000E+00 0.  1.
          4   -1    0    0  501    0  0.00000000000E+00 -0.00000000000E+00 -0.16113567557E+03  0.16113567557E+03  0.00000000000E+00 0. -1.
         25    2    1    2    0    0 -0.45677321628E+02 -0.17356915450E+03  0.27482812346E+02  0.22048844067E+03  0.12508868209E+03 0.  0.
          5    1    3    3  502    0 -0.80839635925E+02 -0.10691288459E+03  0.47731213385E+02  0.14234167612E+03  0.41800000000E+01 0. -1.
         -5    1    3    3    0  502  0.35162314297E+02 -0.66656269910E+02 -0.20248401040E+02  0.78146764551E+02  0.41800000000E+01 0. -1.
        -11    1    1    2    0    0  0.45653057003E+00  0.34314854502E+02  0.64290691489E+02  0.72876681262E+02  0.00000000000E+00 0.  1.
         11    1    1    2    0    0  0.45220791058E+02  0.13925430000E+03  0.28476538151E+02  0.14915627120E+03  0.00000000000E+00 0. -1.
</event>
<event>
 7    1  0.2719869E-009  0.1050555E+03  0.7561462E-02  0.1270010E+00
         -2   -1    0    0    0  501 -0.00000000000E+00  0.00000000000E+00  0.17995073663E+03  0.17995073663E+03  0.00000000000E+00 0.  1.
          2   -1    0    0  501    0  0.00000000000E+00 -0.00000000000E+00 -0.81918786070E+02  0.81918786070E+02  0.00000000000E+00 0. -1.
         25    2    1    2    0    0  0.72318311783E-01 -0.47651626263E+02  0.84372087253E+02  0.15824212244E+03  0.12510490595E+03 0.  0.
          5    1    3    3  502    0  0.16912497265E+02 -0.77126098786E+02  0.14416056104E+02  0.80372649274E+02  0.41800000000E+01 0.  1.
         -5    1    3    3    0  502 -0.16840178953E+02  0.29474472523E+02  0.69956031149E+02  0.77869473170E+02  0.41800000000E+01 0.  1.
        -11    1    1    2    0    0  0.42095568912E+02  0.25306755977E+02 -0.10365227172E+02  0.50198672836E+02  0.00000000000E+00 0. -1.
         11    1    1    2    0    0 -0.42167887224E+02  0.22344870286E+02  0.24025090475E+02  0.53428727416E+02  0.00000000000E+00 0.  1.
</event>
<event>
 7    1  0.2719869E-009  0.1216811E+03  0.7561462E-02  0.1240349E+00
          2   -1    0    0  501    0  0.00000000000E+00  0.00000000000E+00  0.62948624357E+03  0.62948624357E+03  0.00000000000E+00 0. -1.
         -2   -1    0    0    0  501 -0.00000000000E+00 -0.00000000000E+00 -0.29921378559E+02  0.29921378559E+02  0.00000000000E+00 0.  1.
         25    2    1    2    0    0  0.17919697147E+02  0.80767416770E+02  0.32253397345E+03  0.35569769242E+03  0.12509273842E+03 0.  0.
          5    1    3    3  502    0  0.48946257011E+02  0.74132766138E+02  0.30794091022E+03  0.32052531831E+03  0.41800000000E+01 0.  1.
         -5    1    3    3    0  502 -0.31026559864E+02  0.66346506325E+01  0.14593063228E+02  0.35172374108E+02  0.41800000000E+01 0.  1.
        -11    1    1    2    0    0 -0.10441546701E+02  0.19373636559E+02  0.31400638047E+02  0.38345322541E+02  0.00000000000E+00 0.  1.
         11    1    1    2    0    0 -0.74781504459E+01 -0.10014105333E+03  0.24563025351E+03  0.26536460717E+03  0.00000000000E+00 0. -1.
</event>
<event>
 7    1  0.2719869E-009  0.9841298E+02  0.7561462E-02  0.1283669E+00
         -1   -1    0    0    0  501 -0.00000000000E+00  0.00000000000E+00  0.23493381016E+02  0.23493381016E+02  0.00000000000E+00 0.  1.
          1   -1    0    0  501    0  0.00000000000E+00 -0.00000000000E+00 -0.61965816718E+03  0.61965816718E+03  0.00000000000E+00 0. -1.
         25    2    1    2    0    0 -0.25439285288E+02 -0.29554431901E+02 -0.43783493898E+03  0.45702046796E+03  0.12509057785E+03 0.  0.
          5    1    3    3  502    0  0.27601014510E+02 -0.42314809992E+02 -0.77842588236E+02  0.92894026126E+02  0.41800000000E+01 0. -1.
         -5    1    3    3    0  502 -0.53040299798E+02  0.12760378091E+02 -0.35999235074E+03  0.36412644184E+03  0.41800000000E+01 0. -1.
        -11    1    1    2    0    0 -0.11209285160E+02 -0.24021103342E+02 -0.80683015081E+02  0.84925911253E+02  0.00000000000E+00 0. -1.
         11    1    1    2    0    0  0.36648570448E+02  0.53575535242E+02 -0.77646832108E+02  0.10120516898E+03  0.00000000000E+00 0.  1.
</event>
<event>
 7    1  0.2719869E-009  0.1130589E+03  0.7561462E-02  0.1255008E+00
         -2   -1    0    0    0  501 -0.00000000000E+00  0.00000000000E+00  0.42705348840E+03  0.42705348840E+03  0.00000000000E+00 0.  1.
          2   -1    0    0  501    0  0.00000000000E+00 -0.00000000000E+00 -0.39298471273E+02  0.39298471273E+02  0.00000000000E+00 0. -1.
         25    2    1    2    0    0  0.30069683669E+02  0.59794513322E+02  0.25163356020E+03  0.28887473473E+03  0.12509833749E+03 0.  0.
          5    1    3    3  502    0 -0.30461798198E+02  0.41831715346E+02  0.33590912787E+02  0.61835551102E+02  0.41800000000E+01 0.  1.
         -5    1    3    3    0  502  0.60531481866E+02  0.17962797975E+02  0.21804264742E+03  0.22703918362E+03  0.41800000000E+01 0.  1.
        -11    1    1    2    0    0  0.29790473381E+02 -0.35441116887E+02  0.37557446963E+02  0.59616330756E+02  0.00000000000E+00 0. -1.
         11    1    1    2    0    0 -0.59860157050E+02 -0.24353396435E+02  0.98564009958E+02  0.11786089419E+03  0.00000000000E+00 0.  1.
</event>
<event>
 7    1  0.2719869E-009  0.1086819E+03  0.7561462E-02  0.1263030E+00
         -1   -1    0    0    0  501 -0.00000000000E+00  0.00000000000E+00  0.12277917833E+03  0.12277917833E+03  0.00000000000E+00 0.  1.
          1   -1    0    0  501    0  0.00000000000E+00 -0.00000000000E+00 -0.17728221792E+03  0.17728221792E+03  0.00000000000E+00 0. -1.
         25    2    1    2    0    0  0.94213194259E+02 -0.11604928408E+01  0.10843048681E+01  0.15661100735E+03  0.12509340186E+03 0.  0.
          5    1    3    3  502    0  0.12849109247E+02 -0.32765809012E+02  0.46228903481E+02  0.58251882079E+02  0.41800000000E+01 0. -1.
         -5    1    3    3    0  502  0.81364085012E+02  0.31605316171E+02 -0.45144598613E+02  0.98359125271E+02  0.41800000000E+01 0. -1.
        -11    1    1    2    0    0 -0.16945873360E+02 -0.27526105694E+01  0.25908201873E+02  0.31080128912E+02  0.00000000000E+00 0.  1.
         11    1    1    2    0    0 -0.77267320898E+02  0.39131034102E+01 -0.81495546336E+02  0.11237025999E+03  0.00000000000E+00 0. -1.
</event>
<event>
 7    1  0.2719869E-009  0.1018315E+03  0.7561462E-02  0.1276491E+00
         -4   -1    0    0    0  501 -0.00000000000E+00  0.00000000000E+00  0.71317904318E+02  0.71317904318E+02  0.00000000000E+00 0.  1.
          4   -1    0    0  501    0  0.00000000000E+00 -0.00000000000E+00 -0.20332479313E+03  0.20332479313E+03  0.00000000000E+00 0. -1.
         25    2    1    2    0    0 -0.27237565435E+02  0.31488145488E+02 -0.10872198996E+03  0.17088403936E+03  0.12508994976E+03 0.  0.
          5    1    3    3  502    0  0.99158892326E+01 -0.37037114061E+02 -0.77962600729E+02  0.86981102486E+02  0.41800000000E+01 0.  1.
         -5    1    3    3    0  502 -0.37153454668E+02  0.68525259549E+02 -0.30759389230E+02  0.83902936872E+02  0.41800000000E+01 0.  1.
        -11    1    1    2    0    0  0.53737294773E+02 -0.14881780532E+02  0.11552008658E+02  0.56943947399E+02  0.00000000000E+00 0.  1.
         11    1    1    2    0    0 -0.26499729338E+02 -0.16606364955E+02 -0.34836907508E+02  0.46814710687E+02  0.00000000000E+00 0. -1.
</event>
<event>
 7    1  0.2719869E-009  0.1347419E+03  0.7561462E-02  0.1220585E+00
          3   -1    0    0  501    0  0.00000000000E+00  0.00000000000E+00  0.43891431622E+02  0.43891431622E+02  0.00000000000E+00 0. -1.
         -3   -1    0    0    0  501 -0.00000000000E+00 -0.00000000000E+00 -0.65735991961E+03  0.65735991961E+03  0.00000000000E+00 0.  1.
         25    2    1    2    0    0 -0.58313242484E+02 -0.76844670133E+02 -0.14489337827E+03  0.21435338333E+03  0.12509094412E+03 0.  0.
          5    1    3    3  502    0 -0.90244048100E+02 -0.28918534473E+02 -0.11582010155E+03  0.14970650679E+03  0.41800000000E+01 0.  1.
         -5    1    3    3    0  502  0.31930805617E+02 -0.47926135659E+02 -0.29073276725E+02  0.64646876538E+02  0.41800000000E+01 0.  1.
        -11    1    1    2    0    0 -0.14290170428E+02  0.20479241664E+02 -0.31169021904E+02  0.39938906300E+02  0.00000000000E+00 0. -1.
         11    1    1    2    0    0  0.72603412912E+02  0.56365428469E+02 -0.43740608781E+03  0.44695906160E+03  0.00000000000E+00 0.  1.
</event>
<event>
 7    1  0.2719869E-009  0.1027413E+03  0.7561462E-02  0.1274635E+00
          2   -1    0    0  501    0  0.00000000000E+00  0.00000000000E+00  0.22095014924E+03  0.22095014924E+03  0.00000000000E+00 0. -1.
         -2   -1    0    0    0  501 -0.00000000000E+00 -0.00000000000E+00 -0.96109460499E+02  0.96109460499E+02  0.00000000000E+00 0.  1.
         25    2    1    2    0    0 -0.24735742922E+01 -0.58109403935E+02 -0.11989987475E+02  0.13847467553E+03  0.12509458249E+03 0.  0.
          5    1    3    3  502    0  0.32765162460E+02 -0.59261565074E+02  0.37536419785E+02  0.77536727919E+02  0.41800000000E+01 0.  1.
         -5    1    3    3    0  502 -0.35238736753E+02  0.11521611387E+01 -0.49526407260E+02  0.60937947613E+02  0.41800000000E+01 0.  1.
        -11    1    1    2    0    0 -0.18366054209E+02 -0.16486809456E+02  0.76575523914E+02  0.80454569143E+02  0.00000000000E+00 0. -1.
         11    1    1    2    0    0  0.20839628501E+02  0.74596213391E+02  0.60255152298E+02  0.98130365060E+02  0.00000000000E+00 0.  1.
</event>
<event>
 7    1  0.2719869E-009  0.7436610E+02  0.7561462E-02  0.1345845E+00
         -1   -1    0    0    0  501 -0.00000000000E+00  0.00000000000E+00  0.49953095672E+03  0.49953095672E+03  0.00000000000E+00 0.  1.
          1   -1    0    0  501    0  0.00000000000E+00 -0.00000000000E+00 -0.26383642528E+02  0.26383642528E+02  0.00000000000E+00 0. -1.
         25    2    1    2    0    0  0.50306239265E+01 -0.56199854741E+01  0.35608381809E+03  0.37749178209E+03  0.12508984222E+03 0.  0.
          5    1    3    3  502    0 -0.13547506130E+02 -0.56270747471E+02  0.26722640989E+03  0.27345449070E+03  0.41800000000E+01 0.  1.
         -5    1    3    3    0  502  0.18578130056E+02  0.50650761996E+02  0.88857408194E+02  0.10403729138E+03  0.41800000000E+01 0.  1.
        -11    1    1    2    0    0 -0.18989144830E+02  0.10628028698E+02  0.12810114953E+03  0.12993631950E+03  0.00000000000E+00 0.  1.
         11    1    1    2    0    0  0.13958520903E+02 -0.50080432242E+01 -0.11037653420E+02  0.18486497661E+02  0.00000000000E+00 0. -1.
</event>
<event>
 7    1  0.2719869E-009  0.1077025E+03  0.7561462E-02  0.1264885E+00
          1   -1    0    0  501    0  0.00000000000E+00  0.00000000000E+00  0.18265914554E+04  0.18265914554E+04  0.00000000000E+00 0. -1.
         -1   -1    0    0    0  501 -0.00000000000E+00 -0.00000000000E+00 -0.12369793727E+02  0.12369793727E+02  0.00000000000E+00 0.  1.
         25    2    1    2    0    0  0.31132373866E+01 -0.21626802231E+02  0.15923137963E+04  0.15973692598E+04  0.12509162756E+03 0.  0.
          5    1    3    3  502    0 -0.55709156098E+02 -0.35602972357E+02  0.86828541852E+03  0.87080888956E+03  0.41800000000E+01 0.  1.
         -5    1    3    3    0  502  0.58822393485E+02  0.13976170126E+02  0.72402837778E+03  0.72656037020E+03  0.41800000000E+01 0.  1.
        -11    1    1    2    0    0 -0.41902158245E+02  0.26320234113E+02  0.16717096285E+03  0.17434069063E+03  0.00000000000E+00 0. -1.
         11    1    1    2    0    0  0.38788920859E+02 -0.46934318823E+01  0.54736902478E+02  0.67251298702E+02  0.00000000000E+00 0.  1.
</event>
<event>
 7    1  0.2719869E-009  0.9389360E+02  0.7561462E-02  0.1293688E+00
         -2   -1    0    0    0  501 -0.00000000000E+00  0.00000000000E+00  0.33517053826E+02  0.33517053826E+02  0.00000000000E+00 0.  1.
          2   -1    0    0  501    0  0.00000000000E+00 -0.00000000000E+00 -0.52882859895E+03  0.52882859895E+03  0.00000000000E+00 0. -1.
         25    2    1    2    0    0  0.13118176878E+02  0.68369215987E+02 -0.21348706556E+03  0.25704402113E+03  0.12509382629E+03 0.  0.
          5    1    3    3  502    0 -0.16015384993E+02  0.63678354556E+02 -0.32068093084E+02  0.73193308366E+02  0.41800000000E+01 0.  1.
         -5    1    3    3    0  502  0.29133561872E+02  0.46908614303E+01 -0.18141897248E+03  0.18385071276E+03  0.41800000000E+01 0.  1.
        -11    1    1    2    0    0 -0.37291698764E+02 -0.36420642618E+02 -0.58257515953E+02  0.78173346932E+02  0.00000000000E+00 0.  1.
         11    1    1    2    0    0  0.24173521886E+02 -0.31948573368E+02 -0.22356696361E+03  0.22712828472E+03  0.00000000000E+00 0. -1.
</event>
<event>
 7    1  0.2719869E-009  0.1374595E+03  0.7561462E-02  0.1216789E+00
          1   -1    0    0  501    0  0.00000000000E+00  0.00000000000E+00  0.43291428851E+03  0.43291428851E+03  0.00000000000E+00 0. -1.
         -1   -1    0    0    0  501 -0.00000000000E+00 -0.00000000000E+00 -0.46321825351E+02  0.46321825351E+02  0.00000000000E+00 0.  1.
         25    2    1    2    0    0  0.73789262869E+01 -0.88933400946E+02  0.16750486795E+03  0.22730820853E+03  0.12509013759E+03 0.  0.
          5    1    3    3  502    0  0.20825281170E+02 -0.11757381615E+03  0.11478923592E+03  0.16568444605E+03  0.41800000000E+01 0.  1.
         -5    1    3    3    0  502 -0.13446354883E+02  0.28640415200E+02  0.52715632028E+02  0.61623762483E+02  0.41800000000E+01 0.  1.
        -11    1    1    2    0    0  0.28867651547E+02  0.15325114020E+01  0.39618924041E+02  0.49044357873E+02  0.00000000000E+00 0. -1.
         11    1    1    2    0    0 -0.36246577834E+02  0.87400889544E+02  0.17946867117E+03  0.20288354745E+03  0.00000000000E+00 0.  1.
</event>
<event>
 7    1  0.2719869E-009  0.9717166E+02  0.7561462E-02  0.1286359E+00
         -1   -1    0    0    0  501 -0.00000000000E+00  0.00000000000E+00  0.98118811257E+02  0.98118811257E+02  0.00000000000E+00 0.  1.
          1   -1    0    0  501    0  0.00000000000E+00 -0.00000000000E+00 -0.24413454065E+03  0.24413454065E+03  0.00000000000E+00 0. -1.
         25    2    1    2    0    0 -0.55787786291E+02  0.43989318388E+02  0.14654122098E+02  0.14460249149E+03  0.12509116683E+03 0.  0.
          5    1    3    3  502    0 -0.18801623801E+02  0.51633184578E+02  0.62615676038E+02  0.83412721409E+02  0.41800000000E+01 0.  1.
         -5    1    3    3    0  502 -0.36986162490E+02 -0.76438661894E+01 -0.47961553940E+02  0.61189770079E+02  0.41800000000E+01 0.  1.
        -11    1    1    2    0    0  0.37797050301E+02  0.14163927912E+02 -0.11403522715E+03  0.12096804080E+03  0.00000000000E+00 0. -1.
         11    1    1    2    0    0  0.17990735990E+02 -0.58153246301E+02 -0.46634624348E+02  0.76682819620E+02  0.00000000000E+00 0.  1.
</event>
<event>
 7    1  0.2719869E-009  0.8414130E+02  0.7561462E-02  0.1317694E+00
         -2   -1    0    0    0  501 -0.00000000000E+00  0.00000000000E+00  0.23614129404E+02  0.23614129404E+02  0.00000000000E+00 0.  1.
          2   -1    0    0  501    0  0.00000000000E+00 -0.00000000000E+00 -0.50561235347E+03  0.50561235347E+03  0.00000000000E+00 0. -1.
         25    2    1    2    0    0 -0.29975152435E+01  0.38821329524E+01 -0.23015085876E+03  0.26199377523E+03  0.12508902596E+03 0.  0.
          5    1    3    3  502    0 -0.20180440886E+02  0.39725011176E+02 -0.21442166605E+03  0.21904211919E+03  0.41800000000E+01 0. -1.
         -5    1    3    3    0  502  0.17182925642E+02 -0.35842878224E+02 -0.15729192709E+02  0.42951656036E+02  0.41800000000E+01 0. -1.
        -11    1    1    2    0    0  0.73487767339E+01  0.39391013180E+02 -0.74084705490E+02  0.84227074189E+02  0.00000000000E+00 0.  1.
         11    1    1    2    0    0 -0.43512614904E+01 -0.43273146133E+02 -0.17776265982E+03  0.18300563346E+03  0.00000000000E+00 0. -1.
</event>
<event>
 7    1  0.2719869E-009  0.1025678E+03  0.7561462E-02  0.1274987E+00
          3   -1    0    0  501    0  0.00000000000E+00  0.00000000000E+00  0.17077701700E+03  0.17077701700E+03  0.00000000000E+00 0. -1.
         -3   -1    0    0    0  501 -0.00000000000E+00 -0.00000000000E+00 -0.80070679205E+02  0.80070679205E+02  0.00000000000E+00 0.  1.
         25    2    1    2    0    0  0.13731238421E+02 -0.44320832974E+02  0.43569475800E+02  0.14035142827E+03  0.12508933229E+03 0.  0.
          5    1    3    3  502    0  0.59113868686E+02 -0.57673366382E+02  0.12580286803E+02  0.83644501773E+02  0.41800000000E+01 0.  1.
         -5    1    3    3    0  502 -0.45382630265E+02  0.13352533408E+02  0.30989188997E+02  0.56706926498E+02  0.41800000000E+01 0.  1.
        -11    1    1    2    0    0 -0.13413749866E+02  0.58880387014E+02  0.64149285662E+02  0.88101983583E+02  0.00000000000E+00 0. -1.
         11    1    1    2    0    0 -0.31748855543E+00 -0.14559554040E+02 -0.17012423663E+02  0.22394284354E+02  0.00000000000E+00 0.  1.
</event>
<event>
 7    1  0.2719869E-009  0.1890824E+03  0.7561462E-02  0.1159292E+00
          1   -1    0    0  501    0  0.00000000000E+00  0.00000000000E+00  0.22988088270E+03  0.22988088270E+03  0.00000000000E+00 0. -1.
         -1   -1    0    0    0  501 -0.00000000000E+00 -0.00000000000E+00 -0.21273947342E+03  0.21273947342E+03  0.00000000000E+00 0.  1.
         25    2    1    2    0    0  0.13701055492E+03 -0.98441278682E+02  0.11049629892E+03  0.23731759430E+03  0.12509049118E+03 0.  0.
          5    1    3    3  502    0  0.76416082707E+02  0.42172885911E+01  0.29359989548E+01  0.76702644734E+02  0.41800000000E+01 0. -1.
         -5    1    3    3    0  502  0.60594472209E+02 -0.10265856727E+03  0.10756029996E+03  0.16061494957E+03  0.41800000000E+01 0. -1.
        -11    1    1    2    0    0 -0.36632265939E+02 -0.62923066723E+01 -0.12447935687E+02  0.39197795014E+02  0.00000000000E+00 0.  1.
         11    1    1    2    0    0 -0.10037828898E+03  0.10473358535E+03 -0.80906953944E+02  0.16610496680E+03  0.00000000000E+00 0. -1.
</event>
<event>
 6    1  0.2719869E-009  0.1051613E+03  0.7561462E-02  0.1269802E+00
         -2   -1    0    0    0  501 -0.00000000000E+00  0.00000000000E+00  0.17159345295E+03  0.17159345295E+03  0.00000000000E+00 0.  1.
          2   -1    0    0  501    0  0.00000000000E+00 -0.00000000000E+00 -0.13390147024E+03  0.13390147024E+03  0.00000000000E+00 0. -1.
          5    1    1    2  502    0 -0.56237709823E-01 -0.72333768973E+02  0.79371014873E+02  0.10746817063E+03  0.41800000000E+01 0. -1.
         -5    1    1    2    0  502 -0.45778759926E+01 -0.32183171150E+02 -0.48402858043E+02  0.58455303614E+02  0.41800000000E+01 0. -1.
        -11    1    1    2    0    0 -0.31776828624E+01  0.31101589378E+02  0.46251165048E+02  0.55826309196E+02  0.00000000000E+00 0.  1.
         11    1    1    2    0    0  0.78117965648E+01  0.73415350745E+02 -0.39527339167E+02  0.83745139752E+02  0.00000000000E+00 0. -1.
</event>
<event>
 7    1  0.2719869E-009  0.1556648E+03  0.7561462E-02  0.1193680E+00
          1   -1    0    0  501    0  0.00000000000E+00  0.00000000000E+00  0.14406931335E+04  0.14406931335E+04  0.00000000000E+00 0. -1.
         -1   -1    0    0    0  501 -0.00000000000E+00 -0.00000000000E+00 -0.25730103927E+02  0.25730103927E+02  0.00000000000E+00 0.  1.
         25    2    1    2    0    0  0.10358755040E+03  0.99278179635E+02  0.47253738134E+03  0.50943400433E+03  0.12507953651E+03 0.  0.
          5    1    3    3  502    0  0.59252107580E+02  0.43159244062E+02  0.40286309044E+03  0.40949929749E+03  0.41800000000E+01 0.  1.
         -5    1    3    3    0  502  0.44335442822E+02  0.56118935573E+02  0.69674290903E+02  0.99934706848E+02  0.41800000000E+01 0.  1.
        -11    1    1    2    0    0 -0.12590563461E+02 -0.69334053255E+02  0.41160094426E+03  0.41758959583E+03  0.00000000000E+00 0.  1.
         11    1    1    2    0    0 -0.90996986942E+02 -0.29944126379E+02  0.53082470399E+03  0.53939963728E+03  0.00000000000E+00 0. -1.
</event>
<event>
 7    1  0.2719869E-009  0.4672114E+02  0.7561462E-02  0.1463874E+00
          4   -1    0    0  501    0  0.00000000000E+00  0.00000000000E+00  0.16902152095E+03  0.16902152095E+03  0.00000000000E+00 0. -1.
         -4   -1    0    0    0  501 -0.00000000000E+00 -0.00000000000E+00 -0.74148101991E+02  0.74148101991E+02  0.00000000000E+00 0.  1.
         25    2    1    2    0    0  0.16204428358E+02  0.15435278888E+02  0.73370440153E+02  0.14673702725E+03  0.12509077642E+03 0.  0.
          5    1    3    3  502    0 -0.13646017003E+02 -0.12205089032E+02  0.97473726130E+02  0.99266195979E+02  0.41800000000E+01 0. -1.
         -5    1    3    3    0  502  0.29850445362E+02  0.27640367920E+02 -0.24103285977E+02  0.47470831275E+02  0.41800000000E+01 0. -1.
        -11    1    1    2    0    0  0.62623071468E+01 -0.78768147873E+01 -0.34330909160E+02  0.35775299100E+02  0.00000000000E+00 0.  1.
         11    1    1    2    0    0 -0.22466735505E+02 -0.75584641011E+01  0.55833887966E+02  0.60657296587E+02  0.00000000000E+00 0. -1.
</event>
<event>
 7    1  0.2910602E-009  0.4219841E+03  0.7561462E-02  0.1036422E+00
          2   -1    0    0  501    0  0.00000000000E+00  0.00000000000E+00  0.62657379520E+03  0.62657379520E+03  0.00000000000E+00 0. -1.
         -2   -1    0    0    0  501 -0.00000000000E+00 -0.00000000000E+00 -0.37434020449E+03  0.37434020449E+03  0.00000000000E+00 0.  1.
         25    2    1    2    0    0 -0.25817939319E+03 -0.31735638757E+03 -0.11565007206E+03  0.44316955574E+03  0.12511051179E+03 0.  0.
          5    1    3    3  502    0 -0.86036241563E+02 -0.30665843963E+02 -0.77306673996E+01  0.91759819456E+02  0.41800000000E+01 0. -1.
         -5    1    3    3    0  502 -0.17214315163E+03 -0.28669054361E+03 -0.10791940466E+03  0.35140973628E+03  0.41800000000E+01 0. -1.
        -11    1    1    2    0    0  0.75368049579E+02  0.16014459268E+03  0.17590268329E+03  0.24953634495E+03  0.00000000000E+00 0. -1.
         11    1    1    2    0    0  0.18281134361E+03  0.15721179489E+03  0.19198097948E+03  0.30820809900E+03  0.00000000000E+00 0.  1.
</event>
<event>
 6    1  0.2719869E-009  0.8066687E+02  0.7561462E-02  0.1327170E+00
          1   -1    0    0  501    0  0.00000000000E+00  0.00000000000E+00  0.31383452602E+02  0.31383452602E+02  0.00000000000E+00 0. -1.
         -1   -1    0    0    0  501 -0.00000000000E+00 -0.00000000000E+00 -0.39814080380E+03  0.39814080380E+03  0.00000000000E+00 0.  1.
          5    1    1    2  502    0  0.57431275268E+02 -0.14347486179E+02 -0.21957333496E+03  0.22745136527E+03  0.41800000000E+01 0. -1.
         -5    1    1    2    0  502 -0.44139861733E+02  0.71900534780E+01 -0.36495405478E+02  0.57874098558E+02  0.41800000000E+01 0. -1.
        -11    1    1    2    0    0  0.21613452542E+02  0.10548375685E+01  0.58304818047E+01  0.22410902060E+02  0.00000000000E+00 0. -1.
         11    1    1    2    0    0 -0.34904866077E+02  0.61025951322E+01 -0.11651909256E+03  0.12178789051E+03  0.00000000000E+00 0.  1.
</event>
<event>
 7    1  0.2719869E-009  0.1555629E+03  0.7561462E-02  0.1193799E+00
          1   -1    0    0  501    0  0.00000000000E+00  0.00000000000E+00  0.48712898503E+03  0.48712898503E+03  0.00000000000E+00 0. -1.
         -1   -1    0    0    0  501 -0.00000000000E+00 -0.00000000000E+00 -0.55386343457E+02  0.55386343457E+02  0.00000000000E+00 0.  1.
         25    2    1    2    0    0 -0.12265449218E+03 -0.76714284747E+01  0.21534232858E+03  0.27771034230E+03  0.12509092883E+03 0.  0.
          5    1    3    3  502    0 -0.11789430773E+03  0.38075039503E+02  0.12388189761E+03  0.17525117228E+03  0.41800000000E+01 0. -1.
         -5    1    3    3    0  502 -0.47601844489E+01 -0.45746467978E+02  0.91460430969E+02  0.10245917002E+03  0.41800000000E+01 0. -1.
        -11    1    1    2    0    0  0.12251554837E+03 -0.10357566141E+02  0.21373912934E+03  0.24658011717E+03  0.00000000000E+00 0. -1.
         11    1    1    2    0    0  0.13894381299E+00  0.18028994616E+02  0.26611836414E+01  0.18224869015E+02  0.00000000000E+00 0.  1.
</event>
<event>
 6    1  0.2719869E-009  0.7953503E+02  0.7561462E-02  0.1330376E+00
         -2   -1    0    0    0  501 -0.00000000000E+00  0.00000000000E+00  0.10005671744E+02  0.10005671744E+02  0.00000000000E+00 0.  1.
          2   -1    0    0  501    0  0.00000000000E+00 -0.00000000000E+00 -0.14370080546E+04  0.14370080546E+04  0.00000000000E+00 0. -1.
          5    1    1    2  502    0  0.31466516100E+01 -0.41216414407E+02 -0.90034394240E+02  0.99158251190E+02  0.41800000000E+01 0. -1.
         -5    1    1    2    0  502  0.14610613262E+02  0.14545943619E+01 -0.85447618657E+03  0.85461255062E+03  0.41800000000E+01 0. -1.
        -11    1    1    2    0    0 -0.13849877099E+02  0.70207857720E+02 -0.35018551406E+03  0.35742251837E+03  0.00000000000E+00 0.  1.
         11    1    1    2    0    0 -0.39073877729E+01 -0.30446037675E+02 -0.13230628799E+03  0.13582040616E+03  0.00000000000E+00 0. -1.
</event>
<event>
 7    1  0.2719869E-009  0.1912173E+03  0.7561462E-02  0.1157368E+00
          4   -1    0    0  501    0  0.00000000000E+00  0.00000000000E+00  0.81675672899E+02  0.81675672899E+02  0.00000000000E+00 0. -1.
         -4   -1    0    0    0  501 -0.00000000000E+00 -0.00000000000E+00 -0.52786911049E+03  0.52786911049E+03  0.00000000000E+00 0.  1.
         25    2    1    2    0    0  0.12569423886E+03  0.95023192102E+02 -0.11508548797E+03  0.23177826067E+03  0.12509214146E+03 0.  0.
          5    1    3    3  502    0  0.74386406978E+02 -0.18160170081E+02 -0.48449586264E+02  0.90708126040E+02  0.41800000000E+01 0. -1.
         -5    1    3    3    0  502  0.51307831887E+02  0.11318336218E+03 -0.66635901702E+02  0.14107013463E+03  0.41800000000E+01 0. -1.
        -11    1    1    2    0    0 -0.66101090435E+01 -0.55567440271E+02 -0.90101422448E+02  0.10606460431E+03  0.00000000000E+00 0.  1.
         11    1    1    2    0    0 -0.11908412982E+03 -0.39455751831E+02 -0.24100652718E+03  0.27170191841E+03  0.00000000000E+00 0. -1.
</event>
<event>
 7    1  0.2719869E-009  0.1494137E+03  0.7561462E-02  0.1201195E+00
          2   -1    0    0  501    0  0.00000000000E+00  0.00000000000E+00  0.87603450751E+03  0.87603450751E+03  0.00000000000E+00 0. -1.
         -2   -1    0    0    0  501 -0.00000000000E+00 -0.00000000000E+00 -0.31928700132E+02  0.31928700132E+02  0.00000000000E+00 0.  1.
         25    2    1    2    0    0  0.11789890067E+02 -0.12441119124E+03  0.50315088414E+03  0.53332001606E+03  0.12510907761E+03 0.  0.
          5    1    3    3  502    0 -0.11194093825E+02 -0.12817041754E+03  0.48919809556E+03  0.50585097881E+03  0.41800000000E+01 0.  1.
         -5    1    3    3    0  502  0.22983983891E+02  0.37592262987E+01  0.13952788588E+02  0.27469037247E+02  0.41800000000E+01 0.  1.
        -11    1    1    2    0    0 -0.41312243517E+02  0.42055202378E+02  0.79732333024E+02  0.99159399156E+02  0.00000000000E+00 0.  1.
         11    1    1    2    0    0  0.29522353450E+02  0.82355988863E+02  0.26122259021E+03  0.27548379243E+03  0.00000000000E+00 0. -1.
</event>
<event>
 7    1  0.3607154E-009  0.1251442E+03  0.7561462E-02  0.1234844E+00
         -2   -1    0    0    0  501 -0.00000000000E+00  0.00000000000E+00  0.33686597950E+02  0.33686597950E+02  0.00000000000E+00 0.  1.
          2   -1    0    0  501    0  0.00000000000E+00 -0.00000000000E+00 -0.71180509509E+03  0.71180509509E+03  0.00000000000E+00 0. -1.
         25    2    1    2    0    0  0.98991666109E+02  0.47232141211E+02 -0.34055540462E+03  0.37902072736E+03  0.12509397680E+03 0.  0.
          5    1    3    3  502    0  0.57893899066E+02 -0.69400669043E+01 -0.28551738313E+03  0.29144041680E+03  0.41800000000E+01 0.  1.
         -5    1    3    3    0  502  0.41097767044E+02  0.54172208116E+02 -0.55038021492E+02  0.87580310560E+02  0.41800000000E+01 0.  1.
        -11    1    1    2    0    0 -0.22792218378E+02  0.13299339470E+02 -0.16828799892E+02  0.31298021579E+02  0.00000000000E+00 0.  1.
         11    1    1    2    0    0 -0.76199447731E+02 -0.60531480682E+02 -0.32073429263E+03  0.33517294410E+03  0.00000000000E+00 0. -1.
</event>
<event>
 7    1  0.2719869E-009  0.9377486E+02  0.7561462E-02  0.1293959E+00
          2   -1    0    0  501    0  0.00000000000E+00  0.00000000000E+00  0.12614200081E+03  0.12614200081E+03  0.00000000000E+00 0.  1.
         -2   -1    0    0    0  501 -0.00000000000E+00 -0.00000000000E+00 -0.11508180788E+03  0.11508180788E+03  0.00000000000E+00 0. -1.
         25    2    1    2    0    0  0.49517773961E+02 -0.14471135834E+02  0.16439058390E+02  0.13627182249E+03  0.12505336162E+03 0.  0.
          5    1    3    3  502    0  0.34201545344E+02 -0.64211447556E+02  0.35021937561E+02  0.80850876382E+02  0.41800000000E+01 0. -1.
         -5    1    3    3    0  502  0.15316228617E+02  0.49740311722E+02 -0.18582879172E+02  0.55420946108E+02  0.41800000000E+01 0. -1.
        -11    1    1    2    0    0 -0.15477465190E+02 -0.11802881033E+02  0.38733242609E+02  0.43348864027E+02  0.00000000000E+00 0.  1.
         11    1    1    2    0    0 -0.34040308772E+02  0.26274016867E+02 -0.44112108063E+02  0.61603122172E+02  0.00000000000E+00 0. -1.
</event>
<event>
 7    1  0.2719869E-009  0.1113852E+03  0.7561462E-02  0.1258026E+00
         -2   -1    0    0    0  501 -0.00000000000E+00  0.00000000000E+00  0.49320230667E+02  0.49320230667E+02  0.00000000000E+00 0.  1.
          2   -1    0    0  501    0  0.00000000000E+00 -0.00000000000E+00 -0.46724523773E+03  0.46724523773E+03  0.00000000000E+00 0. -1.
         25    2    1    2    0    0  0.29608032427E+02 -0.80116072683E+02 -0.33171267302E+03  0.36465862243E+03  0.12508953906E+03 0.  0.
          5    1    3    3  502    0  0.46960561951E+02 -0.93120730167E+02 -0.15683316501E+03  0.18839023014E+03  0.41800000000E+01 0. -1.
         -5    1    3    3    0  502 -0.17352529524E+02  0.13004657484E+02 -0.17487950802E+03  0.17626839229E+03  0.41800000000E+01 0. -1.
        -11    1    1    2    0    0  0.99680131916E+01  0.44420300680E+01  0.15589326019E+02  0.19029450960E+02  0.00000000000E+00 0.  1.
         11    1    1    2    0    0 -0.39576045619E+02  0.75674042615E+02 -0.10180166006E+03  0.13287739500E+03  0.00000000000E+00 0. -1.
</event>
<event>
 7    1  0.2719869E-009  0.1022396E+03  0.7561462E-02  0.1275656E+00
          1   -1    0    0  501    0  0.00000000000E+00  0.00000000000E+00  0.24811085896E+03  0.24811085896E+03  0.00000000000E+00 0. -1.
         -1   -1    0    0    0  501 -0.00000000000E+00 -0.00000000000E+00 -0.86605384497E+02  0.86605384497E+02  0.00000000000E+00 0.  1.
         25    2    1    2    0    0  0.93966923832E+02  0.44919961270E+01  0.11980336031E+03  0.19710082801E+03  0.12508369381E+03 0.  0.
          5    1    3    3  502    0  0.91994797831E+02  0.19337445811E+02  0.20136578371E+02  0.96228549958E+02  0.41800000000E+01 0.  1.
         -5    1    3    3    0  502  0.19721260011E+01 -0.14845449684E+02  0.99666781943E+02  0.10087227806E+03  0.41800000000E+01 0.  1.
        -11    1    1    2    0    0 -0.31788445380E+02  0.41442585429E+01  0.63524589625E+02  0.71155137731E+02  0.00000000000E+00 0. -1.
         11    1    1    2    0    0 -0.62178478452E+02 -0.86362546699E+01 -0.21822475477E+02  0.66460277710E+02  0.00000000000E+00 0.  1.
</event>
<event>
 7    1  0.2719869E-009  0.1278325E+03  0.7561462E-02  0.1230708E+00
          1   -1    0    0  501    0  0.00000000000E+00  0.00000000000E+00  0.49962678547E+03  0.49962678547E+03  0.00000000000E+00 0. -1.
         -1   -1    0    0    0  501 -0.00000000000E+00 -0.00000000000E+00 -0.35167587355E+02  0.35167587355E+02  0.00000000000E+00 0.  1.
         25    2    1    2    0    0  0.64457381800E+01  0.71825408050E+02  0.29713811936E+03  0.33036249879E+03  0.12509149391E+03 0.  0.
          5    1    3    3  502    0 -0.13105708725E+02  0.10193338319E+03  0.25430630630E+03  0.27431978425E+03  0.41800000000E+01 0.  1.
         -5    1    3    3    0  502  0.19551446905E+02 -0.30107975136E+02  0.42831813067E+02  0.56042714545E+02  0.41800000000E+01 0.  1.
        -11    1    1    2    0    0  0.13021086204E+01 -0.93571595671E+02  0.14300512364E+03  0.17090290925E+03  0.00000000000E+00 0. -1.
         11    1    1    2    0    0 -0.77478468003E+01  0.21746187621E+02  0.24315955108E+02  0.33528964775E+02  0.00000000000E+00 0.  1.
</event>
<event>
 7    1  0.2719869E-009  0.6342127E+02  0.7561462E-02  0.1384010E+00
          1   -1    0    0  501    0  0.00000000000E+00  0.00000000000E+00  0.45453898050E+03  0.45453898050E+03  0.00000000000E+00 0. -1.
         -1   -1    0    0    0  501 -0.00000000000E+00 -0.00000000000E+00 -0.26911613022E+02  0.26911613022E+02  0.00000000000E+00 0.  1.
         25    2    1    2    0    0 -0.21009023963E+02 -0.63020988335E+01  0.28494619997E+03  0.31196590822E+03  0.12508915012E+03 0.  0.
          5    1    3    3  502    0 -0.38296665127E+02  0.97992215794E+01  0.28521624810E+03  0.28797298464E+03  0.41800000000E+01 0.  1.
         -5    1    3    3    0  502  0.17287641164E+02 -0.16101320413E+02 -0.27004812753E+00  0.23992923583E+02  0.41800000000E+01 0.  1.
        -11    1    1    2    0    0 -0.12665213121E+02  0.22433359442E+02  0.12596967790E+03  0.12857691468E+03  0.00000000000E+00 0. -1.
         11    1    1    2    0    0  0.33674237084E+02 -0.16131260608E+02  0.16711489612E+02  0.40907770620E+02  0.00000000000E+00 0.  1.
</event>
<event>
 7    1  0.2719869E-009  0.9841587E+02  0.7561462E-02  0.1283663E+00
          1   -1    0    0  501    0  0.00000000000E+00  0.00000000000E+00  0.20682710149E+03  0.20682710149E+03  0.00000000000E+00 0. -1.
         -1   -1    0    0    0  501 -0.00000000000E+00 -0.00000000000E+00 -0.64204961745E+02  0.64204961745E+02  0.00000000000E+00 0.  1.
         25    2    1    2    0    0  0.23446724958E+02 -0.18479183262E+02  0.50556011742E+02  0.13818528973E+03  0.12509210546E+03 0.  0.
          5    1    3    3  502    0  0.35437202843E+01 -0.68778898333E+02  0.47650756613E+02  0.83852023321E+02  0.41800000000E+01 0. -1.
         -5    1    3    3    0  502  0.19903004674E+02  0.50299715070E+02  0.29052551294E+01  0.54333266408E+02  0.41800000000E+01 0. -1.
        -11    1    1    2    0    0 -0.40141845428E+02 -0.92669510719E+01  0.69508975079E+01  0.41779888854E+02  0.00000000000E+00 0.  1.
         11    1    1    2    0    0  0.16695120470E+02  0.27746134334E+02  0.85115230492E+02  0.91066884649E+02  0.00000000000E+00 0. -1.
</event>
<event>
 7    1  0.2719869E-009  0.9946411E+02  0.7561462E-02  0.1281427E+00
          1   -1    0    0  501    0  0.00000000000E+00  0.00000000000E+00  0.12197330819E+03  0.12197330819E+03  0.00000000000E+00 0. -1.
         -1   -1    0    0    0  501 -0.00000000000E+00 -0.00000000000E+00 -0.15679245754E+03  0.15679245754E+03  0.00000000000E+00 0.  1.
         25    2    1    2    0    0  0.16746656765E+02 -0.65793532027E+02 -0.71146128446E+02  0.15909824909E+03  0.12506495073E+03 0.  0.
          5    1    3    3  502    0  0.48238300708E+02 -0.13002771131E+02  0.15772944765E+02  0.52557244018E+02  0.41800000000E+01 0. -1.
         -5    1    3    3    0  502 -0.31491643943E+02 -0.52790760896E+02 -0.86919073212E+02  0.10654100507E+03  0.41800000000E+01 0. -1.
        -11    1    1    2    0    0  0.14951242350E+01  0.68694215494E+02 -0.10334341715E+02  0.69483302004E+02  0.00000000000E+00 0.  1.
         11    1    1    2    0    0 -0.18241781000E+02 -0.29006834661E+01  0.46661320813E+02  0.50184214636E+02  0.00000000000E+00 0. -1.
</event>
<event>
 7    1  0.2719869E-009  0.2250976E+03  0.7561462E-02  0.1130139E+00
         -2   -1    0    0    0  501 -0.00000000000E+00  0.00000000000E+00  0.20442450255E+02  0.20442450255E+02  0.00000000000E+00 0.  1.
          2   -1    0    0  501    0  0.00000000000E+00 -0.00000000000E+00 -0.27617633014E+04  0.27617633014E+04  0.00000000000E+00 0. -1.
         25    2    1    2    0    0  0.56084225153E+02  0.19021401290E+03 -0.18438661090E+04  0.18587138955E+04  0.12509319118E+03 0.  0.
          5    1    3    3  502    0 -0.37551727233E+02  0.36248643528E+02 -0.52087120900E+03  0.52349630862E+03  0.41800000000E+01 0.  1.
         -5    1    3    3    0  502  0.93635952386E+02  0.15396536937E+03 -0.13229949000E+04  0.13352175869E+04  0.41800000000E+01 0.  1.
        -11    1    1    2    0    0 -0.67482833271E+02 -0.71472645517E+02 -0.38792269376E+03  0.40018281845E+03  0.00000000000E+00 0.  1.
         11    1    1    2    0    0  0.11398608119E+02 -0.11874136738E+03 -0.50953204841E+03  0.52330903771E+03  0.00000000000E+00 0. -1.
</event>
<event>
 7    1  0.2719869E-009  0.1820999E+03  0.7561462E-02  0.1165786E+00
          1   -1    0    0  501    0  0.00000000000E+00  0.00000000000E+00  0.19325595901E+03  0.19325595901E+03  0.00000000000E+00 0. -1.
         -1   -1    0    0    0  501 -0.00000000000E+00 -0.00000000000E+00 -0.34639381995E+03  0.34639381995E+03  0.00000000000E+00 0.  1.
         25    2    1    2    0    0 -0.14229947849E+03  0.77772338149E+02  0.96793021588E+02  0.22652710115E+03  0.12509180776E+03 0.  0.
          5    1    3    3  502    0 -0.11733354797E+03  0.29464927004E+02  0.11701521026E+03  0.16836084828E+03  0.41800000000E+01 0. -1.
         -5    1    3    3    0  502 -0.24965930515E+02  0.48307411145E+02 -0.20222188668E+02  0.58166252866E+02  0.41800000000E+01 0. -1.
        -11    1    1    2    0    0  0.13683354830E+03 -0.29429868780E+02 -0.18375865658E+03  0.23099086775E+03  0.00000000000E+00 0.  1.
         11    1    1    2    0    0  0.54659301900E+01 -0.48342469368E+02 -0.66172225938E+02  0.82131810056E+02  0.00000000000E+00 0. -1.
</event>
<event>
 7    1  0.2719869E-009  0.9946330E+02  0.7561462E-02  0.1281429E+00
         -1   -1    0    0    0  501 -0.00000000000E+00  0.00000000000E+00  0.73825597083E+02  0.73825597083E+02  0.00000000000E+00 0.  1.
          1   -1    0    0  501    0  0.00000000000E+00 -0.00000000000E+00 -0.23433203952E+03  0.23433203952E+03  0.00000000000E+00 0. -1.
         25    2    1    2    0    0  0.92680892448E+01  0.15366339698E+02 -0.43202649553E+01  0.12644462789E+03  0.12509019690E+03 0.  0.
          5    1    3    3  502    0 -0.33696349697E+02 -0.39994810003E+02 -0.16911810849E+02  0.55122686403E+02  0.41800000000E+01 0.  1.
         -5    1    3    3    0  502  0.42964438942E+02  0.55361149701E+02  0.12591545894E+02  0.71321941489E+02  0.41800000000E+01 0.  1.
        -11    1    1    2    0    0  0.28179506841E+02 -0.24915504584E+02 -0.12923427188E+03  0.13459704307E+03  0.00000000000E+00 0.  1.
         11    1    1    2    0    0 -0.37447596086E+02  0.95491648867E+01 -0.26951905601E+02  0.47115965640E+02  0.00000000000E+00 0. -1.
</event>
<event>
 7    1  0.2719869E-009  0.2249743E+03  0.7561462E-02  0.1130228E+00
          3   -1    0    0  501    0  0.00000000000E+00  0.00000000000E+00  0.20257329050E+03  0.20257329050E+03  0.00000000000E+00 0. -1.
         -3   -1    0    0    0  501 -0.00000000000E+00 -0.00000000000E+00 -0.26914735750E+03  0.26914735750E+03  0.00000000000E+00 0.  1.
         25    2    1    2    0    0 -0.87141017251E+01  0.20676617086E+03 -0.32065987782E+02  0.24393398923E+03  0.12508948216E+03 0.  0.
          5    1    3    3  502    0  0.48656447936E+02  0.12450725324E+03  0.12064151242E+02  0.13428522696E+03  0.41800000000E+01 0.  1.
         -5    1    3    3    0  502 -0.57370549661E+02  0.82258917621E+02 -0.44130139024E+02  0.10964876227E+03  0.41800000000E+01 0.  1.
        -11    1    1    2    0    0 -0.26299911556E+02 -0.10350631905E+03  0.15350900168E+02  0.10789297274E+03  0.00000000000E+00 0.  1.
         11    1    1    2    0    0  0.35014013281E+02 -0.10325985181E+03 -0.49858979385E+02  0.11989368602E+03  0.00000000000E+00 0. -1.
</event>
<event>
 7    1  0.2719869E-009  0.9782452E+02  0.7561462E-02  0.1284938E+00
         -1   -1    0    0    0  501 -0.00000000000E+00  0.00000000000E+00  0.11018500780E+03  0.11018500780E+03  0.00000000000E+00 0.  1.
          1   -1    0    0  501    0  0.00000000000E+00 -0.00000000000E+00 -0.19985642727E+03  0.19985642727E+03  0.00000000000E+00 0. -1.
         25    2    1    2    0    0  0.22802796859E+02  0.17147874201E+02  0.50930713664E+02  0.13804212037E+03  0.12509065619E+03 0.  0.
          5    1    3    3  502    0 -0.37322191369E+02  0.36105661787E+02 -0.66993467785E+01  0.52525407461E+02  0.41800000000E+01 0.  1.
         -5    1    3    3    0  502  0.60124988228E+02 -0.18957787587E+02  0.57630060443E+02  0.85516712906E+02  0.41800000000E+01 0.  1.
        -11    1    1    2    0    0  0.13079013533E+02 -0.37084179957E+02 -0.19032688627E+02  0.43686842807E+02  0.00000000000E+00 0. -1.
         11    1    1    2    0    0 -0.35881810393E+02  0.19936305756E+02 -0.12156944451E+03  0.12831247189E+03  0.00000000000E+00 0.  1.
</event>
<event>
 7    1  0.2719869E-009  0.2396358E+03  0.7561462E-02  0.1120036E+00
         -2   -1    0    0    0  501 -0.00000000000E+00  0.00000000000E+00  0.27924109823E+02  0.27924109823E+02  0.00000000000E+00 0.  1.
          2   -1    0    0  501    0  0.00000000000E+00 -0.00000000000E+00 -0.22224487681E+04  0.22224487681E+04  0.00000000000E+00 0. -1.
         25    2    1    2    0    0 -0.11828605215E+03  0.18397279828E+03 -0.91271219879E+03  0.94685210150E+03  0.12509102145E+03 0.  0.
          5    1    3    3  502    0 -0.10995030669E+03  0.74827774708E+02 -0.62463814836E+03  0.63865370475E+03  0.41800000000E+01 0.  1.
         -5    1    3    3    0  502 -0.83357454585E+01  0.10914502357E+03 -0.28807405043E+03  0.30819839675E+03  0.41800000000E+01 0.  1.
        -11    1    1    2    0    0  0.45986008862E+02 -0.14979477932E+03 -0.87585973992E+03  0.88976596526E+03  0.00000000000E+00 0. -1.
         11    1    1    2    0    0  0.72300043285E+02 -0.34178018965E+02 -0.40595271952E+03  0.41375481112E+03  0.00000000000E+00 0.  1.
</event>
<event>
 7    1  0.2719869E-009  0.7057728E+02  0.7561462E-02  0.1358141E+00
          1   -1    0    0  501    0  0.00000000000E+00  0.00000000000E+00  0.38669021063E+03  0.38669021063E+03  0.00000000000E+00 0. -1.
         -1   -1    0    0    0  501 -0.00000000000E+00 -0.00000000000E+00 -0.45889789123E+02  0.45889789123E+02  0.00000000000E+00 0.  1.
         25    2    1    2    0    0 -0.19323683674E+01 -0.35996852895E+02  0.29937408547E+03  0.32645946372E+03  0.12510567908E+03 0.  0.
          5    1    3    3  502    0 -0.53516403423E+00 -0.58075292646E+02  0.29828919050E+03  0.30391929782E+03  0.41800000000E+01 0. -1.
         -5    1    3    3    0  502 -0.13972043332E+01  0.22078439752E+02  0.10848949654E+01  0.22540165902E+02  0.41800000000E+01 0. -1.
        -11    1    1    2    0    0 -0.81171250301E+01 -0.10256583943E+02  0.55276687265E+02  0.56803145933E+02  0.00000000000E+00 0. -1.
         11    1    1    2    0    0  0.10049493398E+02  0.46253436838E+02 -0.13850351226E+02  0.49317390097E+02  0.00000000000E+00 0.  1.
</event>
<event>
 7    1  0.2719869E-009  0.1087030E+03  0.7561462E-02  0.1262991E+00
          1   -1    0    0  501    0  0.00000000000E+00  0.00000000000E+00  0.57467076721E+03  0.57467076721E+03  0.00000000000E+00 0. -1.
         -1   -1    0    0    0  501 -0.00000000000E+00 -0.00000000000E+00 -0.32191744161E+02  0.32191744161E+02  0.00000000000E+00 0.  1.
         25    2    1    2    0    0  0.44926576024E+02 -0.11780892307E+02  0.43754466699E+03  0.45744034920E+03  0.12509656594E+03 0.  0.
          5    1    3    3  502    0  0.29641450479E+02 -0.67515220329E+02  0.28006472184E+03  0.28963881194E+03  0.41800000000E+01 0. -1.
         -5    1    3    3    0  502  0.15285125546E+02  0.55734328022E+02  0.15747994515E+03  0.16780153726E+03  0.41800000000E+01 0. -1.
        -11    1    1    2    0    0 -0.33944553830E+02 -0.28210594958E+02  0.91924146327E+01  0.45084042514E+02  0.00000000000E+00 0.  1.
         11    1    1    2    0    0 -0.10982022194E+02  0.39991487265E+02  0.95741941427E+02  0.10433811966E+03  0.00000000000E+00 0. -1.
</event>
<event>
 7    1  0.2719869E-009  0.9031689E+02  0.7561462E-02  0.1302086E+00
         -2   -1    0    0    0  501 -0.00000000000E+00  0.00000000000E+00  0.24241741277E+03  0.24241741277E+03  0.00000000000E+00 0.  1.
          2   -1    0    0  501    0  0.00000000000E+00 -0.00000000000E+00 -0.58118412319E+02  0.58118412319E+02  0.00000000000E+00 0. -1.
         25    2    1    2    0    0  0.14186523030E+02  0.33087406146E+02  0.63333878554E+02  0.14475590691E+03  0.12508820300E+03 0.  0.
          5    1    3    3  502    0 -0.28414856892E+02 -0.20749434072E+02  0.67091535169E+02  0.75872851521E+02  0.41800000000E+01 0. -1.
         -5    1    3    3    0  502  0.42601379922E+02  0.53836840218E+02 -0.37576566159E+01  0.68883055385E+02  0.41800000000E+01 0. -1.
        -11    1    1    2    0    0 -0.97050682929E+00 -0.52734238986E+02  0.27736900757E+02  0.59591757052E+02  0.00000000000E+00 0. -1.
         11    1    1    2    0    0 -0.13216016201E+02  0.19646832840E+02  0.93228221138E+02  0.96188161129E+02  0.00000000000E+00 0.  1.
</event>
<event>
 7    1  0.2719869E-009  0.9738661E+02  0.7561462E-02  0.1285890E+00
          2   -1    0    0  501    0  0.00000000000E+00  0.00000000000E+00  0.53235310441E+02  0.53235310441E+02  0.00000000000E+00 0. -1.
         -2   -1    0    0    0  501 -0.00000000000E+00 -0.00000000000E+00 -0.24266385084E+03  0.24266385084E+03  0.00000000000E+00 0.  1.
         25    2    1    2    0    0 -0.23505009824E+02  0.21030715290E+02 -0.11818274901E+03  0.17495462147E+03  0.12508869228E+03 0.  0.
          5    1    3    3  502    0  0.12697810936E+02  0.67796804226E+02 -0.55075278664E+02  0.88365150290E+02  0.41800000000E+01 0. -1.
         -5    1    3    3    0  502 -0.36202820761E+02 -0.46766088936E+02 -0.63107470349E+02  0.86589471180E+02  0.41800000000E+01 0. -1.
        -11    1    1    2    0    0  0.28160774264E+02 -0.38839729136E+02 -0.85245657275E+02  0.97818075276E+02  0.00000000000E+00 0.  1.
         11    1    1    2    0    0 -0.46557644399E+01  0.17809013846E+02  0.13999865892E+02  0.23126464531E+02  0.00000000000E+00 0. -1.
</event>
<event>
 7    1  0.3641576E-009  0.1200635E+03  0.7561462E-02  0.1242992E+00
         -1   -1    0    0    0  501 -0.00000000000E+00  0.00000000000E+00  0.20865208350E+02  0.20865208350E+02  0.00000000000E+00 0.  1.
          1   -1    0    0  501    0  0.00000000000E+00 -0.00000000000E+00 -0.89053802081E+03  0.89053802081E+03  0.00000000000E+00 0. -1.
         25    2    1    2    0    0 -0.57873119404E+02 -0.58030123410E+02 -0.44835296032E+03  0.47263646453E+03  0.12509219564E+03 0.  0.
          5    1    3    3  502    0 -0.18230008877E+02 -0.75744905903E+02 -0.13233304505E+03  0.15362008724E+03  0.41800000000E+01 0.  1.
         -5    1    3    3    0  502 -0.39643110528E+02  0.17714782493E+02 -0.31601991527E+03  0.31901637729E+03  0.41800000000E+01 0.  1.
        -11    1    1    2    0    0  0.40409581667E+02 -0.15221104537E+02 -0.21097223050E+03  0.21534599684E+03  0.00000000000E+00 0.  1.
         11    1    1    2    0    0  0.17463537737E+02  0.73251227947E+02 -0.21034762164E+03  0.22342076778E+03  0.00000000000E+00 0. -1.
</event>
<event>
 7    1  0.2719869E-009  0.3044680E+03  0.7561462E-02  0.1083028E+00
         -1   -1    0    0    0  501 -0.00000000000E+00  0.00000000000E+00  0.85498184130E+02  0.85498184130E+02  0.00000000000E+00 0.  1.
          1   -1    0    0  501    0  0.00000000000E+00 -0.00000000000E+00 -0.11483866961E+04  0.11483866961E+04  0.00000000000E+00 0. -1.
         25    2    1    2    0    0  0.67481154651E+02 -0.28286993803E+03 -0.46133082559E+03  0.55950254940E+03  0.12509142284E+03 0.  0.
          5    1    3    3  502    0  0.28192363434E+02 -0.15898377357E+01 -0.72967676471E+02  0.78352352547E+02  0.41800000000E+01 0.  1.
         -5    1    3    3    0  502  0.39288791217E+02 -0.28128010029E+03 -0.38836314912E+03  0.48115019685E+03  0.41800000000E+01 0.  1.
        -11    1    1    2    0    0 -0.23368279364E+02  0.20906061733E+03 -0.49218817866E+03  0.53525846225E+03  0.00000000000E+00 0. -1.
         11    1    1    2    0    0 -0.44112875287E+02  0.73809320696E+02 -0.10936950768E+03  0.13912386854E+03  0.00000000000E+00 0.  1.
</event>
<event>
 7    1  0.2719869E-009  0.2664674E+03  0.7561462E-02  0.1103319E+00
          2   -1    0    0  501    0  0.00000000000E+00  0.00000000000E+00  0.69338910239E+03  0.69338910239E+03  0.00000000000E+00 0. -1.
         -2   -1    0    0    0  501 -0.00000000000E+00 -0.00000000000E+00 -0.11227459267E+03  0.11227459267E+03  0.00000000000E+00 0.  1.
         25    2    1    2    0    0  0.63113996803E+01  0.25695344328E+03  0.29297370609E+03  0.40931540870E+03  0.12506240667E+03 0.  0.
          5    1    3    3  502    0 -0.28504734942E+02  0.22677052748E+03  0.27960375438E+03  0.36115526289E+03  0.41800000000E+01 0. -1.
         -5    1    3    3    0  502  0.34816134622E+02  0.30182915802E+02  0.13369951707E+02  0.48160145816E+02  0.41800000000E+01 0. -1.
        -11    1    1    2    0    0 -0.12161397793E+02 -0.71363091915E+02  0.29997603573E+02  0.78361002444E+02  0.00000000000E+00 0.  1.
         11    1    1    2    0    0  0.58499981124E+01 -0.18559035136E+03  0.25814320006E+03  0.31798728392E+03  0.00000000000E+00 0. -1.
</event>
<event>
 7    1  0.2719869E-009  0.8493211E+02  0.7561462E-02  0.1315610E+00
         -1   -1    0    0    0  501 -0.00000000000E+00  0.00000000000E+00  0.30036950565E+02  0.30036950565E+02  0.00000000000E+00 0.  1.
          1   -1    0    0  501    0  0.00000000000E+00 -0.00000000000E+00 -0.38445550567E+03  0.38445550567E+03  0.00000000000E+00 0. -1.
         25    2    1    2    0    0 -0.17755856492E+02 -0.34224920229E+02 -0.24062015339E+03  0.27391889628E+03  0.12508752102E+03 0.  0.
          5    1    3    3  502    0  0.22435771896E+02 -0.41171245752E+02 -0.22856626121E+02  0.52329084599E+02  0.41800000000E+01 0.  1.
         -5    1    3    3    0  502 -0.40191628388E+02  0.69463255222E+01 -0.21776352727E+03  0.22158981168E+03  0.41800000000E+01 0.  1.
        -11    1    1    2    0    0 -0.21007129030E+02 -0.97582704215E+01 -0.41137044970E+02  0.47209954253E+02  0.00000000000E+00 0. -1.
         11    1    1    2    0    0  0.38762985522E+02  0.43983190651E+02 -0.72661356743E+02  0.93363605704E+02  0.00000000000E+00 0.  1.
</event>
<event>
 7    1  0.2719869E-009  0.1125186E+03  0.7561462E-02  0.1255976E+00
          1   -1    0    0  501    0  0.00000000000E+00  0.00000000000E+00  0.38749936168E+03  0.38749936168E+03  0.00000000000E+00 0. -1.
         -1   -1    0    0    0  501 -0.00000000000E+00 -0.00000000000E+00 -0.42688219261E+02  0.42688219261E+02  0.00000000000E+00 0.  1.
         25    2    1    2    0    0  0.99986554481E+01 -0.65877594158E+02  0.23695169461E+03  0.27610450202E+03  0.12509100660E+03 0.  0.
          5    1    3    3  502    0 -0.49839522083E+02 -0.45090166205E+02  0.17454030388E+03  0.18707990573E+03  0.41800000000E+01 0. -1.
         -5    1    3    3    0  502  0.59838177531E+02 -0.20787427953E+02  0.62411390731E+02  0.89024596287E+02  0.41800000000E+01 0. -1.
        -11    1    1    2    0    0  0.26492162483E+02  0.11859124201E+02  0.11635264376E+01  0.29048705541E+02  0.00000000000E+00 0.  1.
         11    1    1    2    0    0 -0.36490817931E+02  0.54018469957E+02  0.10669592137E+03  0.12503437338E+03  0.00000000000E+00 0. -1.
</event>
<event>
 7    1  0.2719869E-009  0.1334593E+03  0.7561462E-02  0.1222411E+00
          1   -1    0    0  501    0  0.00000000000E+00  0.00000000000E+00  0.12565388517E+03  0.12565388517E+03  0.00000000000E+00 0.  1.
         -1   -1    0    0    0  501 -0.00000000000E+00 -0.00000000000E+00 -0.18868831049E+03  0.18868831049E+03  0.00000000000E+00 0. -1.
         25    2    1    2    0    0  0.10749795012E+03 -0.97572081736E+01 -0.39143866842E+02  0.16979739691E+03  0.12509157164E+03 0.  0.
          5    1    3    3  502    0  0.10851330771E+03  0.28615953512E+02 -0.58477688652E+02  0.12661407195E+03  0.41800000000E+01 0.  1.
         -5    1    3    3    0  502 -0.10153575946E+01 -0.38373161686E+02  0.19333821810E+02  0.43183324960E+02  0.41800000000E+01 0.  1.
        -11    1    1    2    0    0 -0.56281304299E+02  0.26380821602E+02 -0.54447267406E+02  0.82631942310E+02  0.00000000000E+00 0. -1.
         11    1    1    2    0    0 -0.51216645818E+02 -0.16623613428E+02  0.30556708932E+02  0.61912856443E+02  0.00000000000E+00 0.  1.
</event>
<event>
 7    1  0.2719869E-009  0.1251634E+03  0.7561462E-02  0.1234814E+00
         -1   -1    0    0    0  501 -0.00000000000E+00  0.00000000000E+00  0.69695790779E+02  0.69695790779E+02  0.00000000000E+00 0.  1.
          1   -1    0    0  501    0  0.00000000000E+00 -0.00000000000E+00 -0.27736058466E+03  0.27736058466E+03  0.00000000000E+00 0. -1.
         25    2    1    2    0    0  0.42496239612E+02 -0.72423813545E+02 -0.92065073254E+02  0.17656657043E+03  0.12509451199E+03 0.  0.
          5    1    3    3  502    0  0.30443259210E+02  0.30905722178E+02 -0.43870244841E+02  0.61838713417E+02  0.41800000000E+01 0.  1.
         -5    1    3    3    0  502  0.12052980403E+02 -0.10332953572E+03 -0.48194828414E+02  0.11472785701E+03  0.41800000000E+01 0.  1.
        -11    1    1    2    0    0 -0.13450051569E+02 -0.89982147850E+01  0.92445246292E+01  0.18636871844E+02  0.00000000000E+00 0.  1.
         11    1    1    2    0    0 -0.29046188043E+02  0.81422028330E+02 -0.12484424525E+03  0.15185293316E+03  0.00000000000E+00 0. -1.
</event>
<event>
 7    1  0.2719869E-009  0.8578274E+02  0.7561462E-02  0.1313398E+00
         -2   -1    0    0    0  501 -0.00000000000E+00  0.00000000000E+00  0.40960529256E+02  0.40960529256E+02  0.00000000000E+00 0.  1.
          2   -1    0    0  501    0  0.00000000000E+00 -0.00000000000E+00 -0.30783514543E+03  0.30783514543E+03  0.00000000000E+00 0. -1.
         25    2    1    2    0    0 -0.28090165049E+02  0.38039366294E+01 -0.13513794793E+03  0.18631510344E+03  0.12509006952E+03 0.  0.
          5    1    3    3  502    0 -0.38333994648E+02 -0.38471541019E+02 -0.12170247379E+02  0.55813456579E+02  0.41800000000E+01 0. -1.
         -5    1    3    3    0  502  0.10243829599E+02  0.42275477649E+02 -0.12296770055E+03  0.13050164686E+03  0.41800000000E+01 0. -1.
        -11    1    1    2    0    0  0.24603691569E+02 -0.34570768706E+02 -0.20708627555E+02  0.47215748887E+02  0.00000000000E+00 0.  1.
         11    1    1    2    0    0  0.34864734801E+01  0.30766832077E+02 -0.11102804069E+03  0.11526482235E+03  0.00000000000E+00 0. -1.
</event>
<event>
 7    1  0.2775233E-009  0.1020591E+03  0.7561462E-02  0.1276025E+00
          2   -1    0    0  501    0  0.00000000000E+00  0.00000000000E+00  0.49495838889E+03  0.49495838889E+03  0.00000000000E+00 0. -1.
         -2   -1    0    0    0  501 -0.00000000000E+00 -0.00000000000E+00 -0.25702316501E+02  0.25702316501E+02  0.00000000000E+00 0.  1.
         25    2    1    2    0    0  0.10630836172E+02 -0.26362100476E+02  0.24713204079E+03  0.27844150977E+03  0.12508978279E+03 0.  0.
          5    1    3    3  502    0  0.37192885184E+02 -0.64836562538E+02  0.19173451799E+03  0.20583169906E+03  0.41800000000E+01 0. -1.
         -5    1    3    3    0  502 -0.26562049012E+02  0.38474462062E+02  0.55397522794E+02  0.72609810703E+02  0.41800000000E+01 0. -1.
        -11    1    1    2    0    0 -0.28416026227E+01 -0.27624136053E+02  0.14572250419E+03  0.14834492181E+03  0.00000000000E+00 0. -1.
         11    1    1    2    0    0 -0.77892335497E+01  0.53986236529E+02  0.76401527413E+02  0.93874273818E+02  0.00000000000E+00 0.  1.
</event>
<event>
 7    1  0.2719869E-009  0.1500904E+03  0.7561462E-02  0.1200362E+00
         -3   -1    0    0    0  501 -0.00000000000E+00  0.00000000000E+00  0.37190430317E+03  0.37190430317E+03  0.00000000000E+00 0.  1.
          3   -1    0    0  501    0  0.00000000000E+00 -0.00000000000E+00 -0.13059879922E+03  0.13059879922E+03  0.00000000000E+00 0. -1.
         25    2    1    2    0    0 -0.95941674544E+02  0.56361455460E+02  0.30248040116E+03  0.34572115502E+03  0.12508918964E+03 0.  0.
          5    1    3    3  502    0 -0.10638361186E+03  0.40669430405E+00  0.15948593877E+03  0.19175733451E+03  0.41800000000E+01 0.  1.
         -5    1    3    3    0  502  0.10441937320E+02  0.55954761156E+02  0.14299446239E+03  0.15396382050E+03  0.41800000000E+01 0.  1.
        -11    1    1    2    0    0  0.50323604858E+02  0.14494599567E+02 -0.48846847032E+02  0.71614056494E+02  0.00000000000E+00 0. -1.
         11    1    1    2    0    0  0.45618069686E+02 -0.70856055028E+02 -0.12328050178E+02  0.85167890881E+02  0.00000000000E+00 0.  1.
</event>
<event>
 7    1  0.2719869E-009  0.1091591E+03  0.7561462E-02  0.1262135E+00
         -2   -1    0    0    0  501 -0.00000000000E+00  0.00000000000E+00  0.42041709789E+02  0.42041709789E+02  0.00000000000E+00 0.  1.
          2   -1    0    0  501    0  0.00000000000E+00 -0.00000000000E+00 -0.31219862916E+03  0.31219862916E+03  0.00000000000E+00 0. -1.
         25    2    1    2    0    0  0.18801312744E+02 -0.16840338488E+02 -0.11549248156E+03  0.17211781026E+03  0.12509572715E+03 0.  0.
          5    1    3    3  502    0 -0.22546802417E+02 -0.61424504280E+02 -0.71092461227E+02  0.96710591295E+02  0.41800000000E+01 0.  1.
         -5    1    3    3    0  502  0.41348115161E+02  0.44584165792E+02 -0.44400020333E+02  0.75407218967E+02  0.41800000000E+01 0.  1.
        -11    1    1    2    0    0  0.34265192952E+01 -0.35120656094E+02 -0.34592582716E+02  0.49415061447E+02  0.00000000000E+00 0.  1.
         11    1    1    2    0    0 -0.22227832039E+02  0.51960994581E+02 -0.12007185509E+03  0.13270746724E+03  0.00000000000E+00 0. -1.
</event>
<event>
 7    1  0.2719869E-009  0.8159584E+02  0.7561462E-02  0.1324583E+00
         -2   -1    0    0    0  501 -0.00000000000E+00  0.00000000000E+00  0.13341292261E+03  0.13341292261E+03  0.00000000000E+00 0.  1.
          2   -1    0    0  501    0  0.00000000000E+00 -0.00000000000E+00 -0.99787189472E+02  0.99787189472E+02  0.00000000000E+00 0. -1.
         25    2    1    2    0    0 -0.46521893212E+00  0.28049250566E+02  0.71883414544E+01  0.12839642694E+03  0.12508794231E+03 0.  0.
          5    1    3    3  502    0  0.42609146917E+02  0.52154428086E+02 -0.21910634985E+02  0.70944852494E+02  0.41800000000E+01 0.  1.
         -5    1    3    3    0  502 -0.43074365849E+02 -0.24105177520E+02  0.29098976439E+02  0.57451574446E+02  0.41800000000E+01 0.  1.
        -11    1    1    2    0    0 -0.13507846014E+02 -0.29184320323E+02 -0.31606653901E+02  0.45090653438E+02  0.00000000000E+00 0. -1.
         11    1    1    2    0    0  0.13973064946E+02  0.11350697570E+01  0.58044045583E+02  0.59713031701E+02  0.00000000000E+00 0.  1.
</event>
<event>
 7    1  0.2719869E-009  0.1693572E+03  0.7561462E-02  0.1178520E+00
         -1   -1    0    0    0  501 -0.00000000000E+00  0.00000000000E+00  0.18018710093E+03  0.18018710093E+03  0.00000000000E+00 0.  1.
          1   -1    0    0  501    0  0.00000000000E+00 -0.00000000000E+00 -0.24636481448E+03  0.24636481448E+03  0.00000000000E+00 0. -1.
         25    2    1    2    0    0  0.36510884622E+00 -0.14482641210E+03  0.74171695985E+02  0.20524103376E+03  0.12509044132E+03 0.  0.
          5    1    3    3  502    0 -0.50097642530E+02 -0.91686209947E+02  0.54751011600E+01  0.10470713450E+03  0.41800000000E+01 0. -1.
         -5    1    3    3    0  502  0.50462751376E+02 -0.53140202149E+02  0.68696594825E+02  0.10053389927E+03  0.41800000000E+01 0. -1.
        -11    1    1    2    0    0 -0.15231778273E+02  0.71147410661E-01  0.46086060903E+01  0.15913873866E+02  0.00000000000E+00 0.  1.
         11    1    1    2    0    0  0.14866669427E+02  0.14475526469E+03 -0.14495801562E+03  0.20539700779E+03  0.00000000000E+00 0. -1.
</event>
<event>
 7    1  0.2719869E-009  0.9323643E+02  0.7561462E-02  0.1295198E+00
         -2   -1    0    0    0  501 -0.00000000000E+00  0.00000000000E+00  0.89864941689E+01  0.89864941689E+01  0.00000000000E+00 0. -1.
          2   -1    0    0  501    0  0.00000000000E+00 -0.00000000000E+00 -0.14123898045E+04  0.14123898045E+04  0.00000000000E+00 0.  1.
         25    2    1    2    0    0 -0.76377466528E+01 -0.10227156686E+02 -0.93716677548E+03  0.94556437038E+03  0.12508990191E+03 0.  0.
          5    1    3    3  502    0 -0.21973121830E+01 -0.50794329748E+02 -0.17489203895E+03  0.18218010265E+03  0.41800000000E+01 0.  1.
         -5    1    3    3    0  502 -0.54404344699E+01  0.40567173062E+02 -0.76227473653E+03  0.76338426773E+03  0.41800000000E+01 0.  1.
        -11    1    1    2    0    0  0.46934604966E+02  0.23950130183E+02 -0.23228905199E+03  0.23819040609E+03  0.00000000000E+00 0.  1.
         11    1    1    2    0    0 -0.39296858313E+02 -0.13722973497E+02 -0.23394748285E+03  0.23762152219E+03  0.00000000000E+00 0. -1.
</event>
<event>
 7    1  0.2719869E-009  0.2533305E+03  0.7561462E-02  0.1111218E+00
          1   -1    0    0  501    0  0.00000000000E+00  0.00000000000E+00  0.36578855463E+03  0.36578855463E+03  0.00000000000E+00 0. -1.
         -1   -1    0    0    0  501 -0.00000000000E+00 -0.00000000000E+00 -0.17946365824E+03  0.17946365824E+03  0.00000000000E+00 0.  1.
         25    2    1    2    0    0 -0.95927570191E+02 -0.20885915709E+03  0.62270915652E+02  0.26897818648E+03  0.12508937463E+03 0.  0.
          5    1    3    3  502    0 -0.50468548138E+01  0.16304988898E+02  0.11135872265E+02  0.20803928898E+02  0.41800000000E+01 0. -1.
         -5    1    3    3    0  502 -0.90880715377E+02 -0.22516414599E+03  0.51135043387E+02  0.24817425758E+03  0.41800000000E+01 0. -1.
        -11    1    1    2    0    0  0.78413929482E+02  0.66524158269E+02  0.61482275558E+02  0.11980934095E+03  0.00000000000E+00 0. -1.
         11    1    1    2    0    0  0.17513640708E+02  0.14233499882E+03  0.62571705187E+02  0.15646468544E+03  0.00000000000E+00 0.  1.
</event>
<event>
 7    1  0.2719869E-009  0.2479855E+03  0.7561462E-02  0.1114585E+00
         -2   -1    0    0    0  501 -0.00000000000E+00  0.00000000000E+00  0.47012623870E+02  0.47012623870E+02  0.00000000000E+00 0.  1.
          2   -1    0    0  501    0  0.00000000000E+00 -0.00000000000E+00 -0.14291176115E+04  0.14291176115E+04  0.00000000000E+00 0. -1.
         25    2    1    2    0    0 -0.22152095138E+03  0.70426968330E+02 -0.79040382682E+03  0.83331675962E+03  0.12508845928E+03 0.  0.
          5    1    3    3  502    0 -0.10973644395E+03 -0.23126951258E+02 -0.25902424988E+03  0.28229059040E+03  0.41800000000E+01 0. -1.
         -5    1    3    3    0  502 -0.11178450743E+03  0.93553919588E+02 -0.53137957694E+03  0.55102616922E+03  0.41800000000E+01 0. -1.
        -11    1    1    2    0    0  0.21613287350E+02 -0.24750990501E+02 -0.28690820794E+02  0.43622344260E+02  0.00000000000E+00 0.  1.
         11    1    1    2    0    0  0.19990766403E+03 -0.45675977829E+02 -0.56301033997E+03  0.59919113144E+03  0.00000000000E+00 0. -1.
</event>
<event>
 7    1  0.2719869E-009  0.1455571E+03  0.7561462E-02  0.1206041E+00
         -2   -1    0    0    0  501 -0.00000000000E+00  0.00000000000E+00  0.60663813509E+02  0.60663813509E+02  0.00000000000E+00 0.  1.
          2   -1    0    0  501    0  0.00000000000E+00 -0.00000000000E+00 -0.47921162288E+03  0.47921162288E+03  0.00000000000E+00 0. -1.
         25    2    1    2    0    0  0.47553065770E+02  0.12189490517E+03 -0.23772321899E+03  0.29879918256E+03  0.12509580601E+03 0.  0.
          5    1    3    3  502    0 -0.11601433015E+01 -0.13728223568E+02  0.60256397874E+01  0.15607395351E+02  0.41800000000E+01 0. -1.
         -5    1    3    3    0  502  0.48713209072E+02  0.13562312874E+03 -0.24374885878E+03  0.28319178721E+03  0.41800000000E+01 0. -1.
        -11    1    1    2    0    0 -0.16561089400E+02 -0.71459211091E+02 -0.30363888316E+02  0.79389257746E+02  0.00000000000E+00 0.  1.
         11    1    1    2    0    0 -0.30991976370E+02 -0.50435694080E+02 -0.15046070206E+03  0.16168699608E+03  0.00000000000E+00 0. -1.
</event>
<event>
 7    1  0.2719869E-009  0.1129722E+03  0.7561462E-02  0.1255163E+00
         -3   -1    0    0    0  501 -0.00000000000E+00  0.00000000000E+00  0.33287412567E+02  0.33287412567E+02  0.00000000000E+00 0.  1.
          3   -1    0    0  501    0  0.00000000000E+00 -0.00000000000E+00 -0.41017564528E+03  0.41017564528E+03  0.00000000000E+00 0. -1.
         25    2    1    2    0    0 -0.40412318344E+02 -0.11896578055E+02 -0.24117536761E+03  0.27493207215E+03  0.12508957715E+03 0.  0.
          5    1    3    3  502    0 -0.33998726630E+02 -0.67106435505E+02 -0.12243101226E+03  0.14375678162E+03  0.41800000000E+01 0. -1.
         -5    1    3    3    0  502 -0.64135917138E+01  0.55209857450E+02 -0.11874435536E+03  0.13117529054E+03  0.41800000000E+01 0. -1.
        -11    1    1    2    0    0  0.48204299445E+02  0.41896864103E+02 -0.64044875309E+02  0.90447486201E+02  0.00000000000E+00 0.  1.
         11    1    1    2    0    0 -0.77919811011E+01 -0.30000286048E+02 -0.71667989789E+02  0.78083499492E+02  0.00000000000E+00 0. -1.
</event>
<event>
 7    1  0.2719869E-009  0.1446109E+03  0.7561462E-02  0.1207256E+00
         -2   -1    0    0    0  501 -0.00000000000E+00  0.00000000000E+00  0.86068843643E+02  0.86068843643E+02  0.00000000000E+00 0.  1.
          2   -1    0    0  501    0  0.00000000000E+00 -0.00000000000E+00 -0.35398147092E+03  0.35398147092E+03  0.00000000000E+00 0. -1.
         25    2    1    2    0    0 -0.10317196312E+03 -0.63051250922E+02 -0.22120949968E+03  0.28142544560E+03  0.12508686767E+03 0.  0.
          5    1    3    3  502    0 -0.39255066021E+02 -0.89301750849E+02 -0.88646845635E+02  0.13187683100E+03  0.41800000000E+01 0. -1.
         -5    1    3    3    0  502 -0.63916897101E+02  0.26250499927E+02 -0.13256265405E+03  0.14954861460E+03  0.41800000000E+01 0. -1.
        -11    1    1    2    0    0  0.80161227079E+02  0.39252227753E+02  0.13157645282E+02  0.90220193636E+02  0.00000000000E+00 0.  1.
         11    1    1    2    0    0  0.23010736043E+02  0.23799023169E+02 -0.59860772872E+02  0.68404675322E+02  0.00000000000E+00 0. -1.
</event>
<event>
 7    1  0.2719869E-009  0.1147217E+03  0.7561462E-02  0.1252068E+00
         -1   -1    0    0    0  501 -0.00000000000E+00  0.00000000000E+00  0.52563757556E+02  0.52563757556E+02  0.00000000000E+00 0.  1.
          1   -1    0    0  501    0  0.00000000000E+00 -0.00000000000E+00 -0.41884628723E+03  0.41884628723E+03  0.00000000000E+00 0. -1.
         25    2    1    2    0    0 -0.72315003255E+02  0.31658643566E+02 -0.99906602473E+02  0.17849126405E+03  0.12508426246E+03 0.  0.
          5    1    3    3  502    0 -0.71679658059E+02 -0.71877686375E+01 -0.11568866127E+03  0.13634872990E+03  0.41800000000E+01 0.  1.
         -5    1    3    3    0  502 -0.63534519581E+00  0.38846412204E+02  0.15782058799E+02  0.42142534150E+02  0.41800000000E+01 0.  1.
        -11    1    1    2    0    0  0.53818630102E+02  0.24462024320E+02 -0.97713987829E+02  0.11420533699E+03  0.00000000000E+00 0.  1.
         11    1    1    2    0    0  0.18496373153E+02 -0.56120667886E+02 -0.16866193937E+03  0.17871344375E+03  0.00000000000E+00 0. -1.
</event>
<event>
 7    1  0.2719869E-009  0.1356083E+03  0.7561462E-02  0.1219363E+00
         -2   -1    0    0    0  501 -0.00000000000E+00  0.00000000000E+00  0.14013681819E+03  0.14013681819E+03  0.00000000000E+00 0.  1.
          2   -1    0    0  501    0  0.00000000000E+00 -0.00000000000E+00 -0.24045270407E+03  0.24045270407E+03  0.00000000000E+00 0. -1.
         25    2    1    2    0    0  0.86721725013E+02  0.82168249950E+02 -0.14256000278E+03  0.22414452225E+03  0.12508050836E+03 0.  0.
          5    1    3    3  502    0  0.94695354987E+02  0.95908387748E+02 -0.15356987183E+03  0.20436929082E+03  0.41800000000E+01 0.  1.
         -5    1    3    3    0  502 -0.79736299743E+01 -0.13740137798E+02  0.11009869047E+02  0.19775231430E+02  0.41800000000E+01 0.  1.
        -11    1    1    2    0    0 -0.54963462028E+02 -0.44831178139E+02  0.70385268483E+02  0.99924485041E+02  0.00000000000E+00 0.  1.
         11    1    1    2    0    0 -0.31758262985E+02 -0.37337071811E+02 -0.28141151582E+02  0.56520514962E+02  0.00000000000E+00 0. -1.
</event>
<event>
 7    1  0.2719869E-009  0.2103937E+03  0.7561462E-02  0.1141255E+00
         -2   -1    0    0    0  501 -0.00000000000E+00  0.00000000000E+00  0.72846673033E+02  0.72846673033E+02  0.00000000000E+00 0. -1.
          2   -1    0    0  501    0  0.00000000000E+00 -0.00000000000E+00 -0.99856439375E+03  0.99856439375E+03  0.00000000000E+00 0.  1.
         25    2    1    2    0    0  0.58051546865E+02  0.17180252476E+03 -0.14273622204E+03  0.26250168981E+03  0.12508964171E+03 0.  0.
          5    1    3    3  502    0  0.80708715918E+02  0.50301017122E+02 -0.47325259404E+02  0.10630729856E+03  0.41800000000E+01 0. -1.
         -5    1    3    3    0  502 -0.22657169053E+02  0.12150150764E+03 -0.95410962641E+02  0.15619439125E+03  0.41800000000E+01 0. -1.
        -11    1    1    2    0    0  0.21579716312E+02 -0.15694445168E+02 -0.76607550788E+02  0.81121616127E+02  0.00000000000E+00 0.  1.
         11    1    1    2    0    0 -0.79631263176E+02 -0.15610807959E+03 -0.70637394789E+03  0.72778776085E+03  0.00000000000E+00 0. -1.
</event>
<event>
 7    1  0.2719869E-009  0.7366227E+02  0.7561462E-02  0.1348064E+00
          2   -1    0    0  501    0  0.00000000000E+00  0.00000000000E+00  0.50015652985E+03  0.50015652985E+03  0.00000000000E+00 0. -1.
         -2   -1    0    0    0  501 -0.00000000000E+00 -0.00000000000E+00 -0.26519229135E+02  0.26519229135E+02  0.00000000000E+00 0.  1.
         25    2    1    2    0    0  0.11806141441E+02  0.13868964524E+02  0.34433373034E+03  0.36680491432E+03  0.12509354166E+03 0.  0.
          5    1    3    3  502    0  0.28881900589E+02 -0.26488050852E+02  0.30571826331E+03  0.30824813047E+03  0.41800000000E+01 0.  1.
         -5    1    3    3    0  502 -0.17075759148E+02  0.40357015376E+02  0.38615467034E+02  0.58556783849E+02  0.41800000000E+01 0.  1.
        -11    1    1    2    0    0  0.99267295209E+01 -0.33295418568E+02  0.87299862866E+01  0.35823700495E+02  0.00000000000E+00 0.  1.
         11    1    1    2    0    0 -0.21732870962E+02  0.19426454044E+02  0.12057358409E+03  0.12404714417E+03  0.00000000000E+00 0. -1.
</event>
<event>
 7    1  0.2719869E-009  0.8640951E+02  0.7561462E-02  0.1311787E+00
         -2   -1    0    0    0  501 -0.00000000000E+00  0.00000000000E+00  0.24744006853E+02  0.24744006853E+02  0.00000000000E+00 0.  1.
          2   -1    0    0  501    0  0.00000000000E+00 -0.00000000000E+00 -0.57868228334E+03  0.57868228334E+03  0.00000000000E+00 0. -1.
         25    2    1    2    0    0 -0.15889334194E+02  0.24043954238E+02 -0.42054848912E+03  0.43970249175E+03  0.12508663749E+03 0.  0.
          5    1    3    3  502    0  0.36699614516E+02  0.17171032734E+02 -0.34445876858E+03  0.34685879219E+03  0.41800000000E+01 0. -1.
         -5    1    3    3    0  502 -0.52588948710E+02  0.68729215037E+01 -0.76089720543E+02  0.92843699564E+02  0.41800000000E+01 0. -1.
        -11    1    1    2    0    0 -0.29176754972E+02 -0.35968469993E+01 -0.10453805916E+02  0.31200999938E+02  0.00000000000E+00 0.  1.
         11    1    1    2    0    0  0.45066089166E+02 -0.20447107238E+02 -0.12293598145E+03  0.13252279850E+03  0.00000000000E+00 0. -1.
</event>
<event>
 7    1  0.2719869E-009  0.9300778E+02  0.7561462E-02  0.1295727E+00
          1   -1    0    0  501    0  0.00000000000E+00  0.00000000000E+00  0.51587201202E+03  0.51587201202E+03  0.00000000000E+00 0. -1.
         -1   -1    0    0    0  501 -0.00000000000E+00 -0.00000000000E+00 -0.25267093305E+02  0.25267093305E+02  0.00000000000E+00 0.  1.
         25    2    1    2    0    0 -0.12180899125E+02 -0.22963277588E+02  0.22641902005E+03  0.25997953735E+03  0.12509236899E+03 0.  0.
          5    1    3    3  502    0  0.18398109892E+02  0.30234478894E+02  0.13096989811E+02  0.37968641057E+02  0.41800000000E+01 0.  1.
         -5    1    3    3    0  502 -0.30579009017E+02 -0.53197756482E+02  0.21332203024E+03  0.22201089629E+03  0.41800000000E+01 0.  1.
        -11    1    1    2    0    0  0.35125201455E+02  0.44983971290E+02  0.21609422477E+03  0.22350403001E+03  0.00000000000E+00 0. -1.
         11    1    1    2    0    0 -0.22944302330E+02 -0.22020693702E+02  0.48091673891E+02  0.57655537967E+02  0.00000000000E+00 0.  1.
</event>
<event>
 7    1  0.2719869E-009  0.1242237E+03  0.7561462E-02  0.1236288E+00
          1   -1    0    0  501    0  0.00000000000E+00  0.00000000000E+00  0.23957683555E+03  0.23957683555E+03  0.00000000000E+00 0. -1.
         -1   -1    0    0    0  501 -0.00000000000E+00 -0.00000000000E+00 -0.97796379545E+02  0.97796379545E+02  0.00000000000E+00 0.  1.
         25    2    1    2    0    0  0.79663145808E+02 -0.56871094676E+02  0.27405845409E+02  0.16118204650E+03  0.12509210023E+03 0.  0.
          5    1    3    3  502    0  0.93266381015E+02 -0.73391810182E+02 -0.86255172331E+01  0.11906656784E+03  0.41800000000E+01 0.  1.
         -5    1    3    3    0  502 -0.13603235207E+02  0.16520715506E+02  0.36031362642E+02  0.42115478659E+02  0.41800000000E+01 0.  1.
        -11    1    1    2    0    0 -0.56042432441E+02  0.62149045921E+02  0.30785253305E+02  0.89168323770E+02  0.00000000000E+00 0.  1.
         11    1    1    2    0    0 -0.23620713367E+02 -0.52779512452E+01  0.83589357291E+02  0.87022844827E+02  0.00000000000E+00 0. -1.
</event>
<event>
 7    1  0.2719869E-009  0.1073489E+03  0.7561462E-02  0.1265559E+00
         -2   -1    0    0    0  501 -0.00000000000E+00  0.00000000000E+00  0.41551992337E+02  0.41551992337E+02  0.00000000000E+00 0.  1.
          2   -1    0    0  501    0  0.00000000000E+00 -0.00000000000E+00 -0.39428481507E+03  0.39428481507E+03  0.00000000000E+00 0. -1.
         25    2    1    2    0    0  0.20928814127E+02 -0.64877219018E+02 -0.21452395168E+03  0.25751709640E+03  0.12508980888E+03 0.  0.
          5    1    3    3  502    0  0.57464959000E+02 -0.55452289293E+02 -0.64419801588E+02  0.10268671354E+03  0.41800000000E+01 0. -1.
         -5    1    3    3    0  502 -0.36536144873E+02 -0.94249297243E+01 -0.15010415009E+03  0.15483038286E+03  0.41800000000E+01 0. -1.
        -11    1    1    2    0    0 -0.46196549120E+02  0.37388472120E+02 -0.12553083151E+03  0.13888847561E+03  0.00000000000E+00 0. -1.
         11    1    1    2    0    0  0.25267734993E+02  0.27488746898E+02 -0.12678039536E+02  0.39431235387E+02  0.00000000000E+00 0.  1.
</event>
<event>
 7    1  0.2719869E-009  0.2161205E+03  0.7561462E-02  0.1136809E+00
         -1   -1    0    0    0  501 -0.00000000000E+00  0.00000000000E+00  0.15200024539E+03  0.15200024539E+03  0.00000000000E+00 0.  1.
          1   -1    0    0  501    0  0.00000000000E+00 -0.00000000000E+00 -0.37948751255E+03  0.37948751255E+03  0.00000000000E+00 0. -1.
         25    2    1    2    0    0 -0.71079901976E+02 -0.19937619442E+03 -0.15274620424E+03  0.28945035322E+03  0.12508750817E+03 0.  0.
          5    1    3    3  502    0 -0.36572768299E+02 -0.11082973294E+03 -0.90655984015E+01  0.11713434406E+03  0.41800000000E+01 0.  1.
         -5    1    3    3    0  502 -0.34507133676E+02 -0.88546461483E+02 -0.14368060584E+03  0.17231600916E+03  0.41800000000E+01 0.  1.
        -11    1    1    2    0    0  0.82431999227E+02  0.17472811462E+03 -0.38886492569E+02  0.19707132679E+03  0.00000000000E+00 0.  1.
         11    1    1    2    0    0 -0.11352097251E+02  0.24648079800E+02 -0.35854570353E+02  0.44966077937E+02  0.00000000000E+00 0. -1.
</event>
<event>
 7    1  0.2719869E-009  0.1305776E+03  0.7561462E-02  0.1226601E+00
          2   -1    0    0  501    0  0.00000000000E+00  0.00000000000E+00  0.40087800868E+03  0.40087800868E+03  0.00000000000E+00 0. -1.
         -2   -1    0    0    0  501 -0.00000000000E+00 -0.00000000000E+00 -0.47784984485E+02  0.47784984485E+02  0.00000000000E+00 0.  1.
         25    2    1    2    0    0 -0.84817071372E+02 -0.48728895679E+01  0.16244683548E+03  0.22193678293E+03  0.12509708475E+03 0.  0.
          5    1    3    3  502    0  0.65363911666E+01  0.44690823122E+02  0.66017013651E+02  0.80098143376E+02  0.41800000000E+01 0.  1.
         -5    1    3    3    0  502 -0.91353462538E+02 -0.49563712690E+02  0.96429821830E+02  0.14183863956E+03  0.41800000000E+01 0.  1.
        -11    1    1    2    0    0 -0.37115892381E+01 -0.19585361695E+02  0.65352308701E+01  0.20977881921E+02  0.00000000000E+00 0.  1.
         11    1    1    2    0    0  0.88528660610E+02  0.24458251263E+02  0.18411095784E+03  0.20574832831E+03  0.00000000000E+00 0. -1.
</event>
<event>
 7    1  0.2719869E-009  0.1350439E+03  0.7561462E-02  0.1220158E+00
          2   -1    0    0  501    0  0.00000000000E+00  0.00000000000E+00  0.10309134957E+04  0.10309134957E+04  0.00000000000E+00 0. -1.
         -2   -1    0    0    0  501 -0.00000000000E+00 -0.00000000000E+00 -0.24117320904E+02  0.24117320904E+02  0.00000000000E+00 0.  1.
         25    2    1    2    0    0 -0.11484960193E+03  0.17789365538E+01  0.54092748072E+03  0.56696077681E+03  0.12509351446E+03 0.  0.
          5    1    3    3  502    0 -0.29163376476E+02 -0.27846867414E+02  0.38038878576E+03  0.38254287509E+03  0.41800000000E+01 0.  1.
         -5    1    3    3    0  502 -0.85686225453E+02  0.29625803967E+02  0.16053869496E+03  0.18441790171E+03  0.41800000000E+01 0.  1.
        -11    1    1    2    0    0  0.10086367476E+03  0.29026748384E+02  0.27746354899E+03  0.29665140152E+03  0.00000000000E+00 0.  1.
         11    1    1    2    0    0  0.13985927170E+02 -0.30805684938E+02  0.18840514510E+03  0.19141863829E+03  0.00000000000E+00 0. -1.
</event>
<event>
 7    1  0.2719869E-009  0.1021693E+03  0.7561462E-02  0.1275799E+00
         -1   -1    0    0    0  501 -0.00000000000E+00  0.00000000000E+00  0.50201307901E+02  0.50201307901E+02  0.00000000000E+00 0.  1.
          1   -1    0    0  501    0  0.00000000000E+00 -0.00000000000E+00 -0.27596585075E+03  0.27596585075E+03  0.00000000000E+00 0. -1.
         25    2    1    2    0    0 -0.57526053391E+01 -0.37761375859E+02 -0.16603341965E+03  0.21136275729E+03  0.12509238487E+03 0.  0.
          5    1    3    3  502    0 -0.34835409714E+02 -0.70204018884E+02 -0.67393897248E+02  0.10344815041E+03  0.41800000000E+01 0. -1.
         -5    1    3    3    0  502  0.29082804375E+02  0.32442643025E+02 -0.98639522404E+02  0.10791460687E+03  0.41800000000E+01 0. -1.
        -11    1    1    2    0    0 -0.10957344229E+02  0.56167277305E+02 -0.84914938439E+01  0.57852674096E+02  0.00000000000E+00 0.  1.
         11    1    1    2    0    0  0.16709949568E+02 -0.18405901446E+02 -0.51239629349E+02  0.56951727265E+02  0.00000000000E+00 0. -1.
</event>
<event>
 7    1  0.2719869E-009  0.1874284E+03  0.7561462E-02  0.1160801E+00
         -2   -1    0    0    0  501 -0.00000000000E+00  0.00000000000E+00  0.35231313300E+02  0.35231313300E+02  0.00000000000E+00 0.  1.
          2   -1    0    0  501    0  0.00000000000E+00 -0.00000000000E+00 -0.12930531197E+04  0.12930531197E+04  0.00000000000E+00 0. -1.
         25    2    1    2    0    0  0.20576078597E+01  0.17779934889E+03 -0.63759190970E+03  0.67363730092E+03  0.12508767989E+03 0.  0.
          5    1    3    3  502    0  0.30692105567E+02  0.12389352310E+03 -0.24479872385E+03  0.27610776521E+03  0.41800000000E+01 0.  1.
         -5    1    3    3    0  502 -0.28634497707E+02  0.53905825790E+02 -0.39279318585E+03  0.39752953571E+03  0.41800000000E+01 0.  1.
        -11    1    1    2    0    0 -0.28166961031E+02 -0.10084252441E+03 -0.19122214048E+03  0.21801031955E+03  0.00000000000E+00 0.  1.
         11    1    1    2    0    0  0.26109353172E+02 -0.76956824480E+02 -0.42900775627E+03  0.43663681258E+03  0.00000000000E+00 0. -1.
</event>
<event>
 7    1  0.2719869E-009  0.1461979E+03  0.7561462E-02  0.1205224E+00
         -2   -1    0    0    0  501 -0.00000000000E+00  0.00000000000E+00  0.34593445162E+02  0.34593445162E+02  0.00000000000E+00 0.  1.
          2   -1    0    0  501    0  0.00000000000E+00 -0.00000000000E+00 -0.72203151918E+03  0.72203151918E+03  0.00000000000E+00 0. -1.
         25    2    1    2    0    0  0.95458196364E+02  0.51046836012E+02 -0.28808291958E+03  0.33219964463E+03  0.12508712412E+03 0.  0.
          5    1    3    3  502    0  0.10823768701E+03  0.13176395784E+02 -0.13319949146E+03  0.17218766280E+03  0.41800000000E+01 0. -1.
         -5    1    3    3    0  502 -0.12779490649E+02  0.37870440228E+02 -0.15488342811E+03  0.16001198183E+03  0.41800000000E+01 0. -1.
        -11    1    1    2    0    0 -0.69893189120E+02 -0.78819227404E+02 -0.31052987196E+03  0.32791207644E+03  0.00000000000E+00 0.  1.
         11    1    1    2    0    0 -0.25565007244E+02  0.27772391392E+02 -0.88825282478E+02  0.96513243269E+02  0.00000000000E+00 0. -1.
</event>
<event>
 7    1  0.2719869E-009  0.1066373E+03  0.7561462E-02  0.1266927E+00
          1   -1    0    0  501    0  0.00000000000E+00  0.00000000000E+00  0.52852355867E+02  0.52852355867E+02  0.00000000000E+00 0.  1.
         -1   -1    0    0    0  501 -0.00000000000E+00 -0.00000000000E+00 -0.45506455748E+03  0.45506455748E+03  0.00000000000E+00 0. -1.
         25    2    1    2    0    0  0.68968716656E+01  0.83815944551E+02 -0.33519516272E+03  0.36752728605E+03  0.12509128460E+03 0.  0.
          5    1    3    3  502    0  0.51676564080E+02  0.34504754361E+02 -0.25832923045E+03  0.26573014329E+03  0.41800000000E+01 0. -1.
         -5    1    3    3    0  502 -0.44779692415E+02  0.49311190189E+02 -0.76865932276E+02  0.10179714277E+03  0.41800000000E+01 0. -1.
        -11    1    1    2    0    0 -0.76801096003E+01 -0.70410416201E+02 -0.89540458020E+02  0.11416700231E+03  0.00000000000E+00 0. -1.
         11    1    1    2    0    0  0.78323793463E+00 -0.13405528350E+02  0.22523419129E+02  0.26222624988E+02  0.00000000000E+00 0.  1.
</event>
<event>
 7    1  0.2719869E-009  0.7738367E+02  0.7561462E-02  0.1336645E+00
          1   -1    0    0  501    0  0.00000000000E+00  0.00000000000E+00  0.50113207012E+03  0.50113207012E+03  0.00000000000E+00 0. -1.
         -1   -1    0    0    0  501 -0.00000000000E+00 -0.00000000000E+00 -0.26609805754E+02  0.26609805754E+02  0.00000000000E+00 0.  1.
         25    2    1    2    0    0  0.37222972472E+02 -0.10707923897E+02  0.28627073707E+03  0.31480002503E+03  0.12509161260E+03 0.  0.
          5    1    3    3  502    0  0.23615615168E+02 -0.31959274035E+02  0.15554056118E+02  0.42877657799E+02  0.41800000000E+01 0. -1.
         -5    1    3    3    0  502  0.13607357304E+02  0.21251350138E+02  0.27071668095E+03  0.27192236723E+03  0.41800000000E+01 0. -1.
        -11    1    1    2    0    0 -0.58830945664E+02 -0.95640490926E+01  0.16450995069E+03  0.17497449837E+03  0.00000000000E+00 0. -1.
         11    1    1    2    0    0  0.21607973192E+02  0.20271972990E+02  0.23741576607E+02  0.37967352477E+02  0.00000000000E+00 0.  1.
</event>
<event>
 7    1  0.2719869E-009  0.1208751E+03  0.7561462E-02  0.1241660E+00
          1   -1    0    0  501    0  0.00000000000E+00  0.00000000000E+00  0.23226960767E+03  0.23226960767E+03  0.00000000000E+00 0. -1.
         -1   -1    0    0    0  501 -0.00000000000E+00 -0.00000000000E+00 -0.74450296106E+02  0.74450296106E+02  0.00000000000E+00 0.  1.
         25    2    1    2    0    0  0.14907572538E+02  0.60494129297E+02  0.13214450644E+03  0.19232510703E+03  0.12507997768E+03 0.  0.
          5    1    3    3  502    0  0.44626944302E+02  0.88059389892E+02  0.89077425194E+02  0.13303488409E+03  0.41800000000E+01 0. -1.
         -5    1    3    3    0  502 -0.29719371764E+02 -0.27565260595E+02  0.43067081246E+02  0.59290222944E+02  0.41800000000E+01 0. -1.
        -11    1    1    2    0    0  0.32342866071E+02 -0.37872395171E+02  0.35413813782E+02  0.61110698804E+02  0.00000000000E+00 0. -1.
         11    1    1    2    0    0 -0.47250438609E+02 -0.22621734125E+02 -0.97390086561E+01  0.53284097939E+02  0.00000000000E+00 0.  1.
</event>
<event>
 7    1  0.2719869E-009  0.1248361E+03  0.7561462E-02  0.1235326E+00
          2   -1    0    0  501    0  0.00000000000E+00  0.00000000000E+00  0.93398368448E+03  0.93398368448E+03  0.00000000000E+00 0.  1.
         -2   -1    0    0    0  501 -0.00000000000E+00 -0.00000000000E+00 -0.17710705641E+02  0.17710705641E+02  0.00000000000E+00 0. -1.
         25    2    1    2    0    0 -0.14441060888E+02 -0.74073060943E+02  0.64170963110E+03  0.65812926191E+03  0.12509001613E+03 0.  0.
          5    1    3    3  502    0 -0.74306101221E+01  0.35236046555E+02  0.14417002949E+03  0.14865820780E+03  0.41800000000E+01 0. -1.
         -5    1    3    3    0  502 -0.70104507654E+01 -0.10930910750E+03  0.49753960161E+03  0.50947105411E+03  0.41800000000E+01 0. -1.
        -11    1    1    2    0    0  0.42000025665E+02  0.29226035924E+02  0.12905852625E+03  0.13883179221E+03  0.00000000000E+00 0.  1.
         11    1    1    2    0    0 -0.27558964777E+02  0.44847025019E+02  0.14550482149E+03  0.15473333600E+03  0.00000000000E+00 0. -1.
</event>
<event>
 7    1  0.2719869E-009  0.1154659E+03  0.7561462E-02  0.1250770E+00
          2   -1    0    0  501    0  0.00000000000E+00  0.00000000000E+00  0.47613122929E+02  0.47613122929E+02  0.00000000000E+00 0. -1.
         -2   -1    0    0    0  501 -0.00000000000E+00 -0.00000000000E+00 -0.42521984419E+03  0.42521984419E+03  0.00000000000E+00 0.  1.
         25    2    1    2    0    0 -0.47344842527E+02  0.79001108904E+02 -0.20915369673E+03  0.26052903328E+03  0.12508956394E+03 0.  0.
          5    1    3    3  502    0  0.25778169022E+02  0.13693305543E+02 -0.13323686476E+03  0.13646081909E+03  0.41800000000E+01 0. -1.
         -5    1    3    3    0  502 -0.73123011549E+02  0.65307803361E+02 -0.75916831972E+02  0.12406821420E+03  0.41800000000E+01 0. -1.
        -11    1    1    2    0    0  0.26001678040E+02 -0.52360207285E+01 -0.11676095287E+03  0.11973563917E+03  0.00000000000E+00 0.  1.
         11    1    1    2    0    0  0.21343164487E+02 -0.73765088175E+02 -0.51692071665E+02  0.92568294663E+02  0.00000000000E+00 0. -1.
</event>
<event>
 7    1  0.2719869E-009  0.2388552E+03  0.7561462E-02  0.1120558E+00
         -2   -1    0    0    0  501 -0.00000000000E+00  0.00000000000E+00  0.36661088643E+03  0.36661088643E+03  0.00000000000E+00 0.  1.
          2   -1    0    0  501    0  0.00000000000E+00 -0.00000000000E+00 -0.16243587353E+03  0.16243587353E+03  0.00000000000E+00 0. -1.
         25    2    1    2    0    0 -0.46089811921E+02  0.21327531672E+03  0.98638265090E+02  0.27016258559E+03  0.12509070241E+03 0.  0.
          5    1    3    3  502    0 -0.63868508959E+02  0.21383381887E+03  0.66005095325E+02  0.23276218236E+03  0.41800000000E+01 0.  1.
         -5    1    3    3    0  502  0.17778697037E+02 -0.55850215084E+00  0.32633169765E+02  0.37400403232E+02  0.41800000000E+01 0.  1.
        -11    1    1    2    0    0 -0.12597166268E+02 -0.14767234766E+03  0.61517950358E+02  0.16046890377E+03  0.00000000000E+00 0. -1.
         11    1    1    2    0    0  0.58686978189E+02 -0.65602969060E+02  0.44018797454E+02  0.98415270602E+02  0.00000000000E+00 0.  1.
</event>
<event>
 7    1  0.2719869E-009  0.1112878E+03  0.7561462E-02  0.1258204E+00
          2   -1    0    0  501    0  0.00000000000E+00  0.00000000000E+00  0.18033825601E+03  0.18033825601E+03  0.00000000000E+00 0. -1.
         -2   -1    0    0    0  501 -0.00000000000E+00 -0.00000000000E+00 -0.16287613697E+03  0.16287613697E+03  0.00000000000E+00 0.  1.
         25    2    1    2    0    0  0.22006440889E+02  0.45272400889E+02 -0.11390971044E+03  0.17651613179E+03  0.12509455993E+03 0.  0.
          5    1    3    3  502    0 -0.87501069956E+01 -0.34101219504E+02 -0.74733266615E+02  0.82716328999E+02  0.41800000000E+01 0. -1.
         -5    1    3    3    0  502  0.30756547885E+02  0.79373620394E+02 -0.39176443829E+02  0.93799802789E+02  0.41800000000E+01 0. -1.
        -11    1    1    2    0    0 -0.44214025666E+01 -0.70777694326E+02  0.81997396339E+02  0.10840942681E+03  0.00000000000E+00 0.  1.
         11    1    1    2    0    0 -0.17585038323E+02  0.25505293437E+02  0.49374433141E+02  0.58288834387E+02  0.00000000000E+00 0. -1.
</event>
<event>
 7    1  0.2719869E-009  0.1255011E+03  0.7561462E-02  0.1234288E+00
          2   -1    0    0  501    0  0.00000000000E+00  0.00000000000E+00  0.33931935475E+03  0.33931935475E+03  0.00000000000E+00 0. -1.
         -2   -1    0    0    0  501 -0.00000000000E+00 -0.00000000000E+00 -0.68008727459E+02  0.68008727459E+02  0.00000000000E+00 0.  1.
         25    2    1    2    0    0  0.37641134808E+02  0.95023574722E+02  0.15412843628E+03  0.22326894557E+03  0.12508841834E+03 0.  0.
          5    1    3    3  502    0 -0.11483901898E+02 -0.63383638940E+01 -0.14784093384E+02  0.20201402844E+02  0.41800000000E+01 0.  1.
         -5    1    3    3    0  502  0.49125036706E+02  0.10136193862E+03  0.16891252966E+03  0.20306754273E+03  0.41800000000E+01 0.  1.
        -11    1    1    2    0    0  0.20231877688E+02 -0.39184822179E+02  0.27371917087E+01  0.44184515188E+02  0.00000000000E+00 0. -1.
         11    1    1    2    0    0 -0.57873012496E+02 -0.55838752543E+02  0.11444499931E+03  0.13987462146E+03  0.00000000000E+00 0.  1.
</event>
<event>
 7    1  0.2719869E-009  0.1246994E+03  0.7561462E-02  0.1235540E+00
         -1   -1    0    0    0  501 -0.00000000000E+00  0.00000000000E+00  0.45396771453E+02  0.45396771453E+02  0.00000000000E+00 0.  1.
          1   -1    0    0  501    0  0.00000000000E+00 -0.00000000000E+00 -0.35257198084E+03  0.35257198084E+03  0.00000000000E+00 0. -1.
         25    2    1    2    0    0 -0.43279472443E+01 -0.63188270451E+02 -0.18783905110E+03  0.23439746640E+03  0.12508866649E+03 0.  0.
          5    1    3    3  502    0  0.60266310319E+02 -0.31788924363E+02 -0.90862141576E+02  0.11364842737E+03  0.41800000000E+01 0.  1.
         -5    1    3    3    0  502 -0.64594257563E+02 -0.31399346088E+02 -0.96976909528E+02  0.12074903903E+03  0.41800000000E+01 0.  1.
        -11    1    1    2    0    0  0.40537449676E+02  0.52602840301E+01 -0.28143071699E+02  0.49628498859E+02  0.00000000000E+00 0.  1.
         11    1    1    2    0    0 -0.36209502432E+02  0.57927986421E+02 -0.91193086588E+02  0.11394278704E+03  0.00000000000E+00 0. -1.
</event>
<event>
 7    1  0.2719869E-009  0.1123691E+03  0.7561462E-02  0.1256245E+00
          1   -1    0    0  501    0  0.00000000000E+00  0.00000000000E+00  0.14051990386E+03  0.14051990386E+03  0.00000000000E+00 0. -1.
         -1   -1    0    0    0  501 -0.00000000000E+00 -0.00000000000E+00 -0.12369278772E+03  0.12369278772E+03  0.00000000000E+00 0.  1.
         25    2    1    2    0    0 -0.43269751434E+01 -0.40280559765E+02  0.72864266983E+02  0.15032559029E+03  0.12508931003E+03 0.  0.
          5    1    3    3  502    0  0.18688362775E+02 -0.80291076880E+02  0.60551403354E+02  0.10237117162E+03  0.41800000000E+01 0. -1.
         -5    1    3    3    0  502 -0.23015337919E+02  0.40010517115E+02  0.12312863629E+02  0.47954418671E+02  0.41800000000E+01 0. -1.
        -11    1    1    2    0    0 -0.40684924487E+02  0.10982404204E+02 -0.39325557913E+02  0.57640053677E+02  0.00000000000E+00 0. -1.
         11    1    1    2    0    0  0.45011899631E+02  0.29298155561E+02 -0.16711592925E+02  0.56247047618E+02  0.00000000000E+00 0.  1.
</event>
<event>
 7    1  0.3092588E-009  0.8485840E+02  0.7561462E-02  0.1315803E+00
         -2   -1    0    0    0  501 -0.00000000000E+00  0.00000000000E+00  0.56546947734E+02  0.56546947734E+02  0.00000000000E+00 0.  1.
          2   -1    0    0  501    0  0.00000000000E+00 -0.00000000000E+00 -0.30288802867E+03  0.30288802867E+03  0.00000000000E+00 0. -1.
         25    2    1    2    0    0 -0.10514608005E+02  0.69359326360E+02 -0.10853109472E+03  0.17985485271E+03  0.12508995319E+03 0.  0.
          5    1    3    3  502    0  0.34881098276E+01  0.70005418040E+02  0.12668631052E+00  0.70216906188E+02  0.41800000000E+01 0.  1.
         -5    1    3    3    0  502 -0.14002717832E+02 -0.64609168058E+00 -0.10865778103E+03  0.10963794653E+03  0.41800000000E+01 0.  1.
        -11    1    1    2    0    0  0.29386852429E+02 -0.35273648776E+02 -0.11404292346E+02  0.47306186462E+02  0.00000000000E+00 0.  1.
         11    1    1    2    0    0 -0.18872244424E+02 -0.34085677583E+02 -0.12640569387E+03  0.13227393723E+03  0.00000000000E+00 0. -1.
</event>
<event>
 7    1  0.2719869E-009  0.1415807E+03  0.7561462E-02  0.1211218E+00
          1   -1    0    0  501    0  0.00000000000E+00  0.00000000000E+00  0.22651642627E+02  0.22651642627E+02  0.00000000000E+00 0. -1.
         -1   -1    0    0    0  501 -0.00000000000E+00 -0.00000000000E+00 -0.12229818085E+04  0.12229818085E+04  0.00000000000E+00 0.  1.
         25    2    1    2    0    0 -0.82364837803E+02  0.74209515675E+02 -0.85938356116E+03  0.87548784940E+03  0.12509136874E+03 0.  0.
          5    1    3    3  502    0 -0.78624893659E+02  0.11732460146E+02 -0.69497088319E+03  0.69951520741E+03  0.41800000000E+01 0. -1.
         -5    1    3    3    0  502 -0.37399441449E+01  0.62477055529E+02 -0.16441267797E+03  0.17597264199E+03  0.41800000000E+01 0. -1.
        -11    1    1    2    0    0  0.56582143847E+02 -0.93044417718E+02 -0.22634249197E+03  0.25117668352E+03  0.00000000000E+00 0. -1.
         11    1    1    2    0    0  0.25782693956E+02  0.18834902043E+02 -0.11460411271E+03  0.11896891818E+03  0.00000000000E+00 0.  1.
</event>
<event>
 7    1  0.2719869E-009  0.2036783E+03  0.7561462E-02  0.1146672E+00
          2   -1    0    0  501    0  0.00000000000E+00  0.00000000000E+00  0.25008607951E+03  0.25008607951E+03  0.00000000000E+00 0. -1.
         -2   -1    0    0    0  501 -0.00000000000E+00 -0.00000000000E+00 -0.37278482511E+03  0.37278482511E+03  0.00000000000E+00 0.  1.
         25    2    1    2    0    0 -0.17756286302E+02  0.18821601684E+03  0.15493087664E+03  0.27457477818E+03  0.12508867888E+03 0.  0.
          5    1    3    3  502    0 -0.40806719977E+02  0.14213020496E+03  0.47530748793E+02  0.15537962556E+03  0.41800000000E+01 0.  1.
         -5    1    3    3    0  502  0.23050433675E+02  0.46085811872E+02  0.10740012784E+03  0.11919515262E+03  0.41800000000E+01 0.  1.
        -11    1    1    2    0    0 -0.26354077206E+02 -0.13966862603E+03 -0.21407428517E+03  0.25696237478E+03  0.00000000000E+00 0. -1.
         11    1    1    2    0    0  0.44110363508E+02 -0.48547390808E+02 -0.63555337060E+02  0.91333751658E+02  0.00000000000E+00 0.  1.
</event>
<event>
 7    1  0.2719869E-009  0.9642689E+02  0.7561462E-02  0.1287994E+00
         -2   -1    0    0    0  501 -0.00000000000E+00  0.00000000000E+00  0.12970584828E+03  0.12970584828E+03  0.00000000000E+00 0.  1.
          2   -1    0    0  501    0  0.00000000000E+00 -0.00000000000E+00 -0.17860184316E+03  0.17860184316E+03  0.00000000000E+00 0. -1.
         25    2    1    2    0    0 -0.68569749738E+02 -0.66198419814E+01  0.55394490886E+02  0.15317490997E+03  0.12509344722E+03 0.  0.
          5    1    3    3  502    0 -0.47571567596E+02  0.19153909242E+02  0.90839688338E+02  0.10439946197E+03  0.41800000000E+01 0. -1.
         -5    1    3    3    0  502 -0.20998182142E+02 -0.25773751224E+02 -0.35445197452E+02  0.48775448002E+02  0.41800000000E+01 0. -1.
        -11    1    1    2    0    0 -0.16722061965E+02 -0.12014643413E+02 -0.20549354312E+01  0.20693036808E+02  0.00000000000E+00 0.  1.
         11    1    1    2    0    0  0.85291811703E+02  0.18634485394E+02 -0.10223555034E+03  0.13443974465E+03  0.00000000000E+00 0. -1.
</event>
<event>
 7    1  0.2719869E-009  0.1141452E+03  0.7561462E-02  0.1253081E+00
          2   -1    0    0  501    0  0.00000000000E+00  0.00000000000E+00  0.36496085972E+03  0.36496085972E+03  0.00000000000E+00 0. -1.
         -2   -1    0    0    0  501 -0.00000000000E+00 -0.00000000000E+00 -0.51849623136E+02  0.51849623136E+02  0.00000000000E+00 0.  1.
         25    2    1    2    0    0 -0.17928302638E+02 -0.41140640180E+02  0.59803165372E+02  0.14573151603E+03  0.12508908772E+03 0.  0.
          5    1    3    3  502    0  0.13173220196E+02 -0.80836013384E+02  0.41590209593E+02  0.91952230665E+02  0.41800000000E+01 0. -1.
         -5    1    3    3    0  502 -0.31101522834E+02  0.39695373204E+02  0.18212955779E+02  0.53779285367E+02  0.41800000000E+01 0. -1.
        -11    1    1    2    0    0 -0.17698307384E+02  0.54752272822E+02  0.16950909047E+03  0.17900942214E+03  0.00000000000E+00 0.  1.
         11    1    1    2    0    0  0.35626610022E+02 -0.13611632641E+02  0.83798980747E+02  0.92069544688E+02  0.00000000000E+00 0. -1.
</event>
<event>
 7    1  0.2719869E-009  0.1444263E+03  0.7561462E-02  0.1207494E+00
          1   -1    0    0  501    0  0.00000000000E+00  0.00000000000E+00  0.30988107708E+03  0.30988107708E+03  0.00000000000E+00 0. -1.
         -1   -1    0    0    0  501 -0.00000000000E+00 -0.00000000000E+00 -0.87280662169E+02  0.87280662169E+02  0.00000000000E+00 0.  1.
         25    2    1    2    0    0 -0.74003782497E+02  0.77488645037E+02  0.18936059553E+03  0.25096995371E+03  0.12508969818E+03 0.  0.
          5    1    3    3  502    0 -0.31719428802E+02 -0.24462829369E+02  0.11991297960E+02  0.42021611238E+02  0.41800000000E+01 0. -1.
         -5    1    3    3    0  502 -0.42284353695E+02  0.10195147441E+03  0.17736929757E+03  0.20894834247E+03  0.41800000000E+01 0. -1.
        -11    1    1    2    0    0 -0.14207798879E+01 -0.60878108345E+02 -0.28122643839E+01  0.60959589255E+02  0.00000000000E+00 0.  1.
         11    1    1    2    0    0  0.75424562385E+02 -0.16610536692E+02  0.36052083767E+02  0.85232196288E+02  0.00000000000E+00 0. -1.
</event>
<event>
 7    1  0.2719869E-009  0.2203678E+03  0.7561462E-02  0.1133609E+00
          2   -1    0    0  501    0  0.00000000000E+00  0.00000000000E+00  0.12107227867E+03  0.12107227867E+03  0.00000000000E+00 0. -1.
         -2   -1    0    0    0  501 -0.00000000000E+00 -0.00000000000E+00 -0.47138096088E+03  0.47138096088E+03  0.00000000000E+00 0.  1.
         25    2    1    2    0    0 -0.18011796162E+03  0.75635254767E+02 -0.76468144456E+02  0.24425005294E+03  0.12509012505E+03 0.  0.
          5    1    3    3  502    0 -0.10065869411E+03 -0.19430840852E+02 -0.60875607327E+02  0.11930231449E+03  0.41800000000E+01 0. -1.
         -5    1    3    3    0  502 -0.79459267513E+02  0.95066095618E+02 -0.15592537128E+02  0.12494773845E+03  0.41800000000E+01 0. -1.
        -11    1    1    2    0    0  0.80981049886E+02 -0.81448207362E+02 -0.13080666429E+03  0.17407505377E+03  0.00000000000E+00 0. -1.
         11    1    1    2    0    0  0.99136911735E+02  0.58129525949E+01 -0.14303387347E+03  0.17412813284E+03  0.00000000000E+00 0.  1.
</event>
<event>
 7    1  0.2719869E-009  0.1679932E+03  0.7561462E-02  0.1179957E+00
         -1   -1    0    0    0  501 -0.00000000000E+00  0.00000000000E+00  0.17738382138E+02  0.17738382138E+02  0.00000000000E+00 0.  1.
          1   -1    0    0  501    0  0.00000000000E+00 -0.00000000000E+00 -0.19518908567E+04  0.19518908567E+04  0.00000000000E+00 0. -1.
         25    2    1    2    0    0  0.11268055304E+03 -0.93004361157E+02 -0.11562503943E+04  0.11721382902E+04  0.12508588610E+03 0.  0.
          5    1    3    3  502    0  0.74129330949E+02 -0.97108250386E+02 -0.49982726476E+03  0.51455800159E+03  0.41800000000E+01 0.  1.
         -5    1    3    3    0  502  0.38551222091E+02  0.41038892296E+01 -0.65642312949E+03  0.65758028861E+03  0.41800000000E+01 0.  1.
        -11    1    1    2    0    0 -0.50556389420E+02  0.10018128315E+03 -0.45931516607E+03  0.47282413199E+03  0.00000000000E+00 0.  1.
         11    1    1    2    0    0 -0.62124163620E+02 -0.71769219968E+01 -0.31858691428E+03  0.32466681669E+03  0.00000000000E+00 0. -1.
</event>
<event>
 7    1  0.2719869E-009  0.1167063E+03  0.7561462E-02  0.1248632E+00
         -1   -1    0    0    0  501 -0.00000000000E+00  0.00000000000E+00  0.42823946554E+02  0.42823946554E+02  0.00000000000E+00 0.  1.
          1   -1    0    0  501    0  0.00000000000E+00 -0.00000000000E+00 -0.54902019781E+03  0.54902019781E+03  0.00000000000E+00 0. -1.
         25    2    1    2    0    0  0.45016439776E+02  0.91325327260E+02 -0.21746306218E+03  0.27074654571E+03  0.12508682326E+03 0.  0.
          5    1    3    3  502    0  0.94315181121E+01  0.78130512404E+02 -0.21878051689E+03  0.23254186176E+03  0.41800000000E+01 0.  1.
         -5    1    3    3    0  502  0.35584921664E+02  0.13194814857E+02  0.13174547057E+01  0.38204683951E+02  0.41800000000E+01 0.  1.
        -11    1    1    2    0    0  0.63184451468E+01 -0.50334145781E+02 -0.22097111222E+03  0.22671938915E+03  0.00000000000E+00 0. -1.
         11    1    1    2    0    0 -0.51334884923E+02 -0.40991181479E+02 -0.67762076856E+02  0.94378209502E+02  0.00000000000E+00 0.  1.
</event>
<event>
 7    1  0.2719869E-009  0.8434796E+02  0.7561462E-02  0.1317147E+00
         -2   -1    0    0    0  501 -0.00000000000E+00  0.00000000000E+00  0.42175839175E+02  0.42175839175E+02  0.00000000000E+00 0.  1.
          2   -1    0    0  501    0  0.00000000000E+00 -0.00000000000E+00 -0.29647840978E+03  0.29647840978E+03  0.00000000000E+00 0. -1.
         25    2    1    2    0    0 -0.54896822409E+01  0.98144208301E+00 -0.18914048993E+03  0.22684667497E+03  0.12511670222E+03 0.  0.
          5    1    3    3  502    0 -0.63698603774E+02 -0.11104112761E+02 -0.11164619728E+03  0.12908585984E+03  0.41800000000E+01 0. -1.
         -5    1    3    3    0  502  0.58208921533E+02  0.12085554844E+02 -0.77494292657E+02  0.97760815138E+02  0.41800000000E+01 0. -1.
        -11    1    1    2    0    0 -0.16097076206E+02  0.11113155997E+02 -0.80401799240E+02  0.82747008524E+02  0.00000000000E+00 0. -1.
         11    1    1    2    0    0  0.21586758447E+02 -0.12094598080E+02  0.15239718567E+02  0.29060565462E+02  0.00000000000E+00 0.  1.
</event>
<event>
 7    1  0.2719869E-009  0.8988758E+02  0.7561462E-02  0.1303124E+00
         -2   -1    0    0    0  501 -0.00000000000E+00  0.00000000000E+00  0.20745092450E+02  0.20745092450E+02  0.00000000000E+00 0.  1.
          2   -1    0    0  501    0  0.00000000000E+00 -0.00000000000E+00 -0.58339391720E+03  0.58339391720E+03  0.00000000000E+00 0. -1.
         25    2    1    2    0    0  0.12894363457E+02 -0.19903585520E+02 -0.32639271925E+03  0.35033262516E+03  0.12505328362E+03 0.  0.
          5    1    3    3  502    0 -0.25736990915E+01 -0.51785507774E+02 -0.30352912535E+03  0.30795416068E+03  0.41800000000E+01 0.  1.
         -5    1    3    3    0  502  0.15468062548E+02  0.31881922254E+02 -0.22863593899E+02  0.42378464479E+02  0.41800000000E+01 0.  1.
        -11    1    1    2    0    0  0.74499818960E+01 -0.33819083920E+02 -0.10397184209E+03  0.10958730134E+03  0.00000000000E+00 0.  1.
         11    1    1    2    0    0 -0.20344345353E+02  0.53722669440E+02 -0.13228426341E+03  0.14421908315E+03  0.00000000000E+00 0. -1.
</event>
<event>
 7    1  0.2719869E-009  0.8730491E+02  0.7561462E-02  0.1309513E+00
         -2   -1    0    0    0  501 -0.00000000000E+00  0.00000000000E+00  0.69688126266E+02  0.69688126266E+02  0.00000000000E+00 0. -1.
          2   -1    0    0  501    0  0.00000000000E+00 -0.00000000000E+00 -0.19475927246E+03  0.19475927246E+03  0.00000000000E+00 0.  1.
         25    2    1    2    0    0 -0.76393115810E+01 -0.96154217753E+01 -0.22126910895E+02  0.12762220702E+03  0.12508801750E+03 0.  0.
          5    1    3    3  502    0  0.23302513624E+02 -0.38370193925E+02  0.34557720138E+02  0.56806578353E+02  0.41800000000E+01 0. -1.
         -5    1    3    3    0  502 -0.30941825205E+02  0.28754772150E+02 -0.56684631033E+02  0.70815628668E+02  0.41800000000E+01 0. -1.
        -11    1    1    2    0    0 -0.28932079953E+02 -0.23857569203E+02 -0.27310546970E+02  0.46390891719E+02  0.00000000000E+00 0.  1.
         11    1    1    2    0    0  0.36571391534E+02  0.33472990978E+02 -0.75633688333E+02  0.90434299990E+02  0.00000000000E+00 0. -1.
</event>
<event>
 7    1  0.2719869E-009  0.7331934E+02  0.7561462E-02  0.1349156E+00
         -1   -1    0    0    0  501 -0.00000000000E+00  0.00000000000E+00  0.99976328805E+02  0.99976328805E+02  0.00000000000E+00 0.  1.
          1   -1    0    0  501    0  0.00000000000E+00 -0.00000000000E+00 -0.16156899267E+03  0.16156899267E+03  0.00000000000E+00 0. -1.
         25    2    1    2    0    0 -0.23473597781E+02 -0.34551827615E+02  0.19278150017E+02  0.13327956279E+03  0.12508779399E+03 0.  0.
          5    1    3    3  502    0 -0.24649794842E+02 -0.19804970286E+02 -0.51650008639E+02  0.60704571708E+02  0.41800000000E+01 0.  1.
         -5    1    3    3    0  502  0.11761970605E+01 -0.14746857329E+02  0.70928158656E+02  0.72574991085E+02  0.41800000000E+01 0.  1.
        -11    1    1    2    0    0  0.54937238161E+02  0.39304749584E+02 -0.58603789809E+02  0.89428002642E+02  0.00000000000E+00 0.  1.
         11    1    1    2    0    0 -0.31463640379E+02 -0.47529219693E+01 -0.22267024074E+02  0.38837756041E+02  0.00000000000E+00 0. -1.
</event>
<event>
 7    1  0.2719869E-009  0.1375644E+03  0.7561462E-02  0.1216644E+00
         -4   -1    0    0    0  501 -0.00000000000E+00  0.00000000000E+00  0.23885645887E+03  0.23885645887E+03  0.00000000000E+00 0.  1.
          4   -1    0    0  501    0  0.00000000000E+00 -0.00000000000E+00 -0.92176536496E+02  0.92176536496E+02  0.00000000000E+00 0. -1.
         25    2    1    2    0    0 -0.60489819645E+02 -0.72248149485E+02  0.76104907389E+02  0.17411346078E+03  0.12507888276E+03 0.  0.
          5    1    3    3  502    0 -0.75900983573E+02 -0.16952291306E+02 -0.10078433202E+01  0.77889842958E+02  0.41800000000E+01 0.  1.
         -5    1    3    3    0  502  0.15411163928E+02 -0.55295858180E+02  0.77112750709E+02  0.96223617825E+02  0.41800000000E+01 0.  1.
        -11    1    1    2    0    0 -0.29532926677E+02  0.17917160838E+02  0.23073489216E+02  0.41540393778E+02  0.00000000000E+00 0. -1.
         11    1    1    2    0    0  0.90022746322E+02  0.54330988647E+02  0.47501525771E+02  0.11537914081E+03  0.00000000000E+00 0.  1.
</event>
<event>
 7    1  0.2719869E-009  0.1082011E+03  0.7561462E-02  0.1263938E+00
          2   -1    0    0  501    0  0.00000000000E+00  0.00000000000E+00  0.24724784907E+03  0.24724784907E+03  0.00000000000E+00 0. -1.
         -2   -1    0    0    0  501 -0.00000000000E+00 -0.00000000000E+00 -0.54139348101E+02  0.54139348101E+02  0.00000000000E+00 0.  1.
         25    2    1    2    0    0 -0.26349803830E+02  0.11219687470E+02  0.10552612855E+03  0.16614337830E+03  0.12509062634E+03 0.  0.
          5    1    3    3  502    0  0.43033407065E+02  0.30970773764E+02  0.27782064317E+02  0.60003153658E+02  0.41800000000E+01 0.  1.
         -5    1    3    3    0  502 -0.69383210896E+02 -0.19751086294E+02  0.77744064229E+02  0.10614022464E+03  0.41800000000E+01 0.  1.
        -11    1    1    2    0    0  0.19424670712E+02 -0.48915312215E+02  0.17675165807E+02  0.55519699996E+02  0.00000000000E+00 0.  1.
         11    1    1    2    0    0  0.69251331183E+01  0.37695624745E+02  0.69907206617E+02  0.79724118876E+02  0.00000000000E+00 0. -1.
</event>
<event>
 7    1  0.2719869E-009  0.8038877E+02  0.7561462E-02  0.1327952E+00
         -2   -1    0    0    0  501 -0.00000000000E+00  0.00000000000E+00  0.90921450915E+02  0.90921450915E+02  0.00000000000E+00 0.  1.
          2   -1    0    0  501    0  0.00000000000E+00 -0.00000000000E+00 -0.17974269000E+03  0.17974269000E+03  0.00000000000E+00 0. -1.
         25    2    1    2    0    0 -0.43295325584E+02  0.13523113492E+02 -0.97116594959E+02  0.16474787319E+03  0.12511142588E+03 0.  0.
          5    1    3    3  502    0 -0.23305281917E+01 -0.79007509629E+01 -0.11472989440E+03  0.11510114811E+03  0.41800000000E+01 0. -1.
         -5    1    3    3    0  502 -0.40964797392E+02  0.21423864455E+02  0.17613299440E+02  0.49646725076E+02  0.41800000000E+01 0. -1.
        -11    1    1    2    0    0  0.11910683455E+02 -0.53209637840E+02  0.92779435208E+01  0.55310127241E+02  0.00000000000E+00 0. -1.
         11    1    1    2    0    0  0.31384642129E+02  0.39686524348E+02 -0.98258764388E+00  0.50606140486E+02  0.00000000000E+00 0.  1.
</event>
<event>
 7    1  0.2719869E-009  0.1499938E+03  0.7561462E-02  0.1200481E+00
         -1   -1    0    0    0  501 -0.00000000000E+00  0.00000000000E+00  0.10747558617E+03  0.10747558617E+03  0.00000000000E+00 0.  1.
          1   -1    0    0  501    0  0.00000000000E+00 -0.00000000000E+00 -0.26698398600E+03  0.26698398600E+03  0.00000000000E+00 0. -1.
         25    2    1    2    0    0 -0.98085290534E+02 -0.83212848844E+02 -0.10692699699E+03  0.20886362161E+03  0.12508208230E+03 0.  0.
          5    1    3    3  502    0 -0.86857372378E+01 -0.45898924291E+02 -0.10142454099E+03  0.11174329151E+03  0.41800000000E+01 0. -1.
         -5    1    3    3    0  502 -0.89399553296E+02 -0.37313924553E+02 -0.55024560013E+01  0.97120330092E+02  0.41800000000E+01 0. -1.
        -11    1    1    2    0    0  0.45735774091E+00  0.54302694271E+02 -0.26832515078E+02  0.60572069856E+02  0.00000000000E+00 0.  1.
         11    1    1    2    0    0  0.97627932793E+02  0.28910154573E+02 -0.25748887750E+02  0.10502388071E+03  0.00000000000E+00 0. -1.
</event>
<event>
 7    1  0.2719869E-009  0.1169550E+03  0.7561462E-02  0.1248207E+00
          1   -1    0    0  501    0  0.00000000000E+00  0.00000000000E+00  0.32471296961E+03  0.32471296961E+03  0.00000000000E+00 0. -1.
         -1   -1    0    0    0  501 -0.00000000000E+00 -0.00000000000E+00 -0.61002888721E+02  0.61002888721E+02  0.00000000000E+00 0.  1.
         25    2    1    2    0    0  0.85988718507E+02  0.12861324883E+02  0.16702388927E+03  0.22606214297E+03  0.12509052526E+03 0.  0.
          5    1    3    3  502    0  0.30488625616E+02  0.37340033391E+02  0.15719090123E+03  0.16446971215E+03  0.41800000000E+01 0. -1.
         -5    1    3    3    0  502  0.55500092890E+02 -0.24478708508E+02  0.98329880474E+01  0.61592430825E+02  0.41800000000E+01 0. -1.
        -11    1    1    2    0    0 -0.78388553036E+02  0.27938710089E+02  0.78291455448E+02  0.11425799213E+03  0.00000000000E+00 0. -1.
         11    1    1    2    0    0 -0.76001654702E+01 -0.40800034972E+02  0.18394736164E+02  0.45395723228E+02  0.00000000000E+00 0.  1.
</event>
<event>
 7    1  0.2719869E-009  0.1170282E+03  0.7561462E-02  0.1248082E+00
          1   -1    0    0  501    0  0.00000000000E+00  0.00000000000E+00  0.17039618714E+04  0.17039618714E+04  0.00000000000E+00 0. -1.
         -1   -1    0    0    0  501 -0.00000000000E+00 -0.00000000000E+00 -0.15208198319E+02  0.15208198319E+02  0.00000000000E+00 0.  1.
         25    2    1    2    0    0  0.59602949321E+02  0.30689523772E+01  0.14683369093E+04  0.14748636301E+04  0.12509004105E+03 0.  0.
          5    1    3    3  502    0  0.80793216779E+01  0.59957409456E+02  0.74049976896E+03  0.74297883322E+03  0.41800000000E+01 0. -1.
         -5    1    3    3    0  502  0.51523627643E+02 -0.56888457079E+02  0.72783714032E+03  0.73188479693E+03  0.41800000000E+01 0. -1.
        -11    1    1    2    0    0  0.57683729978E+01  0.24814941061E+02  0.11061822537E+03  0.11351408376E+03  0.00000000000E+00 0.  1.
         11    1    1    2    0    0 -0.65371322319E+02 -0.27883893439E+02  0.10979853842E+03  0.13079235579E+03  0.00000000000E+00 0. -1.
</event>
<event>
 7    1  0.2719869E-009  0.1518888E+03  0.7561462E-02  0.1198171E+00
          2   -1    0    0  501    0  0.00000000000E+00  0.00000000000E+00  0.14032980557E+04  0.14032980557E+04  0.00000000000E+00 0. -1.
         -2   -1    0    0    0  501 -0.00000000000E+00 -0.00000000000E+00 -0.19332576288E+02  0.19332576288E+02  0.00000000000E+00 0.  1.
         25    2    1    2    0    0 -0.59806491950E+02  0.91658806111E+02  0.99796351043E+03  0.10117098989E+04  0.12509036016E+03 0.  0.
          5    1    3    3  502    0 -0.74627425904E+02  0.48512583721E+01  0.55755837338E+03  0.56256697337E+03  0.41800000000E+01 0.  1.
         -5    1    3    3    0  502  0.14820933954E+02  0.86807547739E+02  0.44040513705E+03  0.44914292555E+03  0.41800000000E+01 0.  1.
        -11    1    1    2    0    0  0.82339115066E+02 -0.60117847726E+02  0.28935140114E+03  0.30678676443E+03  0.00000000000E+00 0. -1.
         11    1    1    2    0    0 -0.22532623116E+02 -0.31540958385E+02  0.96650567795E+02  0.10413396860E+03  0.00000000000E+00 0.  1.
</event>
<event>
 7    1  0.2719869E-009  0.1118831E+03  0.7561462E-02  0.1257122E+00
          2   -1    0    0  501    0  0.00000000000E+00  0.00000000000E+00  0.36397429512E+03  0.36397429512E+03  0.00000000000E+00 0. -1.
         -2   -1    0    0    0  501 -0.00000000000E+00 -0.00000000000E+00 -0.67661935785E+02  0.67661935785E+02  0.00000000000E+00 0.  1.
         25    2    1    2    0    0  0.34862923315E+02 -0.31019579732E+02  0.30150865942E+03  0.32974482213E+03  0.12508612339E+03 0.  0.
          5    1    3    3  502    0  0.48463268767E+02 -0.68350772518E+02  0.25493561148E+03  0.26838434180E+03  0.41800000000E+01 0.  1.
         -5    1    3    3    0  502 -0.13600345452E+02  0.37331192787E+02  0.46573047941E+02  0.61360480325E+02  0.41800000000E+01 0.  1.
        -11    1    1    2    0    0 -0.38588742489E+02 -0.23562464878E+02  0.72319399810E+01  0.45788445637E+02  0.00000000000E+00 0. -1.
         11    1    1    2    0    0  0.37258191734E+01  0.54582044610E+02 -0.12428240065E+02  0.56102963143E+02  0.00000000000E+00 0.  1.
</event>
<event>
 7    1  0.2719869E-009  0.1160952E+03  0.7561462E-02  0.1249681E+00
         -1   -1    0    0    0  501 -0.00000000000E+00  0.00000000000E+00  0.53209523302E+02  0.53209523302E+02  0.00000000000E+00 0.  1.
          1   -1    0    0  501    0  0.00000000000E+00 -0.00000000000E+00 -0.31313380541E+03  0.31313380541E+03  0.00000000000E+00 0. -1.
         25    2    1    2    0    0 -0.47213014307E+02  0.25463052086E+02 -0.20484866517E+03  0.24594121073E+03  0.12508664107E+03 0.  0.
          5    1    3    3  502    0  0.41803803119E+02  0.20767090833E+02 -0.70583103495E+02  0.84724712545E+02  0.41800000000E+01 0. -1.
         -5    1    3    3    0  502 -0.89016817426E+02  0.46959612533E+01 -0.13426556167E+03  0.16121649819E+03  0.41800000000E+01 0. -1.
        -11    1    1    2    0    0  0.51229795781E+02 -0.49785068087E+02 -0.62223285128E+02  0.94735327056E+02  0.00000000000E+00 0. -1.
         11    1    1    2    0    0 -0.40167814735E+01  0.24322016001E+02  0.71476681889E+01  0.25666790923E+02  0.00000000000E+00 0.  1.
</event>
<event>
 7    1  0.2719869E-009  0.9826226E+02  0.7561462E-02  0.1283993E+00
          1   -1    0    0  501    0  0.00000000000E+00  0.00000000000E+00  0.38392966136E+03  0.38392966136E+03  0.00000000000E+00 0. -1.
         -1   -1    0    0    0  501 -0.00000000000E+00 -0.00000000000E+00 -0.38350337529E+02  0.38350337529E+02  0.00000000000E+00 0.  1.
         25    2    1    2    0    0 -0.43988704268E+02  0.14259163148E+02  0.14949440849E+03  0.20033532953E+03  0.12508931310E+03 0.  0.
          5    1    3    3  502    0 -0.71624889624E+02 -0.27231046959E+02  0.58498861257E+02  0.96494786909E+02  0.41800000000E+01 0.  1.
         -5    1    3    3    0  502  0.27636185357E+02  0.41490210108E+02  0.90995547234E+02  0.10384054262E+03  0.41800000000E+01 0.  1.
        -11    1    1    2    0    0 -0.16920777710E+01  0.15269829942E+02 -0.29213803895E+01  0.15638583600E+02  0.00000000000E+00 0.  1.
         11    1    1    2    0    0  0.45680782039E+02 -0.29528993091E+02  0.19900629573E+03  0.20630608576E+03  0.00000000000E+00 0. -1.
</event>
<event>
 7    1  0.2719869E-009  0.1057592E+03  0.7561462E-02  0.1268631E+00
         -1   -1    0    0    0  501 -0.00000000000E+00  0.00000000000E+00  0.46510222772E+03  0.46510222772E+03  0.00000000000E+00 0.  1.
          1   -1    0    0  501    0  0.00000000000E+00 -0.00000000000E+00 -0.98103665815E+02  0.98103665815E+02  0.00000000000E+00 0. -1.
         25    2    1    2    0    0 -0.35230667308E+02  0.61236659258E+02  0.41326141860E+03  0.43751935663E+03  0.12508820474E+03 0.  0.
          5    1    3    3  502    0  0.90844308298E+00  0.92240879286E+02  0.31488709539E+03  0.32814716260E+03  0.41800000000E+01 0. -1.
         -5    1    3    3    0  502 -0.36139110391E+02 -0.31004220028E+02  0.98374323214E+02  0.10937219403E+03  0.41800000000E+01 0. -1.
        -11    1    1    2    0    0  0.14415338773E+02 -0.15721061177E+02 -0.67891784995E+02  0.71163531576E+02  0.00000000000E+00 0. -1.
         11    1    1    2    0    0  0.20815328535E+02 -0.45515598081E+02  0.21628928298E+02  0.54523005328E+02  0.00000000000E+00 0.  1.
</event>
<event>
 7    1  0.2719869E-009  0.1216951E+03  0.7561462E-02  0.1240327E+00
          3   -1    0    0  501    0  0.00000000000E+00  0.00000000000E+00  0.17634571705E+02  0.17634571705E+02  0.00000000000E+00 0. -1.
         -3   -1    0    0    0  501 -0.00000000000E+00 -0.00000000000E+00 -0.13479990871E+04  0.13479990871E+04  0.00000000000E+00 0.  1.
         25    2    1    2    0    0  0.59240885081E+02  0.68771961833E+02 -0.99147354233E+03  0.10034467077E+04  0.12508575009E+03 0.  0.
          5    1    3    3  502    0  0.15136524689E+02  0.70131585763E+02 -0.23663016558E+03  0.24730317702E+03  0.41800000000E+01 0.  1.
         -5    1    3    3    0  502  0.44104360393E+02 -0.13596239308E+01 -0.75484337675E+03  0.75614353069E+03  0.41800000000E+01 0.  1.
        -11    1    1    2    0    0 -0.25678905112E+02 -0.85803057952E+02 -0.25397071714E+03  0.26930038263E+03  0.00000000000E+00 0.  1.
         11    1    1    2    0    0 -0.33561979969E+02  0.17031096120E+02 -0.84920255951E+02  0.92886568487E+02  0.00000000000E+00 0. -1.
</event>
<event>
 7    1  0.2719869E-009  0.1362541E+03  0.7561462E-02  0.1218460E+00
          2   -1    0    0  501    0  0.00000000000E+00  0.00000000000E+00  0.66553260177E+03  0.66553260177E+03  0.00000000000E+00 0.  1.
         -2   -1    0    0    0  501 -0.00000000000E+00 -0.00000000000E+00 -0.30858362101E+02  0.30858362101E+02  0.00000000000E+00 0. -1.
         25    2    1    2    0    0  0.73673998004E+02  0.27957352327E+02  0.37684800703E+03  0.40481046998E+03  0.12509046595E+03 0.  0.
          5    1    3    3  502    0  0.66321627408E+02 -0.34459422899E+02  0.12959622402E+03  0.14966183137E+03  0.41800000000E+01 0. -1.
         -5    1    3    3    0  502  0.73523705964E+01  0.62416775227E+02  0.24725178301E+03  0.25514863861E+03  0.41800000000E+01 0. -1.
        -11    1    1    2    0    0 -0.56510509628E+02 -0.69582960896E+02  0.19116398501E+03  0.21113714811E+03  0.00000000000E+00 0.  1.
         11    1    1    2    0    0 -0.17163488377E+02  0.41625608569E+02  0.66662247623E+02  0.80443345779E+02  0.00000000000E+00 0. -1.
</event>
<event>
 7    1  0.2719869E-009  0.1151539E+03  0.7561462E-02  0.1251313E+00
          2   -1    0    0  501    0  0.00000000000E+00  0.00000000000E+00  0.25779784025E+03  0.25779784025E+03  0.00000000000E+00 0. -1.
         -2   -1    0    0    0  501 -0.00000000000E+00 -0.00000000000E+00 -0.66985193046E+02  0.66985193046E+02  0.00000000000E+00 0.  1.
         25    2    1    2    0    0 -0.36762520328E+02 -0.44257066472E+02  0.16624093439E+03  0.21585623362E+03  0.12509074504E+03 0.  0.
          5    1    3    3  502    0 -0.72856555635E+02 -0.48801050383E+02  0.15396468494E+03  0.17723491988E+03  0.41800000000E+01 0.  1.
         -5    1    3    3    0  502  0.36094035306E+02  0.45439839106E+01  0.12276249450E+02  0.38621313741E+02  0.41800000000E+01 0.  1.
        -11    1    1    2    0    0  0.26683700451E+02 -0.24609405058E+02  0.11764519177E+02  0.38158178658E+02  0.00000000000E+00 0. -1.
         11    1    1    2    0    0  0.10078819878E+02  0.68866471530E+02  0.12807193636E+02  0.70768621012E+02  0.00000000000E+00 0.  1.
</event>
<event>
 7    1  0.2719869E-009  0.1194287E+03  0.7561462E-02  0.1244042E+00
          1   -1    0    0  501    0  0.00000000000E+00  0.00000000000E+00  0.28073781086E+03  0.28073781086E+03  0.00000000000E+00 0. -1.
         -1   -1    0    0    0  501 -0.00000000000E+00 -0.00000000000E+00 -0.53293026767E+02  0.53293026767E+02  0.00000000000E+00 0.  1.
         25    2    1    2    0    0  0.17796023200E+02  0.53898894457E+02  0.12764425202E+03  0.18751656785E+03  0.12509044280E+03 0.  0.
          5    1    3    3  502    0 -0.48534976773E+02 -0.30264983042E+00  0.65389664915E+02  0.81541500139E+02  0.41800000000E+01 0.  1.
         -5    1    3    3    0  502  0.66330999973E+02  0.54201544287E+02  0.62254587108E+02  0.10597506771E+03  0.41800000000E+01 0.  1.
        -11    1    1    2    0    0  0.35153839566E+02 -0.30297954744E+02  0.27882086502E+02  0.54140273786E+02  0.00000000000E+00 0. -1.
         11    1    1    2    0    0 -0.52949862766E+02 -0.23600939713E+02  0.71918445570E+02  0.92373995992E+02  0.00000000000E+00 0.  1.
</event>
<event>
 7    1  0.2719869E-009  0.7211130E+02  0.7561462E-02  0.1353057E+00
         -2   -1    0    0    0  501 -0.00000000000E+00  0.00000000000E+00  0.12099668693E+03  0.12099668693E+03  0.00000000000E+00 0.  1.
          2   -1    0    0  501    0  0.00000000000E+00 -0.00000000000E+00 -0.11950357772E+03  0.11950357772E+03  0.00000000000E+00 0. -1.
         25    2    1    2    0    0 -0.13227551904E+02  0.39401800646E+02  0.33638163815E+02  0.13603964358E+03  0.12509112093E+03 0.  0.
          5    1    3    3  502    0 -0.41731594273E+02  0.22391683535E+02 -0.35431414009E+02  0.59293936881E+02  0.41800000000E+01 0.  1.
         -5    1    3    3    0  502  0.28504042370E+02  0.17010117110E+02  0.69069577824E+02  0.76745706696E+02  0.41800000000E+01 0.  1.
        -11    1    1    2    0    0  0.10122895862E+02  0.97019199688E+01 -0.50145945778E+02  0.52069339824E+02  0.00000000000E+00 0. -1.
         11    1    1    2    0    0  0.31046560417E+01 -0.49103720614E+02  0.18000891174E+02  0.52391281244E+02  0.00000000000E+00 0.  1.
</event>
<event>
 7    1  0.2719869E-009  0.1202800E+03  0.7561462E-02  0.1242636E+00
          2   -1    0    0  501    0  0.00000000000E+00  0.00000000000E+00  0.44018136897E+03  0.44018136897E+03  0.00000000000E+00 0. -1.
         -2   -1    0    0    0  501 -0.00000000000E+00 -0.00000000000E+00 -0.54631632413E+02  0.54631632413E+02  0.00000000000E+00 0.  1.
         25    2    1    2    0    0 -0.10510628580E+03  0.16311357149E+02  0.25195448206E+03  0.30073578382E+03  0.12509020328E+03 0.  0.
          5    1    3    3  502    0 -0.73648482023E+02  0.24895468239E+02  0.25603351494E+03  0.26760888703E+03  0.41800000000E+01 0.  1.
         -5    1    3    3    0  502 -0.31457803781E+02 -0.85841110892E+01 -0.40790328855E+01  0.33126896794E+02  0.41800000000E+01 0.  1.
        -11    1    1    2    0    0  0.36370474768E+02  0.29834186927E+02  0.87442047594E+02  0.99292506424E+02  0.00000000000E+00 0.  1.
         11    1    1    2    0    0  0.68735811036E+02 -0.46145544076E+02  0.46153206899E+02  0.94784711130E+02  0.00000000000E+00 0. -1.
</event>
<event>
 7    1  0.2719869E-009  0.1431103E+03  0.7561462E-02  0.1209204E+00
         -2   -1    0    0    0  501 -0.00000000000E+00  0.00000000000E+00  0.45538828890E+03  0.45538828890E+03  0.00000000000E+00 0. -1.
          2   -1    0    0  501    0  0.00000000000E+00 -0.00000000000E+00 -0.90908950381E+02  0.90908950381E+02  0.00000000000E+00 0.  1.
         25    2    1    2    0    0  0.13084250985E+03  0.51288282384E+02  0.54709434905E+02  0.19593630516E+03  0.12509061963E+03 0.  0.
          5    1    3    3  502    0  0.28640812369E+02  0.50915664452E+01  0.76191987338E+02  0.81663403778E+02  0.41800000000E+01 0.  1.
         -5    1    3    3    0  502  0.10220169748E+03  0.46196715939E+02 -0.21482552433E+02  0.11427290138E+03  0.41800000000E+01 0.  1.
        -11    1    1    2    0    0 -0.86638427759E+02 -0.16156594721E+02  0.10079121343E+03  0.13388846635E+03  0.00000000000E+00 0.  1.
         11    1    1    2    0    0 -0.44204082089E+02 -0.35131687663E+02  0.20897869018E+03  0.21647246777E+03  0.00000000000E+00 0. -1.
</event>
<event>
 7    1  0.2719869E-009  0.1065330E+03  0.7561462E-02  0.1267128E+00
         -1   -1    0    0    0  501 -0.00000000000E+00  0.00000000000E+00  0.38850567886E+02  0.38850567886E+02  0.00000000000E+00 0.  1.
          1   -1    0    0  501    0  0.00000000000E+00 -0.00000000000E+00 -0.31635909881E+03  0.31635909881E+03  0.00000000000E+00 0. -1.
         25    2    1    2    0    0  0.87028199566E+01 -0.16497555115E+02 -0.16653456937E+03  0.20911390246E+03  0.12508778120E+03 0.  0.
          5    1    3    3  502    0  0.20441999244E+02  0.50988075410E+02 -0.52980558764E+02  0.76433442772E+02  0.41800000000E+01 0. -1.
         -5    1    3    3    0  502 -0.11739179287E+02 -0.67485630525E+02 -0.11355401060E+03  0.13268045968E+03  0.41800000000E+01 0. -1.
        -11    1    1    2    0    0 -0.32869603813E+02  0.42579417777E+02 -0.41100104078E+02  0.67695171381E+02  0.00000000000E+00 0.  1.
         11    1    1    2    0    0  0.24166783856E+02 -0.26081862662E+02 -0.69873857475E+02  0.78400592857E+02  0.00000000000E+00 0. -1.
</event>
<event>
 7    1  0.2719869E-009  0.1472382E+03  0.7561462E-02  0.1203908E+00
          1   -1    0    0  501    0  0.00000000000E+00  0.00000000000E+00  0.74810581044E+03  0.74810581044E+03  0.00000000000E+00 0. -1.
         -1   -1    0    0    0  501 -0.00000000000E+00 -0.00000000000E+00 -0.40375200729E+02  0.40375200729E+02  0.00000000000E+00 0.  1.
         25    2    1    2    0    0 -0.80125306934E+02 -0.10144154961E+03  0.30753934730E+03  0.35628391532E+03  0.12508926966E+03 0.  0.
          5    1    3    3  502    0 -0.68934905484E+01 -0.32782789911E+02  0.10814700191E+01  0.33776819029E+02  0.41800000000E+01 0.  1.
         -5    1    3    3    0  502 -0.73231816386E+02 -0.68658759696E+02  0.30645787728E+03  0.32250709629E+03  0.41800000000E+01 0.  1.
        -11    1    1    2    0    0  0.30964451395E+02  0.10642047569E+03  0.31207546937E+03  0.33117248298E+03  0.00000000000E+00 0.  1.
         11    1    1    2    0    0  0.49160855539E+02 -0.49789260883E+01  0.88115793047E+02  0.10102461288E+03  0.00000000000E+00 0. -1.
</event>
<event>
 7    1  0.2719869E-009  0.9278765E+02  0.7561462E-02  0.1296238E+00
          1   -1    0    0  501    0  0.00000000000E+00  0.00000000000E+00  0.29749020390E+03  0.29749020390E+03  0.00000000000E+00 0. -1.
         -1   -1    0    0    0  501 -0.00000000000E+00 -0.00000000000E+00 -0.41829357482E+02  0.41829357482E+02  0.00000000000E+00 0.  1.
         25    2    1    2    0    0 -0.11603262082E+02 -0.10439671012E+02  0.13881406785E+03  0.18750848841E+03  0.12508583202E+03 0.  0.
          5    1    3    3  502    0 -0.53857425924E+02  0.24112604661E+02  0.11174828784E+03  0.12644046926E+03  0.41800000000E+01 0. -1.
         -5    1    3    3    0  502  0.42254163841E+02 -0.34552275672E+02  0.27065780010E+02  0.61068019156E+02  0.41800000000E+01 0. -1.
        -11    1    1    2    0    0  0.88540458422E+01 -0.29930380307E+02  0.34396805050E+01  0.31401483963E+02  0.00000000000E+00 0.  1.
         11    1    1    2    0    0  0.27492162398E+01  0.40370051319E+02  0.11340709807E+03  0.12040958901E+03  0.00000000000E+00 0. -1.
</event>
<event>
 7    1  0.2719869E-009  0.1047698E+03  0.7561462E-02  0.1270574E+00
          3   -1    0    0  501    0  0.00000000000E+00  0.00000000000E+00  0.73798000351E+02  0.73798000351E+02  0.00000000000E+00 0. -1.
         -3   -1    0    0    0  501 -0.00000000000E+00 -0.00000000000E+00 -0.16755947921E+03  0.16755947921E+03  0.00000000000E+00 0.  1.
         25    2    1    2    0    0  0.18782106011E+02 -0.12185217522E+02 -0.31508930435E+02  0.13092515204E+03  0.12508931092E+03 0.  0.
          5    1    3    3  502    0  0.16242209945E+02 -0.65406545628E+02  0.25134991457E+01  0.67569339739E+02  0.41800000000E+01 0.  1.
         -5    1    3    3    0  502  0.25398960655E+01  0.53221328106E+02 -0.34022429581E+02  0.63355812298E+02  0.41800000000E+01 0.  1.
        -11    1    1    2    0    0 -0.20639706422E+02  0.48239370237E+02 -0.49529449049E+02  0.72154006439E+02  0.00000000000E+00 0.  1.
         11    1    1    2    0    0  0.18576004117E+01 -0.36054152715E+02 -0.12723099374E+02  0.38278321084E+02  0.00000000000E+00 0. -1.
</event>
<event>
 7    1  0.2719869E-009  0.9644312E+02  0.7561462E-02  0.1287959E+00
          1   -1    0    0  501    0  0.00000000000E+00  0.00000000000E+00  0.82343049892E+02  0.82343049892E+02  0.00000000000E+00 0. -1.
         -1   -1    0    0    0  501 -0.00000000000E+00 -0.00000000000E+00 -0.17077883868E+03  0.17077883868E+03  0.00000000000E+00 0.  1.
         25    2    1    2    0    0  0.38023482428E+02  0.36002277329E+01 -0.82920320940E+02  0.15486304681E+03  0.12509211321E+03 0.  0.
          5    1    3    3  502    0 -0.40866880897E+02  0.22033757644E+02 -0.46822077576E+02  0.66070929906E+02  0.41800000000E+01 0. -1.
         -5    1    3    3    0  502  0.78890363325E+02 -0.18433529911E+02 -0.36098243364E+02  0.88792116905E+02  0.41800000000E+01 0. -1.
        -11    1    1    2    0    0 -0.84027526269E+01  0.23526345592E+02 -0.38764697407E+02  0.46117208867E+02  0.00000000000E+00 0.  1.
         11    1    1    2    0    0 -0.29620729801E+02 -0.27126573325E+02  0.33249229560E+02  0.52141632892E+02  0.00000000000E+00 0. -1.
</event>
<event>
 7    1  0.2719869E-009  0.1401907E+03  0.7561462E-02  0.1213073E+00
          1   -1    0    0  501    0  0.00000000000E+00  0.00000000000E+00  0.35166918042E+02  0.35166918042E+02  0.00000000000E+00 0. -1.
         -1   -1    0    0    0  501 -0.00000000000E+00 -0.00000000000E+00 -0.86151937306E+03  0.86151937306E+03  0.00000000000E+00 0.  1.
         25    2    1    2    0    0  0.91019004686E+02 -0.81731475275E+02 -0.28050526898E+03  0.33059846224E+03  0.12509054337E+03 0.  0.
          5    1    3    3  502    0  0.87858994617E+02 -0.10140426571E+03 -0.16214756980E+03  0.21050257678E+03  0.41800000000E+01 0. -1.
         -5    1    3    3    0  502  0.31600100687E+01  0.19672790437E+02 -0.11835769918E+03  0.12009588545E+03  0.41800000000E+01 0. -1.
        -11    1    1    2    0    0 -0.29022627496E+02  0.93684871632E+01 -0.34971103087E+02  0.46401072290E+02  0.00000000000E+00 0. -1.
         11    1    1    2    0    0 -0.61996377190E+02  0.72362988112E+02 -0.51087608295E+03  0.51968675658E+03  0.00000000000E+00 0.  1.
</event>
<event>
 7    1  0.2719869E-009  0.1219136E+03  0.7561462E-02  0.1239973E+00
          2   -1    0    0  501    0  0.00000000000E+00  0.00000000000E+00  0.16421677386E+03  0.16421677386E+03  0.00000000000E+00 0.  1.
         -2   -1    0    0    0  501 -0.00000000000E+00 -0.00000000000E+00 -0.98375146594E+02  0.98375146594E+02  0.00000000000E+00 0. -1.
         25    2    1    2    0    0  0.57843060635E+02 -0.31318472134E+02  0.34603159606E+02  0.14550458248E+03  0.12509012154E+03 0.  0.
          5    1    3    3  502    0  0.84673085253E+02  0.73849625576E+01 -0.29166143024E+01  0.85147214148E+02  0.41800000000E+01 0. -1.
         -5    1    3    3    0  502 -0.26830024618E+02 -0.38703434691E+02  0.37519773908E+02  0.60357368332E+02  0.41800000000E+01 0. -1.
        -11    1    1    2    0    0  0.17854035753E+02  0.30976395780E+02  0.15848588630E+01  0.35788482306E+02  0.00000000000E+00 0. -1.
         11    1    1    2    0    0 -0.75697096388E+02  0.34207635388E+00  0.29653608794E+02  0.81298855664E+02  0.00000000000E+00 0.  1.
</event>
<event>
 7    1  0.2719869E-009  0.1210789E+03  0.7561462E-02  0.1241328E+00
         -1   -1    0    0    0  501 -0.00000000000E+00  0.00000000000E+00  0.43188490582E+02  0.43188490582E+02  0.00000000000E+00 0.  1.
          1   -1    0    0  501    0  0.00000000000E+00 -0.00000000000E+00 -0.44764307105E+03  0.44764307105E+03  0.00000000000E+00 0. -1.
         25    2    1    2    0    0 -0.48986428679E+02 -0.46917572322E+02 -0.31909288968E+03  0.34938243314E+03  0.12508750360E+03 0.  0.
          5    1    3    3  502    0 -0.26691326891E+02  0.36867917926E+02 -0.17758944203E+03  0.18337707769E+03  0.41800000000E+01 0. -1.
         -5    1    3    3    0  502 -0.22295101788E+02 -0.83785490248E+02 -0.14150344765E+03  0.16600535545E+03  0.41800000000E+01 0. -1.
        -11    1    1    2    0    0  0.14417156268E+02  0.67763873786E+02 -0.69334239441E+02  0.98015477065E+02  0.00000000000E+00 0.  1.
         11    1    1    2    0    0  0.34569272411E+02 -0.20846301464E+02 -0.16027451351E+02  0.43433651431E+02  0.00000000000E+00 0. -1.
</event>
<event>
 7    1  0.2719869E-009  0.1363452E+03  0.7561462E-02  0.1218333E+00
         -2   -1    0    0    0  501 -0.00000000000E+00  0.00000000000E+00  0.10696122927E+03  0.10696122927E+03  0.00000000000E+00 0. -1.
          2   -1    0    0  501    0  0.00000000000E+00 -0.00000000000E+00 -0.19828927497E+03  0.19828927497E+03  0.00000000000E+00 0.  1.
         25    2    1    2    0    0  0.68377466905E+02 -0.65604477953E+02 -0.30168272253E+02  0.15979742507E+03  0.12508264028E+03 0.  0.
          5    1    3    3  502    0  0.93519591971E+02 -0.67134468144E+02 -0.51823783216E+02  0.12631756727E+03  0.41800000000E+01 0.  1.
         -5    1    3    3    0  502 -0.25142125066E+02  0.15299901911E+01  0.21655510963E+02  0.33479857794E+02  0.41800000000E+01 0.  1.
        -11    1    1    2    0    0  0.22617808972E+02  0.19925739182E+02 -0.13218671204E+02  0.32914033983E+02  0.00000000000E+00 0. -1.
         11    1    1    2    0    0 -0.90995275877E+02  0.45678738771E+02 -0.47941102239E+02  0.11253904519E+03  0.00000000000E+00 0.  1.
</event>
<event>
 7    1  0.2719869E-009  0.1023267E+03  0.7561462E-02  0.1275478E+00
          2   -1    0    0  501    0  0.00000000000E+00  0.00000000000E+00  0.26825875543E+03  0.26825875543E+03  0.00000000000E+00 0. -1.
         -2   -1    0    0    0  501 -0.00000000000E+00 -0.00000000000E+00 -0.69446181910E+02  0.69446181910E+02  0.00000000000E+00 0.  1.
         25    2    1    2    0    0 -0.48488366505E+01 -0.81012977735E+02  0.13366340628E+03  0.20025340038E+03  0.12509558109E+03 0.  0.
          5    1    3    3  502    0 -0.18025139297E+02  0.41091017141E+01  0.10889146870E+03  0.11052879588E+03  0.41800000000E+01 0. -1.
         -5    1    3    3    0  502  0.13176302646E+02 -0.85122079449E+02  0.24771937579E+02  0.89724604499E+02  0.41800000000E+01 0. -1.
        -11    1    1    2    0    0  0.95856455055E+01 -0.66529382444E+01  0.46180730674E+02  0.47631985814E+02  0.00000000000E+00 0. -1.
         11    1    1    2    0    0 -0.47368088550E+01  0.87665915979E+02  0.18968436571E+02  0.89819551149E+02  0.00000000000E+00 0.  1.
</event>
<event>
 7    1  0.2719869E-009  0.1556390E+03  0.7561462E-02  0.1193710E+00
         -1   -1    0    0    0  501 -0.00000000000E+00  0.00000000000E+00  0.40753878299E+03  0.40753878299E+03  0.00000000000E+00 0.  1.
          1   -1    0    0  501    0  0.00000000000E+00 -0.00000000000E+00 -0.91792194842E+02  0.91792194842E+02  0.00000000000E+00 0. -1.
         25    2    1    2    0    0 -0.15391514765E+03 -0.10240811179E+02  0.11045905799E+03  0.22725355863E+03  0.12509288362E+03 0.  0.
          5    1    3    3  502    0 -0.95199032651E+02 -0.62561842184E+01  0.13330888792E+03  0.16398392500E+03  0.41800000000E+01 0.  1.
         -5    1    3    3    0  502 -0.58716114996E+02 -0.39846269604E+01 -0.22849829936E+02  0.63269633635E+02  0.41800000000E+01 0.  1.
        -11    1    1    2    0    0  0.10109138322E+03  0.20037879961E+02  0.19011497725E+03  0.21625144848E+03  0.00000000000E+00 0.  1.
         11    1    1    2    0    0  0.52823764429E+02 -0.97970687820E+01  0.15172552912E+02  0.55825970721E+02  0.00000000000E+00 0. -1.
</event>
<event>
 7    1  0.2719869E-009  0.1054025E+03  0.7561462E-02  0.1269329E+00
         -1   -1    0    0    0  501 -0.00000000000E+00  0.00000000000E+00  0.25662465309E+02  0.25662465309E+02  0.00000000000E+00 0.  1.
          1   -1    0    0  501    0  0.00000000000E+00 -0.00000000000E+00 -0.66952522151E+03  0.66952522151E+03  0.00000000000E+00 0. -1.
         25    2    1    2    0    0 -0.50149352328E+02  0.50425059703E+02 -0.37452344389E+03  0.40121376242E+03  0.12508808476E+03 0.  0.
          5    1    3    3  502    0 -0.73194955494E+02 -0.83436908421E+01 -0.26125606094E+03  0.27147618766E+03  0.41800000000E+01 0. -1.
         -5    1    3    3    0  502  0.23045603166E+02  0.58768750546E+02 -0.11326738295E+03  0.12973757476E+03  0.41800000000E+01 0. -1.
        -11    1    1    2    0    0  0.28224211543E+02 -0.41259674022E+02 -0.26517780212E+03  0.26984853818E+03  0.00000000000E+00 0. -1.
         11    1    1    2    0    0  0.21925140785E+02 -0.91653856814E+01 -0.41615101880E+01  0.24125386218E+02  0.00000000000E+00 0.  1.
</event>
<event>
 7    1  0.2719869E-009  0.1234246E+03  0.7561462E-02  0.1237552E+00
         -2   -1    0    0    0  501 -0.00000000000E+00  0.00000000000E+00  0.39322946708E+02  0.39322946708E+02  0.00000000000E+00 0.  1.
          2   -1    0    0  501    0  0.00000000000E+00 -0.00000000000E+00 -0.40606786975E+03  0.40606786975E+03  0.00000000000E+00 0. -1.
         25    2    1    2    0    0  0.25969441131E+02  0.53990089505E+02 -0.16197825619E+03  0.21322021055E+03  0.12504623575E+03 0.  0.
          5    1    3    3  502    0  0.76098854541E+02  0.30622619636E+02 -0.83560886722E+02  0.11716942726E+03  0.41800000000E+01 0.  1.
         -5    1    3    3    0  502 -0.50129413410E+02  0.23367469869E+02 -0.78417369463E+02  0.96050783289E+02  0.41800000000E+01 0.  1.
        -11    1    1    2    0    0  0.16566103880E+02 -0.63530947899E+02 -0.11652592142E+03  0.13374942057E+03  0.00000000000E+00 0.  1.
         11    1    1    2    0    0 -0.42535545011E+02  0.95408583945E+01 -0.88240745438E+02  0.98421185340E+02  0.00000000000E+00 0. -1.
</event>
<event>
 7    1  0.2719869E-009  0.1363263E+03  0.7561462E-02  0.1218359E+00
         -1   -1    0    0    0  501 -0.00000000000E+00  0.00000000000E+00  0.52933356744E+02  0.52933356744E+02  0.00000000000E+00 0.  1.
          1   -1    0    0  501    0  0.00000000000E+00 -0.00000000000E+00 -0.48969324742E+03  0.48969324742E+03  0.00000000000E+00 0. -1.
         25    2    1    2    0    0 -0.10932247782E+03 -0.43628186460E+02 -0.25989448151E+03  0.31152486722E+03  0.12509108108E+03 0.  0.
          5    1    3    3  502    0 -0.77387165099E+02 -0.53763019210E+02 -0.66997673689E+02  0.11569527318E+03  0.41800000000E+01 0.  1.
         -5    1    3    3    0  502 -0.31935312724E+02  0.10134832750E+02 -0.19289680782E+03  0.19582959404E+03  0.41800000000E+01 0.  1.
        -11    1    1    2    0    0  0.20002297211E+02  0.51157321298E+02 -0.94842878176E+02  0.10960079816E+03  0.00000000000E+00 0. -1.
         11    1    1    2    0    0  0.89320180612E+02 -0.75291348374E+01 -0.82022530989E+02  0.12150093879E+03  0.00000000000E+00 0.  1.
</event>
<event>
 7    1  0.2719869E-009  0.7484681E+02  0.7561462E-02  0.1344346E+00
         -1   -1    0    0    0  501 -0.00000000000E+00  0.00000000000E+00  0.22009859310E+03  0.22009859310E+03  0.00000000000E+00 0.  1.
          1   -1    0    0  501    0  0.00000000000E+00 -0.00000000000E+00 -0.63899581340E+02  0.63899581340E+02  0.00000000000E+00 0. -1.
         25    2    1    2    0    0 -0.39165301091E+02  0.24915716926E+02  0.10340998045E+03  0.16880656078E+03  0.12508923673E+03 0.  0.
          5    1    3    3  502    0  0.24811516414E+00  0.22218493875E+02  0.12261474266E+03  0.12468187738E+03  0.41800000000E+01 0.  1.
         -5    1    3    3    0  502 -0.39413416255E+02  0.26972230509E+01 -0.19204762211E+02  0.44124683394E+02  0.41800000000E+01 0.  1.
        -11    1    1    2    0    0 -0.13497306659E+02 -0.31514686521E+02 -0.72659124011E+01  0.35044917415E+02  0.00000000000E+00 0.  1.
         11    1    1    2    0    0  0.52662607750E+02  0.65989695954E+01  0.60054943713E+02  0.80146696245E+02  0.00000000000E+00 0. -1.
</event>
<event>
 7    1  0.2719869E-009  0.1297156E+03  0.7561462E-02  0.1227878E+00
          1   -1    0    0  501    0  0.00000000000E+00  0.00000000000E+00  0.12079999015E+04  0.12079999015E+04  0.00000000000E+00 0. -1.
         -1   -1    0    0    0  501 -0.00000000000E+00 -0.00000000000E+00 -0.16444303837E+02  0.16444303837E+02  0.00000000000E+00 0.  1.
         25    2    1    2    0    0  0.24390281132E+01  0.90225584673E+02  0.67478454337E+03  0.69218819928E+03  0.12507485066E+03 0.  0.
          5    1    3    3  502    0  0.28659636434E+02  0.10136318705E+03  0.33522817575E+03  0.35141325055E+03  0.41800000000E+01 0. -1.
         -5    1    3    3    0  502 -0.26220608321E+02 -0.11137602381E+02  0.33955636762E+03  0.34077494872E+03  0.41800000000E+01 0. -1.
        -11    1    1    2    0    0  0.93766722326E+01  0.15888219061E+02  0.46703377134E+02  0.50215166263E+02  0.00000000000E+00 0.  1.
         11    1    1    2    0    0 -0.11815700346E+02 -0.10611380373E+03  0.47006767716E+03  0.48204083979E+03  0.00000000000E+00 0. -1.
</event>
<event>
 7    1  0.2719869E-009  0.1030119E+03  0.7561462E-02  0.1274087E+00
          2   -1    0    0  501    0  0.00000000000E+00  0.00000000000E+00  0.12966832602E+03  0.12966832602E+03  0.00000000000E+00 0. -1.
         -2   -1    0    0    0  501 -0.00000000000E+00 -0.00000000000E+00 -0.10486684551E+03  0.10486684551E+03  0.00000000000E+00 0.  1.
         25    2    1    2    0    0  0.21461141573E+02  0.33812422612E+02  0.30995646941E+02  0.13495224634E+03  0.12509004014E+03 0.  0.
          5    1    3    3  502    0  0.16105012819E+02  0.79585086447E+02  0.34971036619E+02  0.88507645008E+02  0.41800000000E+01 0. -1.
         -5    1    3    3    0  502  0.53561287536E+01 -0.45772663835E+02 -0.39753896774E+01  0.46444601332E+02  0.41800000000E+01 0. -1.
        -11    1    1    2    0    0 -0.50385958226E+01  0.20807332758E+02  0.26322676815E+02  0.33929572044E+02  0.00000000000E+00 0. -1.
         11    1    1    2    0    0 -0.16422545750E+02 -0.54619755370E+02 -0.32516843244E+02  0.65653353153E+02  0.00000000000E+00 0.  1.
</event>
<event>
 7    1  0.2719869E-009  0.1225700E+03  0.7561462E-02  0.1238917E+00
         -2   -1    0    0    0  501 -0.00000000000E+00  0.00000000000E+00  0.15404784047E+02  0.15404784047E+02  0.00000000000E+00 0.  1.
          2   -1    0    0  501    0  0.00000000000E+00 -0.00000000000E+00 -0.28267385871E+04  0.28267385871E+04  0.00000000000E+00 0. -1.
         25    2    1    2    0    0  0.76159677998E+02 -0.36070625792E+02 -0.25334281885E+04  0.25379133651E+04  0.12507787979E+03 0.  0.
          5    1    3    3  502    0  0.45110030225E+01  0.35193449730E+02 -0.28785583910E+03  0.29006444897E+03  0.41800000000E+01 0. -1.
         -5    1    3    3    0  502  0.71648674976E+02 -0.71264075522E+02 -0.22455723494E+04  0.22478489162E+04  0.41800000000E+01 0. -1.
        -11    1    1    2    0    0 -0.28612988258E+02  0.50964243996E+02 -0.22098272683E+03  0.22858132649E+03  0.00000000000E+00 0.  1.
         11    1    1    2    0    0 -0.47546689740E+02 -0.14893618204E+02 -0.56922887743E+02  0.75648679548E+02  0.00000000000E+00 0. -1.
</event>
<event>
 7    1  0.2719869E-009  0.1661701E+03  0.7561462E-02  0.1181902E+00
         -1   -1    0    0    0  501 -0.00000000000E+00  0.00000000000E+00  0.14101796554E+03  0.14101796554E+03  0.00000000000E+00 0.  1.
          1   -1    0    0  501    0  0.00000000000E+00 -0.00000000000E+00 -0.30995605248E+03  0.30995605248E+03  0.00000000000E+00 0. -1.
         25    2    1    2    0    0 -0.91373954264E+02  0.13041908903E+03 -0.57109877974E+01  0.20257919208E+03  0.12508946950E+03 0.  0.
          5    1    3    3  502    0 -0.14916493265E+02  0.78834735795E+02  0.50111191705E+02  0.94689076842E+02  0.41800000000E+01 0. -1.
         -5    1    3    3    0  502 -0.76457460999E+02  0.51584353232E+02 -0.55822179502E+02  0.10789011523E+03  0.41800000000E+01 0. -1.
        -11    1    1    2    0    0  0.63192563184E+02 -0.99162879756E+02 -0.50323091325E+02  0.12790226849E+03  0.00000000000E+00 0.  1.
         11    1    1    2    0    0  0.28181391080E+02 -0.31256209271E+02 -0.11290400782E+03  0.12049255746E+03  0.00000000000E+00 0. -1.
</event>
<event>
 7    1  0.2719869E-009  0.9325961E+02  0.7561462E-02  0.1295145E+00
         -1   -1    0    0    0  501 -0.00000000000E+00  0.00000000000E+00  0.12978818999E+03  0.12978818999E+03  0.00000000000E+00 0.  1.
          1   -1    0    0  501    0  0.00000000000E+00 -0.00000000000E+00 -0.89899496319E+02  0.89899496319E+02  0.00000000000E+00 0. -1.
         25    2    1    2    0    0  0.68552462553E+01 -0.29443363907E+02  0.49294072118E+01  0.12878565900E+03  0.12509013083E+03 0.  0.
          5    1    3    3  502    0 -0.11821178344E+02  0.37666820530E+02  0.34879097075E+02  0.52844615989E+02  0.41800000000E+01 0.  1.
         -5    1    3    3    0  502  0.18676424599E+02 -0.67110184437E+02 -0.29949689863E+02  0.75941043013E+02  0.41800000000E+01 0.  1.
        -11    1    1    2    0    0 -0.48676749104E+01 -0.23527817408E+02  0.28847513651E+02  0.37542395967E+02  0.00000000000E+00 0.  1.
         11    1    1    2    0    0 -0.19875713449E+01  0.52971181315E+02  0.61117728062E+01  0.53359631339E+02  0.00000000000E+00 0. -1.
</event>
<event>
 7    1  0.2719869E-009  0.1016675E+03  0.7561462E-02  0.1276828E+00
          2   -1    0    0  501    0  0.00000000000E+00  0.00000000000E+00  0.18769675705E+02  0.18769675705E+02  0.00000000000E+00 0.  1.
         -2   -1    0    0    0  501 -0.00000000000E+00 -0.00000000000E+00 -0.76811541683E+03  0.76811541683E+03  0.00000000000E+00 0. -1.
         25    2    1    2    0    0 -0.22842664752E+02  0.26833804652E+01 -0.55918386171E+03  0.57346536061E+03  0.12508773222E+03 0.  0.
          5    1    3    3  502    0 -0.61300909038E+02  0.36515930154E+02 -0.24909655340E+03  0.25914818139E+03  0.41800000000E+01 0.  1.
         -5    1    3    3    0  502  0.38458244286E+02 -0.33832549688E+02 -0.31008730831E+03  0.31431717921E+03  0.41800000000E+01 0.  1.
        -11    1    1    2    0    0  0.25568161803E+02 -0.37586476478E+02 -0.44515181598E+02  0.63624488247E+02  0.00000000000E+00 0.  1.
         11    1    1    2    0    0 -0.27254970515E+01  0.34903096012E+02 -0.14564669782E+03  0.14979524369E+03  0.00000000000E+00 0. -1.
</event>
<event>
 7    1  0.2719869E-009  0.2317362E+03  0.7561462E-02  0.1125424E+00
          2   -1    0    0  501    0  0.00000000000E+00  0.00000000000E+00  0.25404354087E+04  0.25404354087E+04  0.00000000000E+00 0. -1.
         -2   -1    0    0    0  501 -0.00000000000E+00 -0.00000000000E+00 -0.49078524611E+02  0.49078524611E+02  0.00000000000E+00 0.  1.
         25    2    1    2    0    0 -0.11505889040E+03  0.19685937549E+03  0.21676192176E+04  0.21831656930E+04  0.12508880295E+03 0.  0.
          5    1    3    3  502    0 -0.53373146556E+02  0.82133112798E+02  0.44736938439E+03  0.45798622193E+03  0.41800000000E+01 0.  1.
         -5    1    3    3    0  502 -0.61685743839E+02  0.11472626269E+03  0.17202498332E+04  0.17251794710E+04  0.41800000000E+01 0.  1.
        -11    1    1    2    0    0  0.60525683493E+02 -0.50194814409E+02  0.16844360633E+03  0.18589278165E+03  0.00000000000E+00 0. -1.
         11    1    1    2    0    0  0.54533206903E+02 -0.14666456108E+03  0.15529406016E+03  0.22045545866E+03  0.00000000000E+00 0.  1.
</event>
<event>
 7    1  0.2719869E-009  0.2816692E+03  0.7561462E-02  0.1094781E+00
         -2   -1    0    0    0  501 -0.00000000000E+00  0.00000000000E+00  0.45668179672E+03  0.45668179672E+03  0.00000000000E+00 0.  1.
          2   -1    0    0  501    0  0.00000000000E+00 -0.00000000000E+00 -0.18349488362E+03  0.18349488362E+03  0.00000000000E+00 0. -1.
         25    2    1    2    0    0 -0.16250421073E+03  0.21320827507E+03  0.14493231952E+03  0.32941874110E+03  0.12508374268E+03 0.  0.
          5    1    3    3  502    0 -0.12732819513E+03  0.71546057586E+02  0.46564108824E+02  0.15335252284E+03  0.41800000000E+01 0. -1.
         -5    1    3    3    0  502 -0.35176015597E+02  0.14166221748E+03  0.98368210693E+02  0.17606621826E+03  0.41800000000E+01 0. -1.
        -11    1    1    2    0    0  0.65006433728E+01 -0.29426641900E+02  0.48014657039E+02  0.56688560648E+02  0.00000000000E+00 0.  1.
         11    1    1    2    0    0  0.15600356736E+03 -0.18378163317E+03  0.80239936548E+02  0.25406937859E+03  0.00000000000E+00 0. -1.
</event>
<event>
 7    1  0.2719869E-009  0.1621400E+03  0.7561462E-02  0.1186302E+00
         -2   -1    0    0    0  501 -0.00000000000E+00  0.00000000000E+00  0.32683716283E+03  0.32683716283E+03  0.00000000000E+00 0.  1.
          2   -1    0    0  501    0  0.00000000000E+00 -0.00000000000E+00 -0.94713218317E+02  0.94713218317E+02  0.00000000000E+00 0. -1.
         25    2    1    2    0    0  0.38139558255E+02  0.12984372847E+03  0.90992661642E+02  0.20553157823E+03  0.12509814327E+03 0.  0.
          5    1    3    3  502    0 -0.35414221305E+02  0.26338533419E+01  0.28801774747E+02  0.45914255767E+02  0.41800000000E+01 0.  1.
         -5    1    3    3    0  502  0.73553779560E+02  0.12720987513E+03  0.62190886894E+02  0.15961732247E+03  0.41800000000E+01 0.  1.
        -11    1    1    2    0    0 -0.15475349880E+02 -0.76895917127E+01  0.71580590036E+02  0.73636927859E+02  0.00000000000E+00 0.  1.
         11    1    1    2    0    0 -0.22664208375E+02 -0.12215413676E+03  0.69550692831E+02  0.14238187505E+03  0.00000000000E+00 0. -1.
</event>
<event>
 7    1  0.2719869E-009  0.1103468E+03  0.7561462E-02  0.1259929E+00
         -2   -1    0    0    0  501 -0.00000000000E+00  0.00000000000E+00  0.30694809069E+02  0.30694809069E+02  0.00000000000E+00 0.  1.
          2   -1    0    0  501    0  0.00000000000E+00 -0.00000000000E+00 -0.76609333930E+03  0.76609333930E+03  0.00000000000E+00 0. -1.
         25    2    1    2    0    0  0.62962138045E+02  0.84109163897E+02 -0.45435950478E+03  0.48283466448E+03  0.12509265111E+03 0.  0.
          5    1    3    3  502    0  0.15680772242E+02  0.49375508308E+02 -0.43469009803E+02  0.67755845888E+02  0.41800000000E+01 0.  1.
         -5    1    3    3    0  502  0.47281365803E+02  0.34733655589E+02 -0.41089049498E+03  0.41507881859E+03  0.41800000000E+01 0.  1.
        -11    1    1    2    0    0 -0.52718923166E+02 -0.44496353225E+02 -0.25785897653E+03  0.26692782187E+03  0.00000000000E+00 0.  1.
         11    1    1    2    0    0 -0.10243214880E+02 -0.39612810671E+02 -0.23180048922E+02  0.47025662020E+02  0.00000000000E+00 0. -1.
</event>
<event>
 7    1  0.2719869E-009  0.1083336E+03  0.7561462E-02  0.1263687E+00
          2   -1    0    0  501    0  0.00000000000E+00  0.00000000000E+00  0.12513861682E+03  0.12513861682E+03  0.00000000000E+00 0. -1.
         -2   -1    0    0    0  501 -0.00000000000E+00 -0.00000000000E+00 -0.12292617633E+03  0.12292617633E+03  0.00000000000E+00 0.  1.
         25    2    1    2    0    0 -0.29788393125E+02 -0.51498667256E+02 -0.21786879680E+02  0.14021829082E+03  0.12508812838E+03 0.  0.
          5    1    3    3  502    0 -0.43021213596E+02  0.14357300537E+02  0.30651208273E+02  0.54899233752E+02  0.41800000000E+01 0. -1.
         -5    1    3    3    0  502  0.13232820471E+02 -0.65855967793E+02 -0.52438087953E+02  0.85319057073E+02  0.41800000000E+01 0. -1.
        -11    1    1    2    0    0  0.56699635226E+02  0.51955433809E+02  0.10130441969E+02  0.77568302750E+02  0.00000000000E+00 0. -1.
         11    1    1    2    0    0 -0.26911242101E+02 -0.45676655258E+00  0.13868878205E+02  0.30278199580E+02  0.00000000000E+00 0.  1.
</event>
<event>
 7    1  0.2719869E-009  0.1403684E+03  0.7561462E-02  0.1212834E+00
          2   -1    0    0  501    0  0.00000000000E+00  0.00000000000E+00  0.36329484779E+03  0.36329484779E+03  0.00000000000E+00 0. -1.
         -2   -1    0    0    0  501 -0.00000000000E+00 -0.00000000000E+00 -0.56506296232E+02  0.56506296232E+02  0.00000000000E+00 0.  1.
         25    2    1    2    0    0 -0.33516272316E+02 -0.89425958296E+02  0.19089985499E+03  0.24740837510E+03  0.12509119436E+03 0.  0.
          5    1    3    3  502    0  0.33216787451E+02  0.96931347605E+01  0.24909019865E+02  0.42839742070E+02  0.41800000000E+01 0.  1.
         -5    1    3    3    0  502 -0.66733059767E+02 -0.99119093056E+02  0.16599083512E+03  0.20456863303E+03  0.41800000000E+01 0.  1.
        -11    1    1    2    0    0 -0.13819424052E+01  0.91357669282E+02  0.94340007067E+02  0.13133229015E+03  0.00000000000E+00 0.  1.
         11    1    1    2    0    0  0.34898214721E+02 -0.19317109865E+01  0.21548689501E+02  0.41060478776E+02  0.00000000000E+00 0. -1.
</event>
<event>
 7    1  0.3061728E-009  0.8045219E+02  0.7561462E-02  0.1327773E+00
          1   -1    0    0  501    0  0.00000000000E+00  0.00000000000E+00  0.45896999593E+03  0.45896999593E+03  0.00000000000E+00 0. -1.
         -1   -1    0    0    0  501 -0.00000000000E+00 -0.00000000000E+00 -0.34782604592E+02  0.34782604592E+02  0.00000000000E+00 0.  1.
         25    2    1    2    0    0  0.63042754250E+02  0.12733877537E+02  0.21904799504E+03  0.26031231859E+03  0.12507573137E+03 0.  0.
          5    1    3    3  502    0 -0.91300936019E+01  0.10763190501E+02  0.17503256629E+03  0.17565043849E+03  0.41800000000E+01 0.  1.
         -5    1    3    3    0  502  0.72172847852E+02  0.19706870365E+01  0.44015428750E+02  0.84661880102E+02  0.41800000000E+01 0.  1.
        -11    1    1    2    0    0 -0.51217676931E+01 -0.15048838028E+02 -0.40199029007E+01  0.16396940252E+02  0.00000000000E+00 0.  1.
         11    1    1    2    0    0 -0.57920986557E+02  0.23149604908E+01  0.20915929920E+03  0.21704334168E+03  0.00000000000E+00 0. -1.
</event>
<event>
 7    1  0.2719869E-009  0.5214167E+02  0.7561462E-02  0.1434121E+00
         -1   -1    0    0    0  501 -0.00000000000E+00  0.00000000000E+00  0.18793767517E+02  0.18793767517E+02  0.00000000000E+00 0.  1.
          1   -1    0    0  501    0  0.00000000000E+00 -0.00000000000E+00 -0.78040585904E+03  0.78040585904E+03  0.00000000000E+00 0. -1.
         25    2    1    2    0    0  0.57905376712E+01 -0.22338965932E+02 -0.58964263200E+03  0.60320737089E+03  0.12509252216E+03 0.  0.
          5    1    3    3  502    0 -0.31355154992E+01  0.13902773973E+01 -0.57203025978E+03  0.57205581443E+03  0.41800000000E+01 0. -1.
         -5    1    3    3    0  502  0.89260531704E+01 -0.23729243330E+02 -0.17612372219E+02  0.31151556452E+02  0.41800000000E+01 0. -1.
        -11    1    1    2    0    0  0.28103794069E+02 -0.63075727663E+01 -0.14224998974E+02  0.32124123507E+02  0.00000000000E+00 0.  1.
         11    1    1    2    0    0 -0.33894331740E+02  0.28646538699E+02 -0.15774446056E+03  0.16386813217E+03  0.00000000000E+00 0. -1.
</event>
<event>
 7    1  0.2719869E-009  0.7505637E+02  0.7561462E-02  0.1343697E+00
         -2   -1    0    0    0  501 -0.00000000000E+00  0.00000000000E+00  0.30879701545E+02  0.30879701545E+02  0.00000000000E+00 0. -1.
          2   -1    0    0  501    0  0.00000000000E+00 -0.00000000000E+00 -0.39491856637E+03  0.39491856637E+03  0.00000000000E+00 0.  1.
         25    2    1    2    0    0  0.11372431518E+02 -0.10408329357E+02 -0.24383148834E+03  0.27447972993E+03  0.12509061482E+03 0.  0.
          5    1    3    3  502    0 -0.62648620553E+01 -0.31294143679E+02 -0.24470375697E+03  0.24681161440E+03  0.41800000000E+01 0. -1.
         -5    1    3    3    0  502  0.17637293573E+02  0.20885814322E+02  0.87226863259E+00  0.27668115531E+02  0.41800000000E+01 0. -1.
        -11    1    1    2    0    0  0.38805932452E+02  0.10070110160E+02 -0.39483615934E+02  0.56269560504E+02  0.00000000000E+00 0.  1.
         11    1    1    2    0    0 -0.50178363969E+02  0.33821919781E+00 -0.80723760550E+02  0.95048977481E+02  0.00000000000E+00 0. -1.
</event>
<event>
 7    1  0.2719869E-009  0.1339441E+03  0.7561462E-02  0.1221718E+00
          1   -1    0    0  501    0  0.00000000000E+00  0.00000000000E+00  0.44097830085E+03  0.44097830085E+03  0.00000000000E+00 0. -1.
         -1   -1    0    0    0  501 -0.00000000000E+00 -0.00000000000E+00 -0.48222160223E+02  0.48222160223E+02  0.00000000000E+00 0.  1.
         25    2    1    2    0    0 -0.94401282137E+02 -0.28066387642E+02  0.21549473922E+03  0.26792681602E+03  0.12508985540E+03 0.  0.
          5    1    3    3  502    0 -0.27277539096E+02  0.45294642661E+02  0.11422913439E+03  0.12594219443E+03  0.41800000000E+01 0.  1.
         -5    1    3    3    0  502 -0.67123743041E+02 -0.73361030303E+02  0.10126560483E+03  0.14198462159E+03  0.41800000000E+01 0.  1.
        -11    1    1    2    0    0  0.68362487525E+02 -0.10119069898E+02  0.48389511614E+02  0.84364507409E+02  0.00000000000E+00 0.  1.
         11    1    1    2    0    0  0.26038794612E+02  0.38185457540E+02  0.12887188979E+03  0.13690913764E+03  0.00000000000E+00 0. -1.
</event>
<event>
 7    1  0.2719869E-009  0.3613420E+03  0.7561462E-02  0.1058054E+00
          2   -1    0    0  501    0  0.00000000000E+00  0.00000000000E+00  0.22338675755E+04  0.22338675755E+04  0.00000000000E+00 0.  1.
         -2   -1    0    0    0  501 -0.00000000000E+00 -0.00000000000E+00 -0.65680445273E+02  0.65680445273E+02  0.00000000000E+00 0. -1.
         25    2    1    2    0    0  0.15092534422E+03 -0.32100951667E+03  0.13799498085E+04  0.14302899665E+04  0.12506936054E+03 0.  0.
          5    1    3    3  502    0  0.10089703173E+03 -0.27403643512E+03  0.12454883484E+04  0.12792712289E+04  0.41800000000E+01 0.  1.
         -5    1    3    3    0  502  0.50028312495E+02 -0.46973081553E+02  0.13446146013E+03  0.15101873759E+03  0.41800000000E+01 0.  1.
        -11    1    1    2    0    0 -0.10424850974E+03  0.13763066538E+03  0.30811696046E+03  0.35319401631E+03  0.00000000000E+00 0.  1.
         11    1    1    2    0    0 -0.46676834490E+02  0.18337885129E+03  0.48012036125E+03  0.51606403795E+03  0.00000000000E+00 0. -1.
</event>
<event>
 7    1  0.2719869E-009  0.1305284E+03  0.7561462E-02  0.1226674E+00
          1   -1    0    0  501    0  0.00000000000E+00  0.00000000000E+00  0.17969067808E+03  0.17969067808E+03  0.00000000000E+00 0. -1.
         -1   -1    0    0    0  501 -0.00000000000E+00 -0.00000000000E+00 -0.11184734964E+03  0.11184734964E+03  0.00000000000E+00 0.  1.
         25    2    1    2    0    0 -0.71900434136E+02  0.39080415113E+02 -0.43730968682E+01  0.14954986537E+03  0.12509631083E+03 0.  0.
          5    1    3    3  502    0  0.74722080045E+01 -0.31721915132E+02  0.22429374214E+02  0.39782697492E+02  0.41800000000E+01 0.  1.
         -5    1    3    3    0  502 -0.79372642141E+02  0.70802330245E+02 -0.26802471082E+02  0.10976716788E+03  0.41800000000E+01 0.  1.
        -11    1    1    2    0    0  0.43099754998E+02  0.26175953513E+02  0.23662876364E+02  0.55701895309E+02  0.00000000000E+00 0.  1.
         11    1    1    2    0    0  0.28800679138E+02 -0.65256368626E+02  0.48553548939E+02  0.86286267039E+02  0.00000000000E+00 0. -1.
</event>
<event>
 7    1  0.2719869E-009  0.1287594E+03  0.7561462E-02  0.1229308E+00
         -1   -1    0    0    0  501 -0.00000000000E+00  0.00000000000E+00  0.25459494198E+02  0.25459494198E+02  0.00000000000E+00 0.  1.
          1   -1    0    0  501    0  0.00000000000E+00 -0.00000000000E+00 -0.82444684981E+03  0.82444684981E+03  0.00000000000E+00 0. -1.
         25    2    1    2    0    0 -0.35758869369E+02  0.63291397832E+02 -0.25638180574E+03  0.29438719985E+03  0.12509074842E+03 0.  0.
          5    1    3    3  502    0 -0.87295510406E+01 -0.37870370475E+02 -0.56538784988E+02  0.68734828356E+02  0.41800000000E+01 0. -1.
         -5    1    3    3    0  502 -0.27029318329E+02  0.10116176831E+03 -0.19984302075E+03  0.22565237149E+03  0.41800000000E+01 0. -1.
        -11    1    1    2    0    0  0.53561122453E+02 -0.75122943574E+02 -0.49213690134E+03  0.50071047537E+03  0.00000000000E+00 0. -1.
         11    1    1    2    0    0 -0.17802253083E+02  0.11831545741E+02 -0.50468648533E+02  0.54808668787E+02  0.00000000000E+00 0.  1.
</event>
<event>
 7    1  0.2719869E-009  0.6522692E+02  0.7561462E-02  0.1377120E+00
          2   -1    0    0  501    0  0.00000000000E+00  0.00000000000E+00  0.59113965933E+02  0.59113965933E+02  0.00000000000E+00 0. -1.
         -2   -1    0    0    0  501 -0.00000000000E+00 -0.00000000000E+00 -0.19602402002E+03  0.19602402002E+03  0.00000000000E+00 0.  1.
         25    2    1    2    0    0 -0.11929762710E+02 -0.68219385899E+01 -0.78541375554E+02  0.14834104290E+03  0.12508980475E+03 0.  0.
          5    1    3    3  502    0  0.13192756129E+02 -0.99496777043E+01 -0.10796419029E+03  0.10930134347E+03  0.41800000000E+01 0.  1.
         -5    1    3    3    0  502 -0.25122518839E+02  0.31277391144E+01  0.29422814734E+02  0.39039699431E+02  0.41800000000E+01 0.  1.
        -11    1    1    2    0    0  0.49565883211E+02  0.73645672531E+01 -0.22960121046E+02  0.55119695099E+02  0.00000000000E+00 0. -1.
         11    1    1    2    0    0 -0.37636120501E+02 -0.54262866324E+00 -0.35408557482E+02  0.51677247946E+02  0.00000000000E+00 0.  1.
</event>
<event>
 7    1  0.2719869E-009  0.1108210E+03  0.7561462E-02  0.1259057E+00
         -1   -1    0    0    0  501 -0.00000000000E+00  0.00000000000E+00  0.23052217994E+02  0.23052217994E+02  0.00000000000E+00 0.  1.
          1   -1    0    0  501    0  0.00000000000E+00 -0.00000000000E+00 -0.64224369541E+03  0.64224369541E+03  0.00000000000E+00 0. -1.
         25    2    1    2    0    0  0.38639236648E+02  0.29020297942E+02 -0.42544983608E+03  0.44608480087E+03  0.12509563638E+03 0.  0.
          5    1    3    3  502    0  0.58577745656E+02 -0.23115080356E+02 -0.12036418754E+03  0.13590684040E+03  0.41800000000E+01 0.  1.
         -5    1    3    3    0  502 -0.19938509007E+02  0.52135378298E+02 -0.30508564854E+03  0.31017796046E+03  0.41800000000E+01 0.  1.
        -11    1    1    2    0    0 -0.27261791979E+02  0.31106405614E+02 -0.78299207959E+02  0.88552694702E+02  0.00000000000E+00 0. -1.
         11    1    1    2    0    0 -0.11377444669E+02 -0.60126703556E+02 -0.11544243338E+03  0.13065841784E+03  0.00000000000E+00 0.  1.
</event>
<event>
 7    1  0.2719869E-009  0.9390371E+02  0.7561462E-02  0.1293664E+00
         -3   -1    0    0    0  501 -0.00000000000E+00  0.00000000000E+00  0.13213550373E+04  0.13213550373E+04  0.00000000000E+00 0.  1.
          3   -1    0    0  501    0  0.00000000000E+00 -0.00000000000E+00 -0.13534207848E+02  0.13534207848E+02  0.00000000000E+00 0. -1.
         25    2    1    2    0    0  0.29278676630E+02  0.64589667768E+02  0.84205176610E+03  0.85424091268E+03  0.12508914433E+03 0.  0.
          5    1    3    3  502    0  0.16147255758E+02  0.36978207243E+02  0.65287198999E+02  0.76863596276E+02  0.41800000000E+01 0. -1.
         -5    1    3    3    0  502  0.13131420872E+02  0.27611460525E+02  0.77676456710E+03  0.77737731641E+03  0.41800000000E+01 0. -1.
        -11    1    1    2    0    0 -0.45975912459E+02 -0.80893053788E+02  0.32906689716E+03  0.34196855628E+03  0.00000000000E+00 0. -1.
         11    1    1    2    0    0  0.16697235829E+02  0.16303386021E+02  0.13670216619E+03  0.13867977618E+03  0.00000000000E+00 0.  1.
</event>
<event>
 7    1  0.2719869E-009  0.9280426E+02  0.7561462E-02  0.1296199E+00
         -2   -1    0    0    0  501 -0.00000000000E+00  0.00000000000E+00  0.74833991723E+02  0.74833991723E+02  0.00000000000E+00 0.  1.
          2   -1    0    0  501    0  0.00000000000E+00 -0.00000000000E+00 -0.23308261374E+03  0.23308261374E+03  0.00000000000E+00 0. -1.
         25    2    1    2    0    0 -0.66958193387E+02 -0.11208024303E+02 -0.54652030275E+02  0.15245786143E+03  0.12509011003E+03 0.  0.
          5    1    3    3  502    0 -0.46130100910E+02 -0.37015470366E+00  0.36035576763E+02  0.58686952699E+02  0.41800000000E+01 0.  1.
         -5    1    3    3    0  502 -0.20828092476E+02 -0.10837869599E+02 -0.90687607037E+02  0.93770908729E+02  0.41800000000E+01 0.  1.
        -11    1    1    2    0    0  0.55877624506E+02  0.50070058043E+02 -0.60528338345E+02  0.96400204230E+02  0.00000000000E+00 0. -1.
         11    1    1    2    0    0  0.11080568881E+02 -0.38862033740E+02 -0.43068253396E+02  0.59058539804E+02  0.00000000000E+00 0.  1.
</event>
<event>
 7    1  0.2719869E-009  0.1601903E+03  0.7561462E-02  0.1188482E+00
          1   -1    0    0  501    0  0.00000000000E+00  0.00000000000E+00  0.92266430385E+03  0.92266430385E+03  0.00000000000E+00 0. -1.
         -1   -1    0    0    0  501 -0.00000000000E+00 -0.00000000000E+00 -0.44256930261E+02  0.44256930261E+02  0.00000000000E+00 0.  1.
         25    2    1    2    0    0 -0.83768860791E+02  0.85389733518E+02  0.74789242119E+03  0.76765798994E+03  0.12508831764E+03 0.  0.
          5    1    3    3  502    0 -0.57322422691E+02 -0.20177166589E+02  0.20102071654E+03  0.21004708775E+03  0.41800000000E+01 0.  1.
         -5    1    3    3    0  502 -0.26446438100E+02  0.10556690011E+03  0.54687170466E+03  0.55761090219E+03  0.41800000000E+01 0.  1.
        -11    1    1    2    0    0  0.72753794850E+02 -0.89198258823E+01  0.64874125332E+02  0.97884268891E+02  0.00000000000E+00 0. -1.
         11    1    1    2    0    0  0.11015065942E+02 -0.76469907636E+02  0.65640827065E+02  0.10137897528E+03  0.00000000000E+00 0.  1.
</event>
<event>
 7    1  0.2719869E-009  0.6251014E+02  0.7561462E-02  0.1387590E+00
          3   -1    0    0  501    0  0.00000000000E+00  0.00000000000E+00  0.64380268958E+02  0.64380268958E+02  0.00000000000E+00 0. -1.
         -3   -1    0    0    0  501 -0.00000000000E+00 -0.00000000000E+00 -0.33462818740E+03  0.33462818740E+03  0.00000000000E+00 0.  1.
         25    2    1    2    0    0  0.27868767438E+02 -0.39515138852E+02 -0.25383679744E+03  0.28708632953E+03  0.12508927400E+03 0.  0.
          5    1    3    3  502    0  0.13886647653E+02 -0.27519116886E+01  0.11565866640E+02  0.18752431099E+02  0.41800000000E+01 0.  1.
         -5    1    3    3    0  502  0.13982119785E+02 -0.36763227163E+02 -0.26540266408E+03  0.26833389843E+03  0.41800000000E+01 0.  1.
        -11    1    1    2    0    0 -0.41944383457E+02  0.19548073573E+02 -0.51455233127E+02  0.69203320008E+02  0.00000000000E+00 0.  1.
         11    1    1    2    0    0  0.14075616019E+02  0.19967065279E+02  0.35044112122E+02  0.42718806825E+02  0.00000000000E+00 0. -1.
</event>
<event>
 6    1  0.2719869E-009  0.2683652E+03  0.7561462E-02  0.1102219E+00
         -1   -1    0    0    0  501 -0.00000000000E+00  0.00000000000E+00  0.22139641553E+03  0.22139641553E+03  0.00000000000E+00 0.  1.
          1   -1    0    0  501    0  0.00000000000E+00 -0.00000000000E+00 -0.51163952273E+03  0.51163952273E+03  0.00000000000E+00 0. -1.
          5    1    1    2  502    0 -0.68055266037E+02  0.76791155622E+01  0.69742967984E+02  0.97836813288E+02  0.41800000000E+01 0.  1.
         -5    1    1    2    0  502 -0.19679650382E+03 -0.70104288356E+01 -0.24914756931E+02  0.19853520479E+03  0.41800000000E+01 0.  1.
        -11    1    1    2    0    0  0.54684173227E+02  0.23652116564E+02 -0.33722790583E+02  0.68461726711E+02  0.00000000000E+00 0.  1.
         11    1    1    2    0    0  0.21016759663E+03 -0.24320803291E+02 -0.30134852767E+03  0.36820219347E+03  0.00000000000E+00 0. -1.
</event>
<event>
 7    1  0.2719869E-009  0.1534467E+03  0.7561462E-02  0.1196301E+00
         -2   -1    0    0    0  501 -0.00000000000E+00  0.00000000000E+00  0.74835554153E+02  0.74835554153E+02  0.00000000000E+00 0.  1.
          2   -1    0    0  501    0  0.00000000000E+00 -0.00000000000E+00 -0.35181830469E+03  0.35181830469E+03  0.00000000000E+00 0. -1.
         25    2    1    2    0    0 -0.11720262428E+03  0.17605764102E+02 -0.17782700674E+03  0.24762205698E+03  0.12509124953E+03 0.  0.
          5    1    3    3  502    0 -0.25211131411E+01 -0.42189002239E+02 -0.36470017508E+02  0.55980376011E+02  0.41800000000E+01 0.  1.
         -5    1    3    3    0  502 -0.11468151114E+03  0.59794766340E+02 -0.14135698923E+03  0.19164168096E+03  0.41800000000E+01 0.  1.
        -11    1    1    2    0    0  0.97498908201E+02  0.13266520938E+02 -0.33666772319E+02  0.10399754438E+03  0.00000000000E+00 0.  1.
         11    1    1    2    0    0  0.19703716082E+02 -0.30872285040E+02 -0.65488971478E+02  0.75034257484E+02  0.00000000000E+00 0. -1.
</event>
<event>
 7    1  0.2719869E-009  0.1239123E+03  0.7561462E-02  0.1236779E+00
          3   -1    0    0  501    0  0.00000000000E+00  0.00000000000E+00  0.18010928488E+02  0.18010928488E+02  0.00000000000E+00 0. -1.
         -3   -1    0    0    0  501 -0.00000000000E+00 -0.00000000000E+00 -0.93209598536E+03  0.93209598536E+03  0.00000000000E+00 0.  1.
         25    2    1    2    0    0 -0.70262263106E+02 -0.17453266893E+02 -0.49896691172E+03  0.51947827273E+03  0.12509314411E+03 0.  0.
          5    1    3    3  502    0  0.64338279366E+00 -0.53657688116E+02 -0.30589226996E+03  0.31059155599E+03  0.41800000000E+01 0.  1.
         -5    1    3    3    0  502 -0.70905645900E+02  0.36204421223E+02 -0.19307464177E+03  0.20888671674E+03  0.41800000000E+01 0.  1.
        -11    1    1    2    0    0  0.76950344067E+02 -0.17312419317E+02 -0.27283148579E+03  0.28400368828E+03  0.00000000000E+00 0.  1.
         11    1    1    2    0    0 -0.66880809606E+01  0.34765686210E+02 -0.14228665936E+03  0.14662495284E+03  0.00000000000E+00 0. -1.
</event>
<event>
 7    1  0.2719869E-009  0.9170948E+02  0.7561462E-02  0.1298764E+00
          1   -1    0    0  501    0  0.00000000000E+00  0.00000000000E+00  0.86474845228E+03  0.86474845228E+03  0.00000000000E+00 0. -1.
         -1   -1    0    0    0  501 -0.00000000000E+00 -0.00000000000E+00 -0.15564683852E+02  0.15564683852E+02  0.00000000000E+00 0.  1.
         25    2    1    2    0    0  0.30422430872E+02  0.29492273005E+02  0.51166224912E+03  0.52843225794E+03  0.12508827120E+03 0.  0.
          5    1    3    3  502    0 -0.27358628864E+02  0.26593512421E+01  0.39040794048E+03  0.39139672854E+03  0.41800000000E+01 0.  1.
         -5    1    3    3    0  502  0.57781059737E+02  0.26832921763E+02  0.12125430864E+03  0.13703552940E+03  0.41800000000E+01 0.  1.
        -11    1    1    2    0    0  0.27763939514E+02 -0.15986554347E+02  0.60146895472E+02  0.68147305832E+02  0.00000000000E+00 0.  1.
         11    1    1    2    0    0 -0.58186370386E+02 -0.13505718658E+02  0.27737462384E+03  0.28373357236E+03  0.00000000000E+00 0. -1.
</event>
<event>
 7    1  0.2719869E-009  0.9148196E+02  0.7561462E-02  0.1299302E+00
         -2   -1    0    0    0  501 -0.00000000000E+00  0.00000000000E+00  0.52449778725E+02  0.52449778725E+02  0.00000000000E+00 0.  1.
          2   -1    0    0  501    0  0.00000000000E+00 -0.00000000000E+00 -0.26480564701E+03  0.26480564701E+03  0.00000000000E+00 0. -1.
         25    2    1    2    0    0  0.10817243925E+02 -0.43545727030E+02 -0.14085351314E+03  0.19365084535E+03  0.12509074559E+03 0.  0.
          5    1    3    3  502    0  0.56649739217E+02 -0.34698121690E+01 -0.11309891819E+03  0.12660991370E+03  0.41800000000E+01 0.  1.
         -5    1    3    3    0  502 -0.45832495292E+02 -0.40075914861E+02 -0.27754594945E+02  0.67040931655E+02  0.41800000000E+01 0.  1.
        -11    1    1    2    0    0 -0.10262481366E+02  0.53794447414E+02 -0.88309035046E+02  0.10391172584E+03  0.00000000000E+00 0. -1.
         11    1    1    2    0    0 -0.55476255945E+00 -0.10248720385E+02  0.16806679897E+02  0.19692854546E+02  0.00000000000E+00 0.  1.
</event>
<event>
 7    1  0.2719869E-009  0.7298230E+02  0.7561462E-02  0.1350236E+00
         -2   -1    0    0    0  501 -0.00000000000E+00  0.00000000000E+00  0.66461371988E+02  0.66461371988E+02  0.00000000000E+00 0.  1.
          2   -1    0    0  501    0  0.00000000000E+00 -0.00000000000E+00 -0.20072505368E+03  0.20072505368E+03  0.00000000000E+00 0. -1.
         25    2    1    2    0    0 -0.23349494760E+02  0.11637586535E+02 -0.37655520569E+02  0.13321442936E+03  0.12509002212E+03 0.  0.
          5    1    3    3  502    0 -0.11360108528E+02  0.30167036877E+02  0.40479364796E+02  0.51914868333E+02  0.41800000000E+01 0. -1.
         -5    1    3    3    0  502 -0.11989386232E+02 -0.18529450342E+02 -0.78134885365E+02  0.81299561028E+02  0.41800000000E+01 0. -1.
        -11    1    1    2    0    0 -0.61245392054E+01 -0.45611052865E+02 -0.35631082489E+02  0.58201822680E+02  0.00000000000E+00 0. -1.
         11    1    1    2    0    0  0.29474033966E+02  0.33973466330E+02 -0.60977078632E+02  0.75770173625E+02  0.00000000000E+00 0.  1.
</event>
<event>
 7    1  0.2719869E-009  0.1521461E+03  0.7561462E-02  0.1197860E+00
         -1   -1    0    0    0  501 -0.00000000000E+00  0.00000000000E+00  0.52213093699E+02  0.52213093699E+02  0.00000000000E+00 0.  1.
          1   -1    0    0  501    0  0.00000000000E+00 -0.00000000000E+00 -0.77108690526E+03  0.77108690526E+03  0.00000000000E+00 0. -1.
         25    2    1    2    0    0 -0.90274053575E+02  0.83870924243E+02 -0.61075643875E+03  0.63549363809E+03  0.12507997403E+03 0.  0.
          5    1    3    3  502    0 -0.11795684546E+03  0.51607707170E+02 -0.51077499333E+03  0.52676915157E+03  0.41800000000E+01 0. -1.
         -5    1    3    3    0  502  0.27682791890E+02  0.32263217073E+02 -0.99981445414E+02  0.10872448652E+03  0.41800000000E+01 0. -1.
        -11    1    1    2    0    0  0.78635283609E+02 -0.90071711489E+02 -0.52393182557E+02  0.13054296847E+03  0.00000000000E+00 0.  1.
         11    1    1    2    0    0  0.11638769966E+02  0.62007872455E+01 -0.55724190262E+02  0.57263392400E+02  0.00000000000E+00 0. -1.
</event>
<event>
 7    1  0.3331731E-009  0.1420514E+03  0.7561462E-02  0.1210595E+00
          1   -1    0    0  501    0  0.00000000000E+00  0.00000000000E+00  0.10312173678E+04  0.10312173678E+04  0.00000000000E+00 0. -1.
         -1   -1    0    0    0  501 -0.00000000000E+00 -0.00000000000E+00 -0.22287213972E+02  0.22287213972E+02  0.00000000000E+00 0.  1.
         25    2    1    2    0    0 -0.66872569352E+02 -0.68969622823E+02  0.69210227868E+03  0.70984692972E+03  0.12509336545E+03 0.  0.
          5    1    3    3  502    0  0.10886599617E+02 -0.77218290361E+02  0.39147471193E+03  0.39918805706E+03  0.41800000000E+01 0. -1.
         -5    1    3    3    0  502 -0.77759168969E+02  0.82486675382E+01  0.30062756675E+03  0.31065887266E+03  0.41800000000E+01 0. -1.
        -11    1    1    2    0    0  0.83749251722E+02  0.37015419540E+02  0.26580305520E+03  0.28113225108E+03  0.00000000000E+00 0. -1.
         11    1    1    2    0    0 -0.16876682370E+02  0.31954203283E+02  0.51024819975E+02  0.62525400988E+02  0.00000000000E+00 0.  1.
</event>
<event>
 7    1  0.2719869E-009  0.1049695E+03  0.7561462E-02  0.1270180E+00
         -1   -1    0    0    0  501 -0.00000000000E+00  0.00000000000E+00  0.13663686723E+03  0.13663686723E+03  0.00000000000E+00 0.  1.
          1   -1    0    0  501    0  0.00000000000E+00 -0.00000000000E+00 -0.11822576561E+03  0.11822576561E+03  0.00000000000E+00 0. -1.
         25    2    1    2    0    0  0.19700604104E+02  0.44457260679E+02 -0.34343637208E+02  0.13853941277E+03  0.12509644937E+03 0.  0.
          5    1    3    3  502    0  0.46347769492E+01  0.74413691908E+02 -0.60258301496E+02  0.95955270829E+02  0.41800000000E+01 0.  1.
         -5    1    3    3    0  502  0.15065827155E+02 -0.29956431228E+02  0.25914664288E+02  0.42584141942E+02  0.41800000000E+01 0.  1.
        -11    1    1    2    0    0  0.32869938732E+02 -0.35078644225E+02  0.13148304416E+02  0.49837958043E+02  0.00000000000E+00 0. -1.
         11    1    1    2    0    0 -0.52570542836E+02 -0.93786164544E+01  0.39606434410E+02  0.66485262031E+02  0.00000000000E+00 0.  1.
</event>
<event>
 7    1  0.2719869E-009  0.1355506E+03  0.7561462E-02  0.1219444E+00
          3   -1    0    0  501    0  0.00000000000E+00  0.00000000000E+00  0.20651335815E+03  0.20651335815E+03  0.00000000000E+00 0. -1.
         -3   -1    0    0    0  501 -0.00000000000E+00 -0.00000000000E+00 -0.13670449330E+03  0.13670449330E+03  0.00000000000E+00 0.  1.
         25    2    1    2    0    0 -0.75460524080E+02  0.67557943515E+02  0.11938715805E+03  0.20039826514E+03  0.12509118570E+03 0.  0.
          5    1    3    3  502    0 -0.91857978664E+02  0.18271333105E+02  0.11460905030E+03  0.14806902670E+03  0.41800000000E+01 0.  1.
         -5    1    3    3    0  502  0.16397454584E+02  0.49286610410E+02  0.47781077512E+01  0.52329238445E+02  0.41800000000E+01 0.  1.
        -11    1    1    2    0    0  0.67381416986E+02 -0.11200120772E+02 -0.51980241412E+02  0.85834978637E+02  0.00000000000E+00 0.  1.
         11    1    1    2    0    0  0.80791070938E+01 -0.56357822743E+02  0.24019482136E+01  0.56984607667E+02  0.00000000000E+00 0. -1.
</event>
<event>
 7    1  0.2719869E-009  0.8460129E+02  0.7561462E-02  0.1316478E+00
         -2   -1    0    0    0  501 -0.00000000000E+00  0.00000000000E+00  0.12738566009E+03  0.12738566009E+03  0.00000000000E+00 0.  1.
          2   -1    0    0  501    0  0.00000000000E+00 -0.00000000000E+00 -0.10027650403E+03  0.10027650403E+03  0.00000000000E+00 0. -1.
         25    2    1    2    0    0 -0.10331610483E+02 -0.23926238525E+02  0.29968324238E+02  0.13124373413E+03  0.12509040821E+03 0.  0.
          5    1    3    3  502    0  0.28840119485E+02 -0.24515495569E+02  0.67068876035E+02  0.77126315532E+02  0.41800000000E+01 0. -1.
         -5    1    3    3    0  502 -0.39171729968E+02  0.58925704385E+00 -0.37100551797E+02  0.54117418602E+02  0.41800000000E+01 0. -1.
        -11    1    1    2    0    0  0.10033337765E+02  0.57388275404E+02 -0.16081439801E+02  0.60437527470E+02  0.00000000000E+00 0. -1.
         11    1    1    2    0    0  0.29827271831E+00 -0.33462036879E+02  0.13222271621E+02  0.35980902511E+02  0.00000000000E+00 0.  1.
</event>
<event>
 7    1  0.2719869E-009  0.1659124E+03  0.7561462E-02  0.1182179E+00
         -1   -1    0    0    0  501 -0.00000000000E+00  0.00000000000E+00  0.61763761989E+02  0.61763761989E+02  0.00000000000E+00 0.  1.
          1   -1    0    0  501    0  0.00000000000E+00 -0.00000000000E+00 -0.12998411922E+04  0.12998411922E+04  0.00000000000E+00 0. -1.
         25    2    1    2    0    0  0.30192273974E+02 -0.15320287806E+03 -0.11389449548E+04  0.11563848411E+04  0.12509034848E+03 0.  0.
          5    1    3    3  502    0  0.20929954568E+02 -0.61307715774E+02 -0.86146158224E+03  0.86390406243E+03  0.41800000000E+01 0.  1.
         -5    1    3    3    0  502  0.92623194064E+01 -0.91895162281E+02 -0.27748337261E+03  0.29248077866E+03  0.41800000000E+01 0.  1.
        -11    1    1    2    0    0 -0.47693170420E+02  0.47503050970E+02 -0.62878940075E+02  0.92113731121E+02  0.00000000000E+00 0.  1.
         11    1    1    2    0    0  0.17500896446E+02  0.10569982708E+03 -0.36253535284E+02  0.11310638197E+03  0.00000000000E+00 0. -1.
</event>
<event>
 7    1  0.2719869E-009  0.1117662E+03  0.7561462E-02  0.1257334E+00
          2   -1    0    0  501    0  0.00000000000E+00  0.00000000000E+00  0.98363605687E+03  0.98363605687E+03  0.00000000000E+00 0. -1.
         -2   -1    0    0    0  501 -0.00000000000E+00 -0.00000000000E+00 -0.21545367590E+02  0.21545367590E+02  0.00000000000E+00 0.  1.
         25    2    1    2    0    0  0.53745319643E+02 -0.76957247459E+02  0.43009166308E+03  0.45764272716E+03  0.12508816794E+03 0.  0.
          5    1    3    3  502    0  0.30146045115E+02 -0.46388915805E+02  0.47363680769E+02  0.72948654557E+02  0.41800000000E+01 0.  1.
         -5    1    3    3    0  502  0.23599274529E+02 -0.30568331654E+02  0.38272798231E+03  0.38469407261E+03  0.41800000000E+01 0.  1.
        -11    1    1    2    0    0 -0.55131002857E+02  0.29740497743E+01  0.24635059027E+03  0.25246165209E+03  0.00000000000E+00 0.  1.
         11    1    1    2    0    0  0.13856832135E+01  0.73983197685E+02  0.28564843593E+03  0.29507704520E+03  0.00000000000E+00 0. -1.
</event>
<event>
 7    1  0.2719869E-009  0.1671234E+03  0.7561462E-02  0.1180881E+00
          1   -1    0    0  501    0  0.00000000000E+00  0.00000000000E+00  0.67964931326E+03  0.67964931326E+03  0.00000000000E+00 0. -1.
         -1   -1    0    0    0  501 -0.00000000000E+00 -0.00000000000E+00 -0.56084417368E+02  0.56084417368E+02  0.00000000000E+00 0.  1.
         25    2    1    2    0    0  0.83751384423E+02 -0.11786644630E+03  0.46533783300E+03  0.50308448331E+03  0.12509158631E+03 0.  0.
          5    1    3    3  502    0  0.49103640521E+02  0.15074048818E+02  0.95242358656E+02  0.10829115265E+03  0.41800000000E+01 0. -1.
         -5    1    3    3    0  502  0.34647743902E+02 -0.13294049512E+03  0.37009547435E+03  0.39479333066E+03  0.41800000000E+01 0. -1.
        -11    1    1    2    0    0 -0.77431019296E+02  0.10107512006E+03  0.75559924602E+02  0.14805757276E+03  0.00000000000E+00 0.  1.
         11    1    1    2    0    0 -0.63203651271E+01  0.16791326237E+02  0.82667138285E+02  0.84591674557E+02  0.00000000000E+00 0. -1.
</event>
<event>
 7    1  0.2719869E-009  0.4364850E+02  0.7561462E-02  0.1482960E+00
         -1   -1    0    0    0  501 -0.00000000000E+00  0.00000000000E+00  0.24940015556E+03  0.24940015556E+03  0.00000000000E+00 0.  1.
          1   -1    0    0  501    0  0.00000000000E+00 -0.00000000000E+00 -0.50544418768E+02  0.50544418768E+02  0.00000000000E+00 0. -1.
         25    2    1    2    0    0 -0.13840446975E+02  0.21035209365E+02  0.91622808225E+02  0.15708771876E+03  0.12509106439E+03 0.  0.
          5    1    3    3  502    0  0.53623959816E+01  0.89765648354E+01 -0.30653528414E+02  0.32656472730E+02  0.41800000000E+01 0. -1.
         -5    1    3    3    0  502 -0.19202842957E+02  0.12058644530E+02  0.12227633664E+03  0.12443124603E+03  0.41800000000E+01 0. -1.
        -11    1    1    2    0    0 -0.90437282872E+01 -0.27704140126E+02  0.11433062694E+03  0.11798644269E+03  0.00000000000E+00 0.  1.
         11    1    1    2    0    0  0.22884175262E+02  0.66689307610E+01 -0.70976983719E+01  0.24870412886E+02  0.00000000000E+00 0. -1.
</event>
<event>
 7    1  0.2719869E-009  0.6633701E+02  0.7561462E-02  0.1373012E+00
         -2   -1    0    0    0  501 -0.00000000000E+00  0.00000000000E+00  0.41306487142E+02  0.41306487142E+02  0.00000000000E+00 0.  1.
          2   -1    0    0  501    0  0.00000000000E+00 -0.00000000000E+00 -0.33242208641E+03  0.33242208641E+03  0.00000000000E+00 0. -1.
         25    2    1    2    0    0  0.17208226689E+02 -0.16867747951E+01 -0.98093644468E+02  0.15990405503E+03  0.12509186807E+03 0.  0.
          5    1    3    3  502    0 -0.64624188138E+01 -0.15045790843E+02 -0.12218251191E+03  0.12334576319E+03  0.41800000000E+01 0.  1.
         -5    1    3    3    0  502  0.23670645502E+02  0.13359016048E+02  0.24088867442E+02  0.36558291849E+02  0.41800000000E+01 0.  1.
        -11    1    1    2    0    0  0.31952951087E+02  0.17754077133E+02 -0.51550661885E+02  0.63195483057E+02  0.00000000000E+00 0. -1.
         11    1    1    2    0    0 -0.49161177776E+02 -0.16067302338E+02 -0.14147129291E+03  0.15062903546E+03  0.00000000000E+00 0.  1.
</event>
<event>
 7    1  0.2719869E-009  0.9801635E+02  0.7561462E-02  0.1284523E+00
         -1   -1    0    0    0  501 -0.00000000000E+00  0.00000000000E+00  0.20809843570E+02  0.20809843570E+02  0.00000000000E+00 0.  1.
          1   -1    0    0  501    0  0.00000000000E+00 -0.00000000000E+00 -0.70010213413E+03  0.70010213413E+03  0.00000000000E+00 0. -1.
         25    2    1    2    0    0  0.27623004048E+02  0.45281909834E+02 -0.42461670068E+03  0.44582564925E+03  0.12509070838E+03 0.  0.
          5    1    3    3  502    0  0.25607894591E+02 -0.29378879819E+02 -0.28266689482E+03  0.28537156248E+03  0.41800000000E+01 0. -1.
         -5    1    3    3    0  502  0.20151094575E+01  0.74660789654E+02 -0.14194980586E+03  0.16045408677E+03  0.41800000000E+01 0. -1.
        -11    1    1    2    0    0 -0.33009768860E+02  0.32794424004E+01 -0.19574291804E+03  0.19853384987E+03  0.00000000000E+00 0. -1.
         11    1    1    2    0    0  0.53867648113E+01 -0.48561352235E+02 -0.58932671842E+02  0.76552478578E+02  0.00000000000E+00 0.  1.
</event>
<event>
 7    1  0.2861107E-009  0.1895018E+03  0.7561462E-02  0.1158911E+00
          1   -1    0    0  501    0  0.00000000000E+00  0.00000000000E+00  0.47992369937E+03  0.47992369937E+03  0.00000000000E+00 0. -1.
         -1   -1    0    0    0  501 -0.00000000000E+00 -0.00000000000E+00 -0.81420775701E+02  0.81420775701E+02  0.00000000000E+00 0.  1.
         25    2    1    2    0    0  0.10148764463E+03 -0.12467013873E+03  0.15659338169E+03  0.25692688044E+03  0.12509016428E+03 0.  0.
          5    1    3    3  502    0 -0.21349040933E+02 -0.42256604170E+02  0.72591275350E+02  0.86766167379E+02  0.41800000000E+01 0. -1.
         -5    1    3    3    0  502  0.12283668557E+03 -0.82413534564E+02  0.84002106339E+02  0.17016071306E+03  0.41800000000E+01 0. -1.
        -11    1    1    2    0    0 -0.10610878714E+02  0.82729664904E+02  0.12807293276E+03  0.15283803293E+03  0.00000000000E+00 0. -1.
         11    1    1    2    0    0 -0.90876765918E+02  0.41940473830E+02  0.11383660922E+03  0.15157956171E+03  0.00000000000E+00 0.  1.
</event>
<event>
 7    1  0.2719869E-009  0.2601636E+03  0.7561462E-02  0.1107045E+00
          1   -1    0    0  501    0  0.00000000000E+00  0.00000000000E+00  0.12542171450E+04  0.12542171450E+04  0.00000000000E+00 0. -1.
         -1   -1    0    0    0  501 -0.00000000000E+00 -0.00000000000E+00 -0.97878651575E+02  0.97878651575E+02  0.00000000000E+00 0.  1.
         25    2    1    2    0    0  0.10260649201E+03 -0.21512363892E+03  0.10339346898E+04  0.10683984057E+04  0.12509171987E+03 0.  0.
          5    1    3    3  502    0  0.69278187966E+02 -0.22123820419E+03  0.83685522194E+03  0.86838352426E+03  0.41800000000E+01 0. -1.
         -5    1    3    3    0  502  0.33328304041E+02  0.61145652707E+01  0.19707946785E+03  0.20001488146E+03  0.41800000000E+01 0. -1.
        -11    1    1    2    0    0 -0.16484890461E+02  0.13716170883E+03  0.82280993697E+02  0.16079567129E+03  0.00000000000E+00 0.  1.
         11    1    1    2    0    0 -0.86121601546E+02  0.77961930090E+02  0.40122809961E+02  0.12290171958E+03  0.00000000000E+00 0. -1.
</event>
<event>
 7    1  0.2719869E-009  0.2439036E+03  0.7561462E-02  0.1117219E+00
          1   -1    0    0  501    0  0.00000000000E+00  0.00000000000E+00  0.11956529980E+04  0.11956529980E+04  0.00000000000E+00 0. -1.
         -1   -1    0    0    0  501 -0.00000000000E+00 -0.00000000000E+00 -0.53678103034E+02  0.53678103034E+02  0.00000000000E+00 0.  1.
         25    2    1    2    0    0 -0.10585849028E+03 -0.20199164518E+03  0.57056077637E+03  0.62705006931E+03  0.12508215382E+03 0.  0.
          5    1    3    3  502    0 -0.80663848540E+02 -0.30448810950E+02  0.20509730716E+03  0.22252227833E+03  0.41800000000E+01 0. -1.
         -5    1    3    3    0  502 -0.25194641744E+02 -0.17154283423E+03  0.36546346921E+03  0.40452779098E+03  0.41800000000E+01 0. -1.
        -11    1    1    2    0    0  0.75450982624E+02  0.14517750394E+03  0.50001294946E+03  0.52610104358E+03  0.00000000000E+00 0. -1.
         11    1    1    2    0    0  0.30407507660E+02  0.56814141241E+02  0.71401169184E+02  0.96179988188E+02  0.00000000000E+00 0.  1.
</event>
<event>
 7    1  0.4819894E-009  0.1263026E+03  0.7561462E-02  0.1233047E+00
         -1   -1    0    0    0  501 -0.00000000000E+00  0.00000000000E+00  0.14673601073E+02  0.14673601073E+02  0.00000000000E+00 0.  1.
          1   -1    0    0  501    0  0.00000000000E+00 -0.00000000000E+00 -0.12681512926E+04  0.12681512926E+04  0.00000000000E+00 0. -1.
         25    2    1    2    0    0 -0.48527377945E+02 -0.66713005502E+02 -0.69294960211E+03  0.70896586203E+03  0.12509161024E+03 0.  0.
          5    1    3    3  502    0  0.26091069923E+02 -0.49188664288E+02 -0.14017217902E+03  0.15088399781E+03  0.41800000000E+01 0. -1.
         -5    1    3    3    0  502 -0.74618447868E+02 -0.17524341214E+02 -0.55277742309E+03  0.55808186422E+03  0.41800000000E+01 0. -1.
        -11    1    1    2    0    0 -0.14562146477E+02  0.53633049904E+02 -0.32305654071E+03  0.32780190458E+03  0.00000000000E+00 0. -1.
         11    1    1    2    0    0  0.63089524422E+02  0.13079955598E+02 -0.23747154873E+03  0.24605712707E+03  0.00000000000E+00 0.  1.
</event>
<event>
 7    1  0.2719869E-009  0.1148799E+03  0.7561462E-02  0.1251791E+00
          1   -1    0    0  501    0  0.00000000000E+00  0.00000000000E+00  0.25110061027E+02  0.25110061027E+02  0.00000000000E+00 0. -1.
         -1   -1    0    0    0  501 -0.00000000000E+00 -0.00000000000E+00 -0.55200436427E+03  0.55200436427E+03  0.00000000000E+00 0.  1.
         25    2    1    2    0    0 -0.42976552339E+02  0.70192932112E+01 -0.28437578835E+03  0.31370861947E+03  0.12508898592E+03 0.  0.
          5    1    3    3  502    0 -0.57671835425E+02 -0.44719852667E+02 -0.20579503095E+03  0.21839178782E+03  0.41800000000E+01 0.  1.
         -5    1    3    3    0  502  0.14695283086E+02  0.51739145878E+02 -0.78580757404E+02  0.95316831648E+02  0.41800000000E+01 0.  1.
        -11    1    1    2    0    0 -0.28255710725E+02 -0.13252351680E+02 -0.68862670780E+02  0.75604744828E+02  0.00000000000E+00 0.  1.
         11    1    1    2    0    0  0.71232263064E+02  0.62330584691E+01 -0.17365584411E+03  0.18780106100E+03  0.00000000000E+00 0. -1.
</event>
<event>
 7    1  0.3438848E-009  0.1432150E+03  0.7561462E-02  0.1209067E+00
         -1   -1    0    0    0  501 -0.00000000000E+00  0.00000000000E+00  0.18669374902E+03  0.18669374902E+03  0.00000000000E+00 0.  1.
          1   -1    0    0  501    0  0.00000000000E+00 -0.00000000000E+00 -0.12842044315E+03  0.12842044315E+03  0.00000000000E+00 0. -1.
         25    2    1    2    0    0 -0.93891580434E+02 -0.56685204143E+02  0.40315164625E+02  0.17118112952E+03  0.12509526513E+03 0.  0.
          5    1    3    3  502    0 -0.76996479802E+02  0.22645375427E+02  0.40431714489E+02  0.89963697494E+02  0.41800000000E+01 0.  1.
         -5    1    3    3    0  502 -0.16895100631E+02 -0.79330579570E+02 -0.11654986437E+00  0.81217432021E+02  0.41800000000E+01 0.  1.
        -11    1    1    2    0    0  0.36547803256E+02  0.56752444509E+02  0.44390544349E+02  0.80790484021E+02  0.00000000000E+00 0.  1.
         11    1    1    2    0    0  0.57343777177E+02 -0.67240366207E-01 -0.26432403113E+02  0.63142578634E+02  0.00000000000E+00 0. -1.
</event>
<event>
 7    1  0.2719869E-009  0.2038340E+03  0.7561462E-02  0.1146544E+00
          2   -1    0    0  501    0  0.00000000000E+00  0.00000000000E+00  0.43599709812E+03  0.43599709812E+03  0.00000000000E+00 0.  1.
         -2   -1    0    0    0  501 -0.00000000000E+00 -0.00000000000E+00 -0.17065626151E+03  0.17065626151E+03  0.00000000000E+00 0. -1.
         25    2    1    2    0    0 -0.34460674936E+02 -0.18650975177E+03  0.31591405865E+03  0.38912437460E+03  0.12507062337E+03 0.  0.
          5    1    3    3  502    0  0.24519919407E+02 -0.12726576800E+03  0.25340672448E+03  0.28465811522E+03  0.41800000000E+01 0. -1.
         -5    1    3    3    0  502 -0.58980594343E+02 -0.59243983768E+02  0.62507334174E+02  0.10446625937E+03  0.41800000000E+01 0. -1.
        -11    1    1    2    0    0  0.48863503401E+01  0.13351108176E+03  0.71216108934E+01  0.13379014431E+03  0.00000000000E+00 0.  1.
         11    1    1    2    0    0  0.29574324596E+02  0.52998670007E+02 -0.57694832941E+02  0.83738840725E+02  0.00000000000E+00 0. -1.
</event>
<event>
 7    1  0.2719869E-009  0.1600965E+03  0.7561462E-02  0.1188588E+00
          2   -1    0    0  501    0  0.00000000000E+00  0.00000000000E+00  0.33301458183E+03  0.33301458183E+03  0.00000000000E+00 0. -1.
         -2   -1    0    0    0  501 -0.00000000000E+00 -0.00000000000E+00 -0.10163307856E+03  0.10163307856E+03  0.00000000000E+00 0.  1.
         25    2    1    2    0    0  0.71740046494E+02 -0.10022801182E+03  0.25073136101E+02  0.17738566319E+03  0.12507886603E+03 0.  0.
          5    1    3    3  502    0 -0.31986442556E+02 -0.25343678246E+02  0.27454084278E+02  0.49362269781E+02  0.41800000000E+01 0.  1.
         -5    1    3    3    0  502  0.10372648905E+03 -0.74884333578E+02 -0.23809481775E+01  0.12802339341E+03  0.41800000000E+01 0.  1.
        -11    1    1    2    0    0 -0.69487428031E+02  0.21969577300E+02  0.76390889767E+02  0.10557808968E+03  0.00000000000E+00 0.  1.
         11    1    1    2    0    0 -0.22526184630E+01  0.78258434523E+02  0.12991747741E+03  0.15168390752E+03  0.00000000000E+00 0. -1.
</event>
<event>
 7    1  0.2719869E-009  0.9256457E+02  0.7561462E-02  0.1296757E+00
          2   -1    0    0  501    0  0.00000000000E+00  0.00000000000E+00  0.36845654816E+04  0.36845654816E+04  0.00000000000E+00 0. -1.
         -2   -1    0    0    0  501 -0.00000000000E+00 -0.00000000000E+00 -0.82165868350E+01  0.82165868350E+01  0.00000000000E+00 0.  1.
         25    2    1    2    0    0 -0.51464365711E+02 -0.35190954413E+02  0.32321380086E+04  0.32351584651E+04  0.12508878351E+03 0.  0.
          5    1    3    3  502    0 -0.22365189518E+02  0.71210194329E+01  0.10819122458E+03  0.11078684081E+03  0.41800000000E+01 0. -1.
         -5    1    3    3    0  502 -0.29099176193E+02 -0.42311973845E+02  0.31239467840E+04  0.31243716243E+04  0.41800000000E+01 0. -1.
        -11    1    1    2    0    0  0.77665804387E+02  0.24154625329E+02  0.34129761535E+03  0.35085536242E+03  0.00000000000E+00 0.  1.
         11    1    1    2    0    0 -0.26201438676E+02  0.11036329084E+02  0.10291327083E+03  0.10676824089E+03  0.00000000000E+00 0. -1.
</event>
<event>
 7    1  0.2719869E-009  0.1178071E+03  0.7561462E-02  0.1246759E+00
         -2   -1    0    0    0  501 -0.00000000000E+00  0.00000000000E+00  0.50094768236E+02  0.50094768236E+02  0.00000000000E+00 0.  1.
          2   -1    0    0  501    0  0.00000000000E+00 -0.00000000000E+00 -0.49621518122E+03  0.49621518122E+03  0.00000000000E+00 0. -1.
         25    2    1    2    0    0 -0.27851132221E+02 -0.65380624286E+02 -0.85447114269E+02  0.16733451708E+03  0.12509724086E+03 0.  0.
          5    1    3    3  502    0 -0.88216089128E+01  0.36758961611E+02 -0.11476921694E+02  0.39726995533E+02  0.41800000000E+01 0.  1.
         -5    1    3    3    0  502 -0.19029523308E+02 -0.10213958590E+03 -0.73970192575E+02  0.12760752154E+03  0.41800000000E+01 0.  1.
        -11    1    1    2    0    0  0.44424747529E+02  0.27487711427E+02 -0.30596565040E+03  0.31039347882E+03  0.00000000000E+00 0. -1.
         11    1    1    2    0    0 -0.16573615308E+02  0.37892912859E+02 -0.54707648318E+02  0.68581953558E+02  0.00000000000E+00 0.  1.
</event>
<event>
 7    1  0.2719869E-009  0.1324925E+03  0.7561462E-02  0.1223803E+00
         -2   -1    0    0    0  501 -0.00000000000E+00  0.00000000000E+00  0.21543651236E+03  0.21543651236E+03  0.00000000000E+00 0. -1.
          2   -1    0    0  501    0  0.00000000000E+00 -0.00000000000E+00 -0.10371788898E+03  0.10371788898E+03  0.00000000000E+00 0.  1.
         25    2    1    2    0    0 -0.77967885133E+02  0.61987074013E+02  0.33438055117E+02  0.16336087408E+03  0.12508910102E+03 0.  0.
          5    1    3    3  502    0 -0.82399550064E+02 -0.67110817582E+01 -0.75683538304E+01  0.83123262982E+02  0.41800000000E+01 0. -1.
         -5    1    3    3    0  502  0.44316649309E+01  0.68698155772E+02  0.41006408947E+02  0.80237611101E+02  0.41800000000E+01 0. -1.
        -11    1    1    2    0    0  0.61234435719E+01 -0.36496692578E+02 -0.10796653797E+02  0.38549615608E+02  0.00000000000E+00 0.  1.
         11    1    1    2    0    0  0.71844441561E+02 -0.25490381435E+02  0.89077222057E+02  0.11724391165E+03  0.00000000000E+00 0. -1.
</event>
<event>
 7    1  0.2719869E-009  0.2439162E+03  0.7561462E-02  0.1117211E+00
         -1   -1    0    0    0  501 -0.00000000000E+00  0.00000000000E+00  0.94124317436E+03  0.94124317436E+03  0.00000000000E+00 0.  1.
          1   -1    0    0  501    0  0.00000000000E+00 -0.00000000000E+00 -0.86517395136E+02  0.86517395136E+02  0.00000000000E+00 0. -1.
         25    2    1    2    0    0 -0.16342647802E+03 -0.17726092909E+03  0.24562995620E+03  0.36621447800E+03  0.12509723343E+03 0.  0.
          5    1    3    3  502    0 -0.40133657152E+02 -0.44931022317E+02 -0.93494281486E+00  0.60397464524E+02  0.41800000000E+01 0. -1.
         -5    1    3    3    0  502 -0.12329282087E+03 -0.13232990678E+03  0.24656489901E+03  0.30581701348E+03  0.41800000000E+01 0. -1.
        -11    1    1    2    0    0  0.11800020029E+03  0.90912986092E+02  0.45863969713E+03  0.48222358932E+03  0.00000000000E+00 0.  1.
         11    1    1    2    0    0  0.45426277733E+02  0.86347943000E+02  0.15045612589E+03  0.17932250218E+03  0.00000000000E+00 0. -1.
</event>
<event>
 7    1  0.2719869E-009  0.1176441E+03  0.7561462E-02  0.1247035E+00
         -2   -1    0    0    0  501 -0.00000000000E+00  0.00000000000E+00  0.14969838181E+03  0.14969838181E+03  0.00000000000E+00 0.  1.
          2   -1    0    0  501    0  0.00000000000E+00 -0.00000000000E+00 -0.11412803768E+03  0.11412803768E+03  0.00000000000E+00 0. -1.
         25    2    1    2    0    0 -0.73154237593E+02  0.79301741993E+01  0.13177179235E+02  0.14572235554E+03  0.12508771607E+03 0.  0.
          5    1    3    3  502    0 -0.53384057556E+02 -0.47793939208E+02 -0.24085440062E+02  0.75707985372E+02  0.41800000000E+01 0.  1.
         -5    1    3    3    0  502 -0.19770180037E+02  0.55724113407E+02  0.37262619298E+02  0.70014370173E+02  0.41800000000E+01 0.  1.
        -11    1    1    2    0    0 -0.10706500558E+02  0.13936278076E+02  0.25979383499E+02  0.31365225455E+02  0.00000000000E+00 0.  1.
         11    1    1    2    0    0  0.83860738151E+02 -0.21866452276E+02 -0.35862186116E+01  0.86738838488E+02  0.00000000000E+00 0. -1.
</event>
<event>
 7    1  0.2719869E-009  0.2830191E+03  0.7561462E-02  0.1094051E+00
         -2   -1    0    0    0  501 -0.00000000000E+00  0.00000000000E+00  0.87028859273E+02  0.87028859273E+02  0.00000000000E+00 0. -1.
          2   -1    0    0  501    0  0.00000000000E+00 -0.00000000000E+00 -0.10504952795E+04  0.10504952795E+04  0.00000000000E+00 0.  1.
         25    2    1    2    0    0 -0.18295240838E+03  0.21140330779E+03 -0.56351896049E+03  0.64137685117E+03  0.12509078347E+03 0.  0.
          5    1    3    3  502    0 -0.11480792178E+03  0.85503731551E+02 -0.39533581895E+03  0.42047547985E+03  0.41800000000E+01 0.  1.
         -5    1    3    3    0  502 -0.68144486604E+02  0.12589957624E+03 -0.16818314154E+03  0.22090137132E+03  0.41800000000E+01 0.  1.
        -11    1    1    2    0    0  0.67096447696E+02 -0.74434073329E+02 -0.22149009649E+03  0.24310538334E+03  0.00000000000E+00 0.  1.
         11    1    1    2    0    0  0.11585596068E+03 -0.13696923447E+03 -0.17845736325E+03  0.25304190427E+03  0.00000000000E+00 0. -1.
</event>
<event>
 7    1  0.2719869E-009  0.9805196E+02  0.7561462E-02  0.1284447E+00
          3   -1    0    0  501    0  0.00000000000E+00  0.00000000000E+00  0.76457609550E+03  0.76457609550E+03  0.00000000000E+00 0. -1.
         -3   -1    0    0    0  501 -0.00000000000E+00 -0.00000000000E+00 -0.16765524973E+02  0.16765524973E+02  0.00000000000E+00 0.  1.
         25    2    1    2    0    0 -0.61764380783E+01 -0.33197517763E+02  0.43022564737E+03  0.44931314389E+03  0.12509184645E+03 0.  0.
          5    1    3    3  502    0 -0.26250041188E+02  0.28293239399E+02  0.31267500190E+03  0.31507570720E+03  0.41800000000E+01 0.  1.
         -5    1    3    3    0  502  0.20073603109E+02 -0.61490757163E+02  0.11755064547E+03  0.13423743669E+03  0.41800000000E+01 0.  1.
        -11    1    1    2    0    0  0.38391640483E+02  0.44085159559E+02  0.24492576417E+03  0.25180557839E+03  0.00000000000E+00 0.  1.
         11    1    1    2    0    0 -0.32215202405E+02 -0.10887641795E+02  0.72659158986E+02  0.80222898193E+02  0.00000000000E+00 0. -1.
</event>
<event>
 7    1  0.2719869E-009  0.1043048E+03  0.7561462E-02  0.1271495E+00
          2   -1    0    0  501    0  0.00000000000E+00  0.00000000000E+00  0.22828058280E+03  0.22828058280E+03  0.00000000000E+00 0. -1.
         -2   -1    0    0    0  501 -0.00000000000E+00 -0.00000000000E+00 -0.94315306404E+02  0.94315306404E+02  0.00000000000E+00 0.  1.
         25    2    1    2    0    0  0.10342130436E+02  0.40053902063E+02  0.17129636507E+03  0.21610615913E+03  0.12509257609E+03 0.  0.
          5    1    3    3  502    0 -0.83601032326E+01 -0.35941870488E+02  0.11150916339E+03  0.11753074193E+03  0.41800000000E+01 0.  1.
         -5    1    3    3    0  502  0.18702233668E+02  0.75995772551E+02  0.59787201689E+02  0.98575417197E+02  0.41800000000E+01 0.  1.
        -11    1    1    2    0    0  0.97927149945E+00  0.26031237713E+02 -0.28910214588E+02  0.38915097546E+02  0.00000000000E+00 0.  1.
         11    1    1    2    0    0 -0.11321401935E+02 -0.66085139775E+02 -0.84208740908E+01  0.67574632529E+02  0.00000000000E+00 0. -1.
</event>
<event>
 7    1  0.2719869E-009  0.1183491E+03  0.7561462E-02  0.1245846E+00
          1   -1    0    0  501    0  0.00000000000E+00  0.00000000000E+00  0.92351097014E+02  0.92351097014E+02  0.00000000000E+00 0. -1.
         -1   -1    0    0    0  501 -0.00000000000E+00 -0.00000000000E+00 -0.26301430084E+03  0.26301430084E+03  0.00000000000E+00 0.  1.
         25    2    1    2    0    0  0.32148599685E+02 -0.95635582870E+02 -0.14721136266E+03  0.21793993461E+03  0.12508769975E+03 0.  0.
          5    1    3    3  502    0  0.16216303250E+02 -0.64340704142E+02  0.57474979497E-01  0.66484362101E+02  0.41800000000E+01 0. -1.
         -5    1    3    3    0  502  0.15932296436E+02 -0.31294878728E+02 -0.14726883764E+03  0.15145557251E+03  0.41800000000E+01 0. -1.
        -11    1    1    2    0    0 -0.19635074083E+02 -0.14245023099E+02  0.53133653647E+00  0.24263947244E+02  0.00000000000E+00 0.  1.
         11    1    1    2    0    0 -0.12513525602E+02  0.10988060597E+03 -0.23983177705E+02  0.11316151600E+03  0.00000000000E+00 0. -1.
</event>
<event>
 7    1  0.2719869E-009  0.1004812E+03  0.7561462E-02  0.1279287E+00
          4   -1    0    0  501    0  0.00000000000E+00  0.00000000000E+00  0.12557046096E+03  0.12557046096E+03  0.00000000000E+00 0. -1.
         -4   -1    0    0    0  501 -0.00000000000E+00 -0.00000000000E+00 -0.10452904198E+03  0.10452904198E+03  0.00000000000E+00 0.  1.
         25    2    1    2    0    0 -0.11667988853E+02 -0.34120952111E+02  0.23990287439E+02  0.13237519543E+03  0.12508907680E+03 0.  0.
          5    1    3    3  502    0  0.79748375137E+01  0.34363952031E+02  0.45602340302E+02  0.57805925938E+02  0.41800000000E+01 0.  1.
         -5    1    3    3    0  502 -0.19642826367E+02 -0.68484904142E+02 -0.21612052863E+02  0.74569269488E+02  0.41800000000E+01 0.  1.
        -11    1    1    2    0    0 -0.60843223981E+01  0.61303035104E+02 -0.14459872758E+02  0.63278503555E+02  0.00000000000E+00 0.  1.
         11    1    1    2    0    0  0.17752311251E+02 -0.27182082993E+02  0.11511004294E+02  0.34445803960E+02  0.00000000000E+00 0. -1.
</event>
<event>
 7    1  0.2719869E-009  0.1190900E+03  0.7561462E-02  0.1244606E+00
          1   -1    0    0  501    0  0.00000000000E+00  0.00000000000E+00  0.57662523308E+03  0.57662523308E+03  0.00000000000E+00 0. -1.
         -1   -1    0    0    0  501 -0.00000000000E+00 -0.00000000000E+00 -0.41325938250E+02  0.41325938250E+02  0.00000000000E+00 0.  1.
         25    2    1    2    0    0  0.45088998648E+02 -0.10522005940E+03  0.29835507158E+03  0.34317504778E+03  0.12509630682E+03 0.  0.
          5    1    3    3  502    0  0.50792228221E+01 -0.14472953376E+02 -0.10305511814E+02  0.18945734551E+02  0.41800000000E+01 0. -1.
         -5    1    3    3    0  502  0.40009775826E+02 -0.90747106022E+02  0.30866058340E+03  0.32422931323E+03  0.41800000000E+01 0. -1.
        -11    1    1    2    0    0 -0.10450761251E+02  0.78707736761E+02  0.20743714379E+03  0.22211324783E+03  0.00000000000E+00 0.  1.
         11    1    1    2    0    0 -0.34638237397E+02  0.26512322637E+02  0.29507079463E+02  0.52662875729E+02  0.00000000000E+00 0. -1.
</event>
<event>
 7    1  0.2719869E-009  0.8929833E+02  0.7561462E-02  0.1304560E+00
          2   -1    0    0  501    0  0.00000000000E+00  0.00000000000E+00  0.17236275110E+04  0.17236275110E+04  0.00000000000E+00 0. -1.
         -2   -1    0    0    0  501 -0.00000000000E+00 -0.00000000000E+00 -0.17195058910E+02  0.17195058910E+02  0.00000000000E+00 0.  1.
         25    2    1    2    0    0 -0.29466965212E+02 -0.26178768516E+02  0.15562511863E+04  0.15617678568E+04  0.12508978277E+03 0.  0.
          5    1    3    3  502    0  0.45695176431E+02 -0.30698740490E+02  0.72808631257E+03  0.73017642578E+03  0.41800000000E+01 0. -1.
         -5    1    3    3    0  502 -0.75162141642E+02  0.45199719737E+01  0.82816487374E+03  0.83159143104E+03  0.41800000000E+01 0. -1.
        -11    1    1    2    0    0  0.22122773969E+02  0.14408588949E+01 -0.41723914241E+01  0.22558857521E+02  0.00000000000E+00 0.  1.
         11    1    1    2    0    0  0.73441912425E+01  0.24737909621E+02  0.15435365724E+03  0.15649585561E+03  0.00000000000E+00 0. -1.
</event>
<event>
 7    1  0.2719869E-009  0.1036228E+03  0.7561462E-02  0.1272857E+00
         -1   -1    0    0    0  501 -0.00000000000E+00  0.00000000000E+00  0.50195623343E+03  0.50195623343E+03  0.00000000000E+00 0.  1.
          1   -1    0    0  501    0  0.00000000000E+00 -0.00000000000E+00 -0.26564759367E+02  0.26564759367E+02  0.00000000000E+00 0. -1.
         25    2    1    2    0    0  0.16514636980E+02  0.31325651494E+02  0.24669905289E+03  0.27885626703E+03  0.12508543196E+03 0.  0.
          5    1    3    3  502    0  0.26821179205E+02 -0.36286830756E+02  0.37818220044E+02  0.59023723261E+02  0.41800000000E+01 0.  1.
         -5    1    3    3    0  502 -0.10306542225E+02  0.67612482250E+02  0.20888083285E+03  0.21983254377E+03  0.41800000000E+01 0.  1.
        -11    1    1    2    0    0 -0.10218372404E+02  0.30034756921E+02  0.39454169698E+02  0.50627396382E+02  0.00000000000E+00 0.  1.
         11    1    1    2    0    0 -0.62962645759E+01 -0.61360408415E+02  0.18923825148E+03  0.19903732939E+03  0.00000000000E+00 0. -1.
</event>
<event>
 7    1  0.2719869E-009  0.1508210E+03  0.7561462E-02  0.1199468E+00
          2   -1    0    0  501    0  0.00000000000E+00  0.00000000000E+00  0.19971225453E+03  0.19971225453E+03  0.00000000000E+00 0. -1.
         -2   -1    0    0    0  501 -0.00000000000E+00 -0.00000000000E+00 -0.21189336900E+03  0.21189336900E+03  0.00000000000E+00 0.  1.
         25    2    1    2    0    0  0.42083193360E+02 -0.95676824859E+02 -0.10423498354E+03  0.19347566812E+03  0.12507138914E+03 0.  0.
          5    1    3    3  502    0  0.34690897694E+02 -0.11497652581E+03 -0.11790137676E+03  0.16834864690E+03  0.41800000000E+01 0. -1.
         -5    1    3    3    0  502  0.73922956651E+01  0.19299700947E+02  0.13666393220E+02  0.25127021222E+02  0.41800000000E+01 0. -1.
        -11    1    1    2    0    0 -0.48826523914E+01  0.11727190026E+03  0.11918259111E+03  0.16727530872E+03  0.00000000000E+00 0. -1.
         11    1    1    2    0    0 -0.37200540968E+02 -0.21595075400E+02 -0.27128722042E+02  0.50854646685E+02  0.00000000000E+00 0.  1.
</event>
<event>
 7    1  0.2719869E-009  0.1340549E+03  0.7561462E-02  0.1221560E+00
          2   -1    0    0  501    0  0.00000000000E+00  0.00000000000E+00  0.10091776502E+03  0.10091776502E+03  0.00000000000E+00 0. -1.
         -2   -1    0    0    0  501 -0.00000000000E+00 -0.00000000000E+00 -0.24033493367E+03  0.24033493367E+03  0.00000000000E+00 0.  1.
         25    2    1    2    0    0  0.11284788089E+03  0.19327643390E+02 -0.67771046102E+02  0.18261718405E+03  0.12509164320E+03 0.  0.
          5    1    3    3  502    0  0.10044889713E+03 -0.11985440744E+02  0.59887240575E+01  0.10142469591E+03  0.41800000000E+01 0.  1.
         -5    1    3    3    0  502  0.12398983762E+02  0.31313084134E+02 -0.73759770159E+02  0.81192488140E+02  0.41800000000E+01 0.  1.
        -11    1    1    2    0    0 -0.10318967787E+02 -0.28184762457E+02  0.48557609241E+01  0.30404610589E+02  0.00000000000E+00 0. -1.
         11    1    1    2    0    0 -0.10252891310E+03  0.88571190663E+01 -0.76501883474E+02  0.12823090406E+03  0.00000000000E+00 0.  1.
</event>
<event>
 7    1  0.2719869E-009  0.1244548E+03  0.7561462E-02  0.1235924E+00
          1   -1    0    0  501    0  0.00000000000E+00  0.00000000000E+00  0.44546386084E+03  0.44546386084E+03  0.00000000000E+00 0. -1.
         -1   -1    0    0    0  501 -0.00000000000E+00 -0.00000000000E+00 -0.62300666694E+02  0.62300666694E+02  0.00000000000E+00 0.  1.
         25    2    1    2    0    0  0.53323168375E+02  0.55219477142E+02  0.53606241785E+02  0.15624982729E+03  0.12509128039E+03 0.  0.
          5    1    3    3  502    0 -0.86400899777E+01  0.76530903910E+02  0.46849895649E+02  0.90244199428E+02  0.41800000000E+01 0.  1.
         -5    1    3    3    0  502  0.61963258353E+02 -0.21311426768E+02  0.67563461360E+01  0.66005627864E+02  0.41800000000E+01 0.  1.
        -11    1    1    2    0    0 -0.10522654608E+02 -0.61911782911E+02  0.10132660566E+03  0.11920937941E+03  0.00000000000E+00 0.  1.
         11    1    1    2    0    0 -0.42800513767E+02  0.66923057693E+01  0.22823034670E+03  0.23230532084E+03  0.00000000000E+00 0. -1.
</event>
<event>
 7    1  0.2719869E-009  0.1241344E+03  0.7561462E-02  0.1236428E+00
          1   -1    0    0  501    0  0.00000000000E+00  0.00000000000E+00  0.56039033068E+02  0.56039033068E+02  0.00000000000E+00 0. -1.
         -1   -1    0    0    0  501 -0.00000000000E+00 -0.00000000000E+00 -0.38861393690E+03  0.38861393690E+03  0.00000000000E+00 0.  1.
         25    2    1    2    0    0 -0.91935365277E+02 -0.31510010479E+02 -0.12309737202E+03  0.20061179494E+03  0.12508851715E+03 0.  0.
          5    1    3    3  502    0  0.55824528322E+00  0.20799209579E+02  0.15237353431E+02  0.26126004220E+02  0.41800000000E+01 0.  1.
         -5    1    3    3    0  502 -0.92493610560E+02 -0.52309220058E+02 -0.13833472546E+03  0.17448579072E+03  0.41800000000E+01 0.  1.
        -11    1    1    2    0    0  0.97195336198E+02  0.90271445478E+01 -0.13879988166E+03  0.16968744758E+03  0.00000000000E+00 0. -1.
         11    1    1    2    0    0 -0.52599709212E+01  0.22482865931E+02 -0.70677650145E+02  0.74353727443E+02  0.00000000000E+00 0.  1.
</event>
<event>
 7    1  0.2719869E-009  0.9373975E+02  0.7561462E-02  0.1294040E+00
          2   -1    0    0  501    0  0.00000000000E+00  0.00000000000E+00  0.63466449940E+02  0.63466449940E+02  0.00000000000E+00 0. -1.
         -2   -1    0    0    0  501 -0.00000000000E+00 -0.00000000000E+00 -0.25605674367E+03  0.25605674367E+03  0.00000000000E+00 0.  1.
         25    2    1    2    0    0 -0.32289456178E+02  0.16019285085E+02 -0.40723014217E+02  0.13640228482E+03  0.12509193796E+03 0.  0.
          5    1    3    3  502    0 -0.22283848485E+02 -0.30409168863E+02 -0.70594542093E+02  0.80139560939E+02  0.41800000000E+01 0. -1.
         -5    1    3    3    0  502 -0.10005607693E+02  0.46428453948E+02  0.29871527876E+02  0.56262723886E+02  0.41800000000E+01 0. -1.
        -11    1    1    2    0    0  0.64311617326E+02 -0.24375516790E+02 -0.11034017450E+03  0.13001962948E+03  0.00000000000E+00 0.  1.
         11    1    1    2    0    0 -0.32022161148E+02  0.83562317047E+01 -0.41527105018E+02  0.53101279308E+02  0.00000000000E+00 0. -1.
</event>
<event>
 7    1  0.2719869E-009  0.1454467E+03  0.7561462E-02  0.1206182E+00
         -4   -1    0    0    0  501 -0.00000000000E+00  0.00000000000E+00  0.50558163181E+02  0.50558163181E+02  0.00000000000E+00 0.  1.
          4   -1    0    0  501    0  0.00000000000E+00 -0.00000000000E+00 -0.52785975081E+03  0.52785975081E+03  0.00000000000E+00 0. -1.
         25    2    1    2    0    0 -0.84879543253E+02  0.82921583228E+02 -0.29655038626E+03  0.34303091595E+03  0.12509017499E+03 0.  0.
          5    1    3    3  502    0  0.39331472404E+01  0.42292411443E+02 -0.20399327227E+03  0.20841028104E+03  0.41800000000E+01 0. -1.
         -5    1    3    3    0  502 -0.88812690493E+02  0.40629171786E+02 -0.92557113991E+02  0.13462063491E+03  0.41800000000E+01 0. -1.
        -11    1    1    2    0    0 -0.13731173904E+02  0.83674517279E+01 -0.24418600604E+02  0.29237432183E+02  0.00000000000E+00 0. -1.
         11    1    1    2    0    0  0.98610717157E+02 -0.91289034956E+02 -0.15633260076E+03  0.20614956585E+03  0.00000000000E+00 0.  1.
</event>
<event>
 7    1  0.2719869E-009  0.1459778E+03  0.7561462E-02  0.1205504E+00
          1   -1    0    0  501    0  0.00000000000E+00  0.00000000000E+00  0.15499047581E+03  0.15499047581E+03  0.00000000000E+00 0. -1.
         -1   -1    0    0    0  501 -0.00000000000E+00 -0.00000000000E+00 -0.18758377486E+03  0.18758377486E+03  0.00000000000E+00 0.  1.
         25    2    1    2    0    0 -0.10663923277E+03  0.10386272666E+02 -0.93203803648E+02  0.18924622192E+03  0.12508949945E+03 0.  0.
          5    1    3    3  502    0 -0.10082996143E+03 -0.40586127572E+02 -0.82877622417E+02  0.13674826350E+03  0.41800000000E+01 0. -1.
         -5    1    3    3    0  502 -0.58092713332E+01  0.50972400238E+02 -0.10326181231E+02  0.52497958420E+02  0.41800000000E+01 0. -1.
        -11    1    1    2    0    0 -0.11079049901E+02  0.64113587259E+01  0.26806309821E+02  0.29705708435E+02  0.00000000000E+00 0. -1.
         11    1    1    2    0    0  0.11771828267E+03 -0.16797631392E+02  0.33804194784E+02  0.12362232031E+03  0.00000000000E+00 0.  1.
</event>
<event>
 7    1  0.2719869E-009  0.2643257E+03  0.7561462E-02  0.1104572E+00
         -1   -1    0    0    0  501 -0.00000000000E+00  0.00000000000E+00  0.36873530681E+03  0.36873530681E+03  0.00000000000E+00 0.  1.
          1   -1    0    0  501    0  0.00000000000E+00 -0.00000000000E+00 -0.26469337297E+03  0.26469337297E+03  0.00000000000E+00 0. -1.
         25    2    1    2    0    0  0.23892772396E+03 -0.10709381639E+03  0.18598929312E+03  0.34466718849E+03  0.12509160997E+03 0.  0.
          5    1    3    3  502    0  0.15919031714E+03 -0.96564902426E+02  0.60989110546E+02  0.19596806234E+03  0.41800000000E+01 0. -1.
         -5    1    3    3    0  502  0.79737406814E+02 -0.10528913964E+02  0.12500018258E+03  0.14869912615E+03  0.41800000000E+01 0. -1.
        -11    1    1    2    0    0 -0.17090348717E+03  0.79027299440E+02 -0.99708881433E+02  0.21306143955E+03  0.00000000000E+00 0. -1.
         11    1    1    2    0    0 -0.68024236784E+02  0.28066516950E+02  0.17761522147E+02  0.75700051736E+02  0.00000000000E+00 0.  1.
</event>
<event>
 7    1  0.2719869E-009  0.1176616E+03  0.7561462E-02  0.1247005E+00
          1   -1    0    0  501    0  0.00000000000E+00  0.00000000000E+00  0.85837173442E+03  0.85837173442E+03  0.00000000000E+00 0. -1.
         -1   -1    0    0    0  501 -0.00000000000E+00 -0.00000000000E+00 -0.17048659435E+02  0.17048659435E+02  0.00000000000E+00 0.  1.
         25    2    1    2    0    0 -0.49377285829E+01 -0.52520310955E+02  0.47529608402E+03  0.49430372146E+03  0.12508811832E+03 0.  0.
          5    1    3    3  502    0  0.36386264158E+02 -0.74936314297E+02  0.36362133114E+03  0.37306481512E+03  0.41800000000E+01 0.  1.
         -5    1    3    3    0  502 -0.41323992740E+02  0.22416003342E+02  0.11167475288E+03  0.12123890634E+03  0.41800000000E+01 0.  1.
        -11    1    1    2    0    0 -0.34076399989E+02  0.55995311537E+02  0.25838481800E+03  0.26656967217E+03  0.00000000000E+00 0. -1.
         11    1    1    2    0    0  0.39014128571E+02 -0.34750005812E+01  0.10764217297E+03  0.11454700022E+03  0.00000000000E+00 0.  1.
</event>
<event>
 7    1  0.2719869E-009  0.1057795E+03  0.7561462E-02  0.1268591E+00
         -2   -1    0    0    0  501 -0.00000000000E+00  0.00000000000E+00  0.41832859681E+03  0.41832859681E+03  0.00000000000E+00 0.  1.
          2   -1    0    0  501    0  0.00000000000E+00 -0.00000000000E+00 -0.57595435632E+02  0.57595435632E+02  0.00000000000E+00 0. -1.
         25    2    1    2    0    0  0.43559918523E+02  0.94498744676E+02  0.26422778824E+03  0.31030861491E+03  0.12509049989E+03 0.  0.
          5    1    3    3  502    0  0.34867578630E+02  0.78975768769E+02  0.27556531548E+03  0.28880206991E+03  0.41800000000E+01 0.  1.
         -5    1    3    3    0  502  0.86923398929E+01  0.15522975908E+02 -0.11337527238E+02  0.21506544997E+02  0.41800000000E+01 0.  1.
        -11    1    1    2    0    0 -0.39155777304E+02 -0.57343087025E+02  0.10627249219E+03  0.12694584327E+03  0.00000000000E+00 0.  1.
         11    1    1    2    0    0 -0.44041412186E+01 -0.37155657651E+02 -0.97671192522E+01  0.38669574265E+02  0.00000000000E+00 0. -1.
</event>
<event>
 7    1  0.2719869E-009  0.8594591E+02  0.7561462E-02  0.1312977E+00
          2   -1    0    0  501    0  0.00000000000E+00  0.00000000000E+00  0.15888027917E+03  0.15888027917E+03  0.00000000000E+00 0.  1.
         -2   -1    0    0    0  501 -0.00000000000E+00 -0.00000000000E+00 -0.93581375911E+02  0.93581375911E+02  0.00000000000E+00 0. -1.
         25    2    1    2    0    0 -0.23967553176E+02 -0.23239678544E+01  0.88706203845E+02  0.15522953816E+03  0.12509026535E+03 0.  0.
          5    1    3    3  502    0 -0.75188358709E+02 -0.64563265728E+01  0.57466661656E+02  0.94946632589E+02  0.41800000000E+01 0.  1.
         -5    1    3    3    0  502  0.51220805532E+02  0.41323587184E+01  0.31239542189E+02  0.60282905572E+02  0.41800000000E+01 0.  1.
        -11    1    1    2    0    0  0.25753185355E+02  0.16421951686E+02  0.29491570767E+02  0.42457741337E+02  0.00000000000E+00 0.  1.
         11    1    1    2    0    0 -0.17856321788E+01 -0.14097983832E+02 -0.52898871352E+02  0.54774375585E+02  0.00000000000E+00 0. -1.
</event>
<event>
 7    1  0.2719869E-009  0.1383338E+03  0.7561462E-02  0.1215589E+00
         -2   -1    0    0    0  501 -0.00000000000E+00  0.00000000000E+00  0.11470164538E+04  0.11470164538E+04  0.00000000000E+00 0.  1.
          2   -1    0    0  501    0  0.00000000000E+00 -0.00000000000E+00 -0.18708239824E+02  0.18708239824E+02  0.00000000000E+00 0. -1.
         25    2    1    2    0    0 -0.33699024574E+02 -0.89676224029E+02  0.67167606624E+03  0.68990834641E+03  0.12508932440E+03 0.  0.
          5    1    3    3  502    0  0.32079989469E+02  0.11907929873E+02  0.10786540866E+03  0.11324020180E+03  0.41800000000E+01 0.  1.
         -5    1    3    3    0  502 -0.65779014043E+02 -0.10158415390E+03  0.56381065758E+03  0.57666814462E+03  0.41800000000E+01 0.  1.
        -11    1    1    2    0    0 -0.19316041647E+02  0.53602168490E+02  0.31810633583E+03  0.32316859815E+03  0.00000000000E+00 0.  1.
         11    1    1    2    0    0  0.53015066221E+02  0.36074055538E+02  0.13852581186E+03  0.15264774902E+03  0.00000000000E+00 0. -1.
</event>
<event>
 7    1  0.2719869E-009  0.9886516E+02  0.7561462E-02  0.1282701E+00
          1   -1    0    0  501    0  0.00000000000E+00  0.00000000000E+00  0.77221973403E+02  0.77221973403E+02  0.00000000000E+00 0. -1.
         -1   -1    0    0    0  501 -0.00000000000E+00 -0.00000000000E+00 -0.26905100061E+03  0.26905100061E+03  0.00000000000E+00 0.  1.
         25    2    1    2    0    0  0.55755884374E+02 -0.42675266327E+02 -0.18323628158E+03  0.23270788428E+03  0.12509007763E+03 0.  0.
          5    1    3    3  502    0  0.80175042600E+02 -0.56349849819E+02 -0.17897604426E+03  0.20409125373E+03  0.41800000000E+01 0. -1.
         -5    1    3    3    0  502 -0.24419158226E+02  0.13674583492E+02 -0.42602373194E+01  0.28616630552E+02  0.41800000000E+01 0. -1.
        -11    1    1    2    0    0 -0.18710267311E+02  0.22151400626E+02 -0.47764028932E+02  0.55876301886E+02  0.00000000000E+00 0.  1.
         11    1    1    2    0    0 -0.37045617063E+02  0.20523865701E+02  0.39171283307E+02  0.57688787843E+02  0.00000000000E+00 0. -1.
</event>
<event>
 7    1  0.2719869E-009  0.8954300E+02  0.7561462E-02  0.1303962E+00
         -4   -1    0    0    0  501 -0.00000000000E+00  0.00000000000E+00  0.10166369822E+03  0.10166369822E+03  0.00000000000E+00 0.  1.
          4   -1    0    0  501    0  0.00000000000E+00 -0.00000000000E+00 -0.28585387149E+03  0.28585387149E+03  0.00000000000E+00 0. -1.
         25    2    1    2    0    0  0.62779929337E+02 -0.12196412500E+02 -0.22780232074E+03  0.26764410886E+03  0.12509756061E+03 0.  0.
          5    1    3    3  502    0  0.80797229218E+02  0.12456291383E+01 -0.23081039688E+03  0.24458261497E+03  0.41800000000E+01 0. -1.
         -5    1    3    3    0  502 -0.18017299881E+02 -0.13442041639E+02  0.30080761396E+01  0.23061493891E+02  0.41800000000E+01 0. -1.
        -11    1    1    2    0    0 -0.51093091135E+02  0.25911226508E+02 -0.14447906089E+02  0.59081618218E+02  0.00000000000E+00 0. -1.
         11    1    1    2    0    0 -0.11686838201E+02 -0.13714814008E+02  0.58060053553E+02  0.60791842619E+02  0.00000000000E+00 0.  1.
</event>
<event>
 7    1  0.2719869E-009  0.7139881E+02  0.7561462E-02  0.1355400E+00
          2   -1    0    0  501    0  0.00000000000E+00  0.00000000000E+00  0.97771827229E+02  0.97771827229E+02  0.00000000000E+00 0. -1.
         -2   -1    0    0    0  501 -0.00000000000E+00 -0.00000000000E+00 -0.15659645071E+03  0.15659645071E+03  0.00000000000E+00 0.  1.
         25    2    1    2    0    0 -0.11164741563E+02 -0.10181993648E+02  0.25475917097E+02  0.12855068323E+03  0.12509169180E+03 0.  0.
          5    1    3    3  502    0 -0.49222925956E+02 -0.33517271833E+01  0.59127654546E+02  0.77121219174E+02  0.41800000000E+01 0.  1.
         -5    1    3    3    0  502  0.38058184393E+02 -0.68302664646E+01 -0.33651737449E+02  0.51429464052E+02  0.41800000000E+01 0.  1.
        -11    1    1    2    0    0 -0.85988971197E+01  0.27065786492E+02  0.83409950692E+01  0.29598480178E+02  0.00000000000E+00 0. -1.
         11    1    1    2    0    0  0.19763638682E+02 -0.16883792844E+02 -0.92641535646E+02  0.96219114533E+02  0.00000000000E+00 0.  1.
</event>
<event>
 7    1  0.2719869E-009  0.1083451E+03  0.7561462E-02  0.1263666E+00
          2   -1    0    0  501    0  0.00000000000E+00  0.00000000000E+00  0.92353545131E+03  0.92353545131E+03  0.00000000000E+00 0. -1.
         -2   -1    0    0    0  501 -0.00000000000E+00 -0.00000000000E+00 -0.16536638929E+02  0.16536638929E+02  0.00000000000E+00 0.  1.
         25    2    1    2    0    0  0.15878209947E+02  0.51165427981E+02  0.58935412823E+03  0.60485982292E+03  0.12508836220E+03 0.  0.
          5    1    3    3  502    0 -0.24662719773E+02  0.62934431222E+02  0.16453030276E+03  0.17792325679E+03  0.41800000000E+01 0. -1.
         -5    1    3    3    0  502  0.40540929720E+02 -0.11769003242E+02  0.42482382547E+03  0.42693656614E+03  0.41800000000E+01 0. -1.
        -11    1    1    2    0    0  0.35433057816E+02 -0.41084446523E+02  0.17865275204E+03  0.18670896911E+03  0.00000000000E+00 0. -1.
         11    1    1    2    0    0 -0.51311267763E+02 -0.10080981458E+02  0.13899193211E+03  0.14850329821E+03  0.00000000000E+00 0.  1.
</event>
<event>
 7    1  0.2719869E-009  0.2954667E+03  0.7561462E-02  0.1087529E+00
          2   -1    0    0  501    0  0.00000000000E+00  0.00000000000E+00  0.18510823414E+03  0.18510823414E+03  0.00000000000E+00 0.  1.
         -2   -1    0    0    0  501 -0.00000000000E+00 -0.00000000000E+00 -0.48813255378E+03  0.48813255378E+03  0.00000000000E+00 0. -1.
         25    2    1    2    0    0 -0.63715568032E+02 -0.27246892499E+03 -0.14677507383E+03  0.33983597667E+03  0.12508629041E+03 0.  0.
          5    1    3    3  502    0 -0.64040395952E+02 -0.53206232164E+02 -0.17219841448E+02  0.85123855613E+02  0.41800000000E+01 0.  1.
         -5    1    3    3    0  502  0.32482792035E+00 -0.21926269282E+03 -0.12955523238E+03  0.25471212106E+03  0.41800000000E+01 0.  1.
        -11    1    1    2    0    0  0.11177645513E+02  0.19099789463E+03 -0.13500787270E+03  0.23416289459E+03  0.00000000000E+00 0. -1.
         11    1    1    2    0    0  0.52537922519E+02  0.81471030356E+02 -0.21241373107E+02  0.99241916655E+02  0.00000000000E+00 0.  1.
</event>
<event>
 7    1  0.2719869E-009  0.9849245E+02  0.7561462E-02  0.1283498E+00
         -4   -1    0    0    0  501 -0.00000000000E+00  0.00000000000E+00  0.94256692508E+02  0.94256692508E+02  0.00000000000E+00 0.  1.
          4   -1    0    0  501    0  0.00000000000E+00 -0.00000000000E+00 -0.22410263365E+03  0.22410263365E+03  0.00000000000E+00 0. -1.
         25    2    1    2    0    0  0.63805200794E+01 -0.74284527663E+02  0.50310999474E+00  0.14562580357E+03  0.12509084483E+03 0.  0.
          5    1    3    3  502    0 -0.46340889808E+01  0.37286621363E+01  0.51285214341E+02  0.51797908375E+02  0.41800000000E+01 0.  1.
         -5    1    3    3    0  502  0.11014609060E+02 -0.78013189799E+02 -0.50782104346E+02  0.93827895197E+02  0.41800000000E+01 0.  1.
        -11    1    1    2    0    0  0.10100885013E+02 -0.16065137707E+02 -0.38088031829E+02  0.42553668423E+02  0.00000000000E+00 0. -1.
         11    1    1    2    0    0 -0.16481405093E+02  0.90349665370E+02 -0.92261019309E+02  0.13017985416E+03  0.00000000000E+00 0.  1.
</event>
<event>
 7    1  0.2719869E-009  0.1021251E+03  0.7561462E-02  0.1275890E+00
         -3   -1    0    0    0  501 -0.00000000000E+00  0.00000000000E+00  0.46075066690E+02  0.46075066690E+02  0.00000000000E+00 0.  1.
          3   -1    0    0  501    0  0.00000000000E+00 -0.00000000000E+00 -0.25839563058E+03  0.25839563058E+03  0.00000000000E+00 0. -1.
         25    2    1    2    0    0 -0.11439528179E+02  0.10018647440E+02 -0.13942903478E+03  0.18793490239E+03  0.12509130943E+03 0.  0.
          5    1    3    3  502    0  0.35858247958E+02  0.43394831468E+02 -0.29658721354E+02  0.63765488292E+02  0.41800000000E+01 0. -1.
         -5    1    3    3    0  502 -0.47297776138E+02 -0.33376184028E+02 -0.10977031343E+03  0.12416941410E+03  0.41800000000E+01 0. -1.
        -11    1    1    2    0    0  0.45794123452E+02 -0.25124995936E+02 -0.33099592501E+02  0.61838096569E+02  0.00000000000E+00 0.  1.
         11    1    1    2    0    0 -0.34354595273E+02  0.15106348496E+02 -0.39791936604E+02  0.54697698306E+02  0.00000000000E+00 0. -1.
</event>
<event>
 7    1  0.2719869E-009  0.7031117E+02  0.7561462E-02  0.1359038E+00
         -1   -1    0    0    0  501 -0.00000000000E+00  0.00000000000E+00  0.73780159260E+02  0.73780159260E+02  0.00000000000E+00 0.  1.
          1   -1    0    0  501    0  0.00000000000E+00 -0.00000000000E+00 -0.18143572928E+03  0.18143572928E+03  0.00000000000E+00 0. -1.
         25    2    1    2    0    0  0.35478941909E+02  0.11982438054E+02 -0.43567151054E+02  0.13767161883E+03  0.12511212507E+03 0.  0.
          5    1    3    3  502    0  0.59617725041E+01  0.18958729665E+02  0.42075664863E+02  0.46720553674E+02  0.41800000000E+01 0. -1.
         -5    1    3    3    0  502  0.29517169405E+02 -0.69762916112E+01 -0.85642815917E+02  0.90951065153E+02  0.41800000000E+01 0. -1.
        -11    1    1    2    0    0 -0.59641576386E+02 -0.21958434198E+02 -0.20612328372E+02  0.66814358840E+02  0.00000000000E+00 0.  1.
         11    1    1    2    0    0  0.24162634478E+02  0.99759961434E+01 -0.43476090595E+02  0.50729910875E+02  0.00000000000E+00 0. -1.
</event>
<event>
 7    1  0.2719869E-009  0.1059981E+03  0.7561462E-02  0.1268165E+00
         -2   -1    0    0    0  501 -0.00000000000E+00  0.00000000000E+00  0.10792079022E+04  0.10792079022E+04  0.00000000000E+00 0.  1.
          2   -1    0    0  501    0  0.00000000000E+00 -0.00000000000E+00 -0.13688956358E+02  0.13688956358E+02  0.00000000000E+00 0. -1.
         25    2    1    2    0    0 -0.46668158189E+02  0.27525587265E+02  0.58291045709E+03  0.59863755862E+03  0.12508697237E+03 0.  0.
          5    1    3    3  502    0 -0.12809012754E+02  0.58031985821E+02  0.50326710471E+03  0.50678105063E+03  0.41800000000E+01 0.  1.
         -5    1    3    3    0  502 -0.33859145435E+02 -0.30506398556E+02  0.79643352375E+02  0.91856507990E+02  0.41800000000E+01 0.  1.
        -11    1    1    2    0    0  0.73751104533E+02 -0.29650308692E+02  0.35460798303E+03  0.36340774325E+03  0.00000000000E+00 0. -1.
         11    1    1    2    0    0 -0.27082946343E+02  0.21247214269E+01  0.12800050572E+03  0.13085155669E+03  0.00000000000E+00 0.  1.
</event>
<event>
 6    1  0.2719869E-009  0.1019346E+03  0.7561462E-02  0.1276280E+00
         -2   -1    0    0    0  501 -0.00000000000E+00  0.00000000000E+00  0.23090457621E+03  0.23090457621E+03  0.00000000000E+00 0. -1.
          2   -1    0    0  501    0  0.00000000000E+00 -0.00000000000E+00 -0.53556438740E+02  0.53556438740E+02  0.00000000000E+00 0.  1.
          5    1    1    2  502    0 -0.25311314641E+02 -0.38485029963E+02  0.75877385655E+01  0.46870100881E+02  0.41800000000E+01 0.  1.
         -5    1    1    2    0  502  0.56332895998E+02  0.42811817274E+02  0.90617855859E+02  0.11504483939E+03  0.41800000000E+01 0.  1.
        -11    1    1    2    0    0 -0.45527041736E+02 -0.31894878238E+02  0.26979041877E+02  0.61788862165E+02  0.00000000000E+00 0.  1.
         11    1    1    2    0    0  0.14505460379E+02  0.27568090926E+02  0.52163501170E+02  0.60757212514E+02  0.00000000000E+00 0. -1.
</event>
<event>
 6    1  0.2719869E-009  0.1240586E+03  0.7561462E-02  0.1236548E+00
          1   -1    0    0  501    0  0.00000000000E+00  0.00000000000E+00  0.20687381891E+03  0.20687381891E+03  0.00000000000E+00 0. -1.
         -1   -1    0    0    0  501 -0.00000000000E+00 -0.00000000000E+00 -0.94612816357E+02  0.94612816357E+02  0.00000000000E+00 0.  1.
          5    1    1    2  502    0  0.60771050566E+02  0.53392929006E+01  0.34511084246E+02  0.70214784564E+02  0.41800000000E+01 0.  1.
         -5    1    1    2    0  502 -0.24358527066E+02 -0.82851229247E+02  0.55523933946E+01  0.86636975368E+02  0.41800000000E+01 0.  1.
        -11    1    1    2    0    0  0.13747835707E+02  0.18763137790E+02  0.62611791967E+02  0.66792924922E+02  0.00000000000E+00 0.  1.
         11    1    1    2    0    0 -0.50160359207E+02  0.58748798557E+02  0.95857329446E+01  0.77841950410E+02  0.00000000000E+00 0. -1.
</event>
<event>
 7    1  0.2719869E-009  0.1041787E+03  0.7561462E-02  0.1271746E+00
          3   -1    0    0  501    0  0.00000000000E+00  0.00000000000E+00  0.54270683542E+02  0.54270683542E+02  0.00000000000E+00 0. -1.
         -3   -1    0    0    0  501 -0.00000000000E+00 -0.00000000000E+00 -0.25420127297E+03  0.25420127297E+03  0.00000000000E+00 0.  1.
         25    2    1    2    0    0 -0.36918399985E+02 -0.18299062417E+02 -0.13762246794E+03  0.19048679977E+03  0.12508978081E+03 0.  0.
          5    1    3    3  502    0 -0.34633229538E+02 -0.69356681323E+02 -0.10138459673E+03  0.12769541372E+03  0.41800000000E+01 0. -1.
         -5    1    3    3    0  502 -0.22851704471E+01  0.51057618906E+02 -0.36237871208E+02  0.62791386049E+02  0.41800000000E+01 0. -1.
        -11    1    1    2    0    0  0.18734351174E+02  0.44078727634E+02 -0.70649211282E+02  0.85353507242E+02  0.00000000000E+00 0.  1.
         11    1    1    2    0    0  0.18184048811E+02 -0.25779665217E+02  0.83410897924E+01  0.32631649496E+02  0.00000000000E+00 0. -1.
</event>
<event>
 7    1  0.2719869E-009  0.1319161E+03  0.7561462E-02  0.1224640E+00
          2   -1    0    0  501    0  0.00000000000E+00  0.00000000000E+00  0.99913651161E+03  0.99913651161E+03  0.00000000000E+00 0.  1.
         -2   -1    0    0    0  501 -0.00000000000E+00 -0.00000000000E+00 -0.31605507015E+02  0.31605507015E+02  0.00000000000E+00 0. -1.
         25    2    1    2    0    0  0.98883392449E+02 -0.80174105967E+02  0.32991987777E+03  0.37510005924E+03  0.12508843322E+03 0.  0.
          5    1    3    3  502    0  0.25082652349E+02 -0.50767927899E+02  0.26892740436E+03  0.27485622272E+03  0.41800000000E+01 0.  1.
         -5    1    3    3    0  502  0.73800740100E+02 -0.29406178068E+02  0.60992473405E+02  0.10024383652E+03  0.41800000000E+01 0.  1.
        -11    1    1    2    0    0 -0.82666462036E+01  0.94057352532E+01  0.64344964570E+01  0.14078637710E+02  0.00000000000E+00 0. -1.
         11    1    1    2    0    0 -0.90616746245E+02  0.70768370714E+02  0.63117663037E+03  0.64156332168E+03  0.00000000000E+00 0.  1.
</event>
<event>
 7    1  0.2719869E-009  0.1254568E+03  0.7561462E-02  0.1234357E+00
          2   -1    0    0  501    0  0.00000000000E+00  0.00000000000E+00  0.36762262765E+03  0.36762262765E+03  0.00000000000E+00 0. -1.
         -2   -1    0    0    0  501 -0.00000000000E+00 -0.00000000000E+00 -0.61334121766E+02  0.61334121766E+02  0.00000000000E+00 0.  1.
         25    2    1    2    0    0 -0.91989914237E+02  0.35710932129E+02  0.20656414307E+03  0.26087859234E+03  0.12510587414E+03 0.  0.
          5    1    3    3  502    0 -0.54785098792E+02 -0.39315650014E+02  0.13367004876E+03  0.14977410230E+03  0.41800000000E+01 0. -1.
         -5    1    3    3    0  502 -0.37204815444E+02  0.75026582143E+02  0.72894094312E+02  0.11110449003E+03  0.41800000000E+01 0. -1.
        -11    1    1    2    0    0  0.80137136926E+02 -0.26217165173E+02  0.19649512610E+02  0.86576000198E+02  0.00000000000E+00 0.  1.
         11    1    1    2    0    0  0.11852777311E+02 -0.94937669559E+01  0.80074850208E+02  0.81502156884E+02  0.00000000000E+00 0. -1.
</event>
<event>
 7    1  0.2719869E-009  0.1071205E+03  0.7561462E-02  0.1265997E+00
         -2   -1    0    0    0  501 -0.00000000000E+00  0.00000000000E+00  0.18404205988E+03  0.18404205988E+03  0.00000000000E+00 0.  1.
          2   -1    0    0  501    0  0.00000000000E+00 -0.00000000000E+00 -0.97258816903E+02  0.97258816903E+02  0.00000000000E+00 0. -1.
         25    2    1    2    0    0  0.22558851711E+02 -0.17676657943E+02  0.12254757857E+03  0.17744668114E+03  0.12509216445E+03 0.  0.
          5    1    3    3  502    0  0.38458261456E+02 -0.60854390940E+02  0.10634298461E+03  0.12848578733E+03  0.41800000000E+01 0. -1.
         -5    1    3    3    0  502 -0.15899409744E+02  0.43177732997E+02  0.16204593963E+02  0.48960893808E+02  0.41800000000E+01 0. -1.
        -11    1    1    2    0    0 -0.53947762938E+02  0.30557641666E+02 -0.14054896175E+02  0.63574135438E+02  0.00000000000E+00 0.  1.
         11    1    1    2    0    0  0.31388911227E+02 -0.12880983723E+02 -0.21709439424E+02  0.40280060201E+02  0.00000000000E+00 0. -1.
</event>
<event>
 7    1  0.2719869E-009  0.1051870E+03  0.7561462E-02  0.1269752E+00
          3   -1    0    0  501    0  0.00000000000E+00  0.00000000000E+00  0.84095230605E+02  0.84095230605E+02  0.00000000000E+00 0. -1.
         -3   -1    0    0    0  501 -0.00000000000E+00 -0.00000000000E+00 -0.18438235040E+03  0.18438235040E+03  0.00000000000E+00 0.  1.
         25    2    1    2    0    0 -0.26293291648E+02  0.40375094772E+02 -0.15174812084E+02  0.13490418121E+03  0.12508947886E+03 0.  0.
          5    1    3    3  502    0 -0.63448493250E+02  0.26307358236E+01 -0.41130209271E+02  0.75774656590E+02  0.41800000000E+01 0.  1.
         -5    1    3    3    0  502  0.37155201603E+02  0.37744358948E+02  0.25955397188E+02  0.59129524619E+02  0.41800000000E+01 0.  1.
        -11    1    1    2    0    0  0.50726729169E+02 -0.55017204445E+01 -0.18026510596E+02  0.54114924598E+02  0.00000000000E+00 0.  1.
         11    1    1    2    0    0 -0.24433437521E+02 -0.34873374327E+02 -0.67085797116E+02  0.79458475198E+02  0.00000000000E+00 0. -1.
</event>
<event>
 7    1  0.2719869E-009  0.1459805E+03  0.7561462E-02  0.1205501E+00
          2   -1    0    0  501    0  0.00000000000E+00  0.00000000000E+00  0.34271350576E+03  0.34271350576E+03  0.00000000000E+00 0. -1.
         -2   -1    0    0    0  501 -0.00000000000E+00 -0.00000000000E+00 -0.74638664142E+02  0.74638664142E+02  0.00000000000E+00 0.  1.
         25    2    1    2    0    0 -0.11499970375E+03 -0.20503680931E+02  0.16088274282E+03  0.23489475049E+03  0.12508778548E+03 0.  0.
          5    1    3    3  502    0  0.14430209612E+02 -0.20740802169E+02 -0.32628351394E+01  0.25817248444E+02  0.41800000000E+01 0. -1.
         -5    1    3    3    0  502 -0.12942991337E+03  0.23712123770E+00  0.16414557796E+03  0.20907750205E+03  0.41800000000E+01 0. -1.
        -11    1    1    2    0    0  0.12133732574E+03  0.65339525273E+01  0.11311520158E+03  0.16601351747E+03  0.00000000000E+00 0. -1.
         11    1    1    2    0    0 -0.63376219907E+01  0.13969728404E+02 -0.59231027858E+01  0.16443901933E+02  0.00000000000E+00 0.  1.
</event>
<event>
 7    1  0.2719869E-009  0.1151697E+03  0.7561462E-02  0.1251285E+00
          3   -1    0    0  501    0  0.00000000000E+00  0.00000000000E+00  0.23823683517E+03  0.23823683517E+03  0.00000000000E+00 0. -1.
         -3   -1    0    0    0  501 -0.00000000000E+00 -0.00000000000E+00 -0.91552807517E+02  0.91552807517E+02  0.00000000000E+00 0.  1.
         25    2    1    2    0    0  0.16839195790E+02 -0.48070241374E+02 -0.16084475064E+02  0.13600455202E+03  0.12507686121E+03 0.  0.
          5    1    3    3  502    0 -0.19895907958E+02 -0.82139634953E+02 -0.69245807346E+01  0.84901054187E+02  0.41800000000E+01 0.  1.
         -5    1    3    3    0  502  0.36735103748E+02  0.34069393579E+02 -0.91598943297E+01  0.51103497829E+02  0.41800000000E+01 0.  1.
        -11    1    1    2    0    0 -0.34178792633E+01  0.69811469327E+02  0.75646296830E+02  0.10299361811E+03  0.00000000000E+00 0.  1.
         11    1    1    2    0    0 -0.13421316527E+02 -0.21741227953E+02  0.87122205888E+02  0.90791472556E+02  0.00000000000E+00 0. -1.
</event>
<event>
 7    1  0.2719869E-009  0.1342723E+03  0.7561462E-02  0.1221251E+00
         -1   -1    0    0    0  501 -0.00000000000E+00  0.00000000000E+00  0.21664390036E+03  0.21664390036E+03  0.00000000000E+00 0.  1.
          1   -1    0    0  501    0  0.00000000000E+00 -0.00000000000E+00 -0.11033607846E+03  0.11033607846E+03  0.00000000000E+00 0. -1.
         25    2    1    2    0    0  0.78077042475E+02  0.69068956395E+02  0.20901473415E+02  0.16416830232E+03  0.12509122510E+03 0.  0.
          5    1    3    3  502    0 -0.72148297443E+01  0.76436582099E+02  0.14247744032E+02  0.78198947954E+02  0.41800000000E+01 0. -1.
         -5    1    3    3    0  502  0.85291872219E+02 -0.73676257031E+01  0.66537293828E+01  0.85969354365E+02  0.41800000000E+01 0. -1.
        -11    1    1    2    0    0 -0.41334110194E+02 -0.24007354657E+02  0.92615812459E+02  0.10422356001E+03  0.00000000000E+00 0.  1.
         11    1    1    2    0    0 -0.36742932281E+02 -0.45061601738E+02 -0.72094639661E+01  0.58588116496E+02  0.00000000000E+00 0. -1.
</event>
<event>
 7    1  0.2719869E-009  0.1100599E+03  0.7561462E-02  0.1260459E+00
          1   -1    0    0  501    0  0.00000000000E+00  0.00000000000E+00  0.14291209163E+03  0.14291209163E+03  0.00000000000E+00 0. -1.
         -1   -1    0    0    0  501 -0.00000000000E+00 -0.00000000000E+00 -0.13505688934E+03  0.13505688934E+03  0.00000000000E+00 0.  1.
         25    2    1    2    0    0  0.41217868443E+02  0.37622499371E+02 -0.61254015622E+02  0.15004796292E+03  0.12509185269E+03 0.  0.
          5    1    3    3  502    0  0.85550633903E+02  0.17470580373E+02 -0.46378328151E+02  0.98957333543E+02  0.41800000000E+01 0.  1.
         -5    1    3    3    0  502 -0.44332765461E+02  0.20151918998E+02 -0.14875687470E+02  0.51090629379E+02  0.41800000000E+01 0.  1.
        -11    1    1    2    0    0 -0.57997298042E+02 -0.31226351423E+02  0.82464272733E+02  0.10554206688E+03  0.00000000000E+00 0. -1.
         11    1    1    2    0    0  0.16779429599E+02 -0.63961479481E+01 -0.13355054817E+02  0.22378951168E+02  0.00000000000E+00 0.  1.
</event>
<event>
 7    1  0.2719869E-009  0.2115551E+03  0.7561462E-02  0.1140340E+00
          2   -1    0    0  501    0  0.00000000000E+00  0.00000000000E+00  0.26227237831E+03  0.26227237831E+03  0.00000000000E+00 0. -1.
         -2   -1    0    0    0  501 -0.00000000000E+00 -0.00000000000E+00 -0.34143822207E+03  0.34143822207E+03  0.00000000000E+00 0.  1.
         25    2    1    2    0    0 -0.20303945962E+03  0.26558706156E+02  0.14996500192E+03  0.28296441739E+03  0.12509585393E+03 0.  0.
          5    1    3    3  502    0 -0.13837692351E+03  0.34968109857E+02  0.16261830368E+03  0.21640962724E+03  0.41800000000E+01 0.  1.
         -5    1    3    3    0  502 -0.64662536107E+02 -0.84094037007E+01 -0.12653301762E+02  0.66554790150E+02  0.41800000000E+01 0.  1.
        -11    1    1    2    0    0  0.18827699574E+03 -0.43666471919E+01 -0.16164028494E+03  0.24818315102E+03  0.00000000000E+00 0. -1.
         11    1    1    2    0    0  0.14762463874E+02 -0.22192058964E+02 -0.67490560747E+02  0.72563031984E+02  0.00000000000E+00 0.  1.
</event>
<event>
 7    1  0.2719869E-009  0.7396090E+02  0.7561462E-02  0.1347119E+00
         -3   -1    0    0    0  501 -0.00000000000E+00  0.00000000000E+00  0.19314929978E+03  0.19314929978E+03  0.00000000000E+00 0.  1.
          3   -1    0    0  501    0  0.00000000000E+00 -0.00000000000E+00 -0.87362213527E+02  0.87362213527E+02  0.00000000000E+00 0. -1.
         25    2    1    2    0    0 -0.31101390092E+02  0.41316529243E+02  0.11721047005E+03  0.17905234323E+03  0.12508834988E+03 0.  0.
          5    1    3    3  502    0  0.14331106167E+02  0.30385918590E+02 -0.16273970320E+02  0.37563268795E+02  0.41800000000E+01 0.  1.
         -5    1    3    3    0  502 -0.45432496259E+02  0.10930610652E+02  0.13348444037E+03  0.14148907444E+03  0.41800000000E+01 0.  1.
        -11    1    1    2    0    0  0.19194709145E+02 -0.49240195598E+02  0.27796194716E+02  0.59713165737E+02  0.00000000000E+00 0.  1.
         11    1    1    2    0    0  0.11906680947E+02  0.79236663558E+01 -0.39219578508E+02  0.41746004336E+02  0.00000000000E+00 0. -1.
</event>
<event>
 7    1  0.2719869E-009  0.8725984E+02  0.7561462E-02  0.1309626E+00
         -4   -1    0    0    0  501 -0.00000000000E+00  0.00000000000E+00  0.24205230737E+02  0.24205230737E+02  0.00000000000E+00 0.  1.
          4   -1    0    0  501    0  0.00000000000E+00 -0.00000000000E+00 -0.57285876543E+03  0.57285876543E+03  0.00000000000E+00 0. -1.
         25    2    1    2    0    0  0.14725352691E+02 -0.45234783581E+02 -0.33644131170E+03  0.36208187719E+03  0.12508999927E+03 0.  0.
          5    1    3    3  502    0 -0.89505988203E+01  0.10890292244E+02 -0.27523716446E+03  0.27562960796E+03  0.41800000000E+01 0. -1.
         -5    1    3    3    0  502  0.23675951512E+02 -0.56125075825E+02 -0.61204147239E+02  0.86452269233E+02  0.41800000000E+01 0. -1.
        -11    1    1    2    0    0  0.35302260687E+02  0.30373675155E+02 -0.76238431103E+02  0.89337047910E+02  0.00000000000E+00 0.  1.
         11    1    1    2    0    0 -0.50027613379E+02  0.14861108425E+02 -0.13597379189E+03  0.14564507107E+03  0.00000000000E+00 0. -1.
</event>
<event>
 7    1  0.2719869E-009  0.1172155E+03  0.7561462E-02  0.1247763E+00
         -3   -1    0    0    0  501 -0.00000000000E+00  0.00000000000E+00  0.36042998500E+02  0.36042998500E+02  0.00000000000E+00 0.  1.
          3   -1    0    0  501    0  0.00000000000E+00 -0.00000000000E+00 -0.52540379388E+03  0.52540379388E+03  0.00000000000E+00 0. -1.
         25    2    1    2    0    0 -0.38091773418E+02 -0.55228841045E+02 -0.37002687457E+03  0.39631980650E+03  0.12509313745E+03 0.  0.
          5    1    3    3  502    0  0.32467910306E+02 -0.38409132726E+01 -0.27822444618E+02  0.43133266036E+02  0.41800000000E+01 0. -1.
         -5    1    3    3    0  502 -0.70559683724E+02 -0.51387927772E+02 -0.34220442995E+03  0.35318654047E+03  0.41800000000E+01 0. -1.
        -11    1    1    2    0    0 -0.29785974054E+02  0.64013342853E+01 -0.34091536447E+02  0.45721047541E+02  0.00000000000E+00 0. -1.
         11    1    1    2    0    0  0.67877747473E+02  0.48827506760E+02 -0.85242384364E+02  0.11940593834E+03  0.00000000000E+00 0.  1.
</event>
<event>
 7    1  0.2719869E-009  0.4237872E+03  0.7561462E-02  0.1035841E+00
         -2   -1    0    0    0  501 -0.00000000000E+00  0.00000000000E+00  0.14843618123E+03  0.14843618123E+03  0.00000000000E+00 0.  1.
          2   -1    0    0  501    0  0.00000000000E+00 -0.00000000000E+00 -0.14383725235E+04  0.14383725235E+04  0.00000000000E+00 0. -1.
         25    2    1    2    0    0 -0.18870013269E+03  0.37335379560E+03 -0.92952288163E+03  0.10269670164E+04  0.12509064134E+03 0.  0.
          5    1    3    3  502    0 -0.91418843814E+02  0.22374745501E+03 -0.39164202204E+03  0.46024045287E+03  0.41800000000E+01 0. -1.
         -5    1    3    3    0  502 -0.97281288874E+02  0.14960634059E+03 -0.53788085959E+03  0.56672656354E+03  0.41800000000E+01 0. -1.
        -11    1    1    2    0    0  0.90509931879E+02 -0.90807288707E+02 -0.12658271914E+03  0.18016990935E+03  0.00000000000E+00 0.  1.
         11    1    1    2    0    0  0.98190200809E+02 -0.28254650689E+03 -0.23383074153E+03  0.37967177901E+03  0.00000000000E+00 0. -1.
</event>
<event>
 7    1  0.2719869E-009  0.1064256E+03  0.7561462E-02  0.1267336E+00
          1   -1    0    0  501    0  0.00000000000E+00  0.00000000000E+00  0.90336553209E+03  0.90336553209E+03  0.00000000000E+00 0. -1.
         -1   -1    0    0    0  501 -0.00000000000E+00 -0.00000000000E+00 -0.18687965036E+02  0.18687965036E+02  0.00000000000E+00 0.  1.
         25    2    1    2    0    0  0.10358837146E+02  0.68272130123E+02  0.56454663585E+03  0.58234783208E+03  0.12509078389E+03 0.  0.
          5    1    3    3  502    0 -0.55183571055E+02  0.14099269401E+02  0.20015427777E+03  0.20814231483E+03  0.41800000000E+01 0. -1.
         -5    1    3    3    0  502  0.65542408202E+02  0.54172860722E+02  0.36439235808E+03  0.37420551725E+03  0.41800000000E+01 0. -1.
        -11    1    1    2    0    0 -0.73616051215E+01 -0.10880985713E+02 -0.12779400005E+01  0.13199326146E+02  0.00000000000E+00 0.  1.
         11    1    1    2    0    0 -0.29972320250E+01 -0.57391144410E+02  0.32140887121E+03  0.32650633891E+03  0.00000000000E+00 0. -1.
</event>
<event>
 6    1  0.2719869E-009  0.1211256E+03  0.7561462E-02  0.1241252E+00
         -2   -1    0    0    0  501 -0.00000000000E+00  0.00000000000E+00  0.39164070843E+03  0.39164070843E+03  0.00000000000E+00 0.  1.
          2   -1    0    0  501    0  0.00000000000E+00 -0.00000000000E+00 -0.60395232905E+02  0.60395232905E+02  0.00000000000E+00 0. -1.
          5    1    1    2  502    0  0.76200063806E+02 -0.63315850422E+02  0.77479828903E+02  0.12584094296E+03  0.41800000000E+01 0. -1.
         -5    1    1    2    0  502  0.45037128964E+01  0.43230738263E+01  0.16267425346E+03  0.16284765130E+03  0.41800000000E+01 0. -1.
        -11    1    1    2    0    0 -0.51986051238E+02  0.83141338715E+02  0.64885420394E+02  0.11758039593E+03  0.00000000000E+00 0.  1.
         11    1    1    2    0    0 -0.28717725464E+02 -0.24148562119E+02  0.26205972775E+02  0.45766951147E+02  0.00000000000E+00 0. -1.
</event>
<event>
 7    1  0.2719869E-009  0.8719994E+02  0.7561462E-02  0.1309778E+00
          2   -1    0    0  501    0  0.00000000000E+00  0.00000000000E+00  0.26262938522E+03  0.26262938522E+03  0.00000000000E+00 0. -1.
         -2   -1    0    0    0  501 -0.00000000000E+00 -0.00000000000E+00 -0.46142477882E+02  0.46142477882E+02  0.00000000000E+00 0.  1.
         25    2    1    2    0    0 -0.35439168100E+01 -0.35449362585E+01  0.99770730122E+02  0.16008842237E+03  0.12509587710E+03 0.  0.
          5    1    3    3  502    0 -0.55492592055E+02  0.29394188843E+02  0.58267293481E+02  0.85767103252E+02  0.41800000000E+01 0. -1.
         -5    1    3    3    0  502  0.51948675245E+02 -0.32939125102E+02  0.41503436641E+02  0.74321319116E+02  0.41800000000E+01 0. -1.
        -11    1    1    2    0    0 -0.26119637386E+00 -0.22996503606E+02 -0.54288931753E+01  0.23630071577E+02  0.00000000000E+00 0.  1.
         11    1    1    2    0    0  0.38051131839E+01  0.26541439864E+02  0.12214507039E+03  0.12505336915E+03  0.00000000000E+00 0. -1.
</event>
<event>
 7    1  0.2719869E-009  0.9997554E+02  0.7561462E-02  0.1280347E+00
          1   -1    0    0  501    0  0.00000000000E+00  0.00000000000E+00  0.69051858660E+02  0.69051858660E+02  0.00000000000E+00 0. -1.
         -1   -1    0    0    0  501 -0.00000000000E+00 -0.00000000000E+00 -0.16617831627E+03  0.16617831627E+03  0.00000000000E+00 0.  1.
         25    2    1    2    0    0 -0.22283946740E+02  0.44975361669E+01 -0.91230625237E+02  0.15647710147E+03  0.12508099051E+03 0.  0.
          5    1    3    3  502    0  0.37258896672E+02 -0.38198224203E+02 -0.43029657024E+02  0.68675712571E+02  0.41800000000E+01 0. -1.
         -5    1    3    3    0  502 -0.59542843412E+02  0.42695760370E+02 -0.48200968213E+02  0.87801388895E+02  0.41800000000E+01 0. -1.
        -11    1    1    2    0    0 -0.24769948013E+02 -0.75267567620E+01 -0.16132394053E+02  0.30503385547E+02  0.00000000000E+00 0.  1.
         11    1    1    2    0    0  0.47053894753E+02  0.30292205951E+01  0.10236561683E+02  0.48249687915E+02  0.00000000000E+00 0. -1.
</event>
<event>
 7    1  0.2719869E-009  0.1052554E+03  0.7561462E-02  0.1269617E+00
         -3   -1    0    0    0  501 -0.00000000000E+00  0.00000000000E+00  0.31536387545E+03  0.31536387545E+03  0.00000000000E+00 0.  1.
          3   -1    0    0  501    0  0.00000000000E+00 -0.00000000000E+00 -0.50059430862E+02  0.50059430862E+02  0.00000000000E+00 0. -1.
         25    2    1    2    0    0  0.17283672368E+02 -0.41481449445E+02  0.10546774389E+03  0.16967694512E+03  0.12508950685E+03 0.  0.
          5    1    3    3  502    0  0.11691370501E+02 -0.86184049688E+02  0.61623119813E+02  0.10667361370E+03  0.41800000000E+01 0.  1.
         -5    1    3    3    0  502  0.55923018674E+01  0.44702600243E+02  0.43844624077E+02  0.63003331413E+02  0.41800000000E+01 0.  1.
        -11    1    1    2    0    0 -0.36608828647E+02  0.50538272814E+01  0.72172001699E+01  0.37654156256E+02  0.00000000000E+00 0. -1.
         11    1    1    2    0    0  0.19325156278E+02  0.36427622163E+02  0.15261950052E+03  0.15809220494E+03  0.00000000000E+00 0.  1.
</event>
<event>
 7    1  0.2719869E-009  0.9681273E+02  0.7561462E-02  0.1287145E+00
         -1   -1    0    0    0  501 -0.00000000000E+00  0.00000000000E+00  0.10673404043E+03  0.10673404043E+03  0.00000000000E+00 0.  1.
          1   -1    0    0  501    0  0.00000000000E+00 -0.00000000000E+00 -0.19476694689E+03  0.19476694689E+03  0.00000000000E+00 0. -1.
         25    2    1    2    0    0  0.21692233280E+02  0.67863942795E+02 -0.11367371467E+03  0.18343841816E+03  0.12510744235E+03 0.  0.
          5    1    3    3  502    0  0.43398213767E+02  0.21209368100E+02  0.99262391992E+01  0.49489846211E+02  0.41800000000E+01 0.  1.
         -5    1    3    3    0  502 -0.21705980486E+02  0.46654574695E+02 -0.12359995387E+03  0.13394857195E+03  0.41800000000E+01 0.  1.
        -11    1    1    2    0    0 -0.41824458569E+02 -0.56817062607E+02  0.48536880208E+02  0.85634646482E+02  0.00000000000E+00 0.  1.
         11    1    1    2    0    0  0.20132225289E+02 -0.11046880188E+02 -0.22896071986E+02  0.32427922680E+02  0.00000000000E+00 0. -1.
</event>
<event>
 7    1  0.2719869E-009  0.1064763E+03  0.7561462E-02  0.1267238E+00
          1   -1    0    0  501    0  0.00000000000E+00  0.00000000000E+00  0.94842202758E+02  0.94842202758E+02  0.00000000000E+00 0. -1.
         -1   -1    0    0    0  501 -0.00000000000E+00 -0.00000000000E+00 -0.13416722538E+03  0.13416722538E+03  0.00000000000E+00 0.  1.
         25    2    1    2    0    0  0.33346390072E+02  0.32684139583E+00 -0.29072833368E+02  0.13268376085E+03  0.12509061594E+03 0.  0.
          5    1    3    3  502    0 -0.29953222782E+02 -0.42735448371E+02 -0.64930148672E+01  0.52755528095E+02  0.41800000000E+01 0.  1.
         -5    1    3    3    0  502  0.63299612855E+02  0.43062289767E+02 -0.22579818501E+02  0.79928232753E+02  0.41800000000E+01 0.  1.
        -11    1    1    2    0    0 -0.35744715844E+02  0.34108344169E+02 -0.28749991511E+02  0.57163151283E+02  0.00000000000E+00 0.  1.
         11    1    1    2    0    0  0.23983257720E+01 -0.34435185565E+02  0.18497802259E+02  0.39162516004E+02  0.00000000000E+00 0. -1.
</event>
<event>
 7    1  0.3825081E-009  0.9311242E+02  0.7561462E-02  0.1295485E+00
          1   -1    0    0  501    0  0.00000000000E+00  0.00000000000E+00  0.14220411455E+04  0.14220411455E+04  0.00000000000E+00 0. -1.
         -1   -1    0    0    0  501 -0.00000000000E+00 -0.00000000000E+00 -0.16061627223E+02  0.16061627223E+02  0.00000000000E+00 0.  1.
         25    2    1    2    0    0 -0.33445006677E+02 -0.42043496567E+02  0.11905359920E+04  0.11982944795E+04  0.12508991687E+03 0.  0.
          5    1    3    3  502    0  0.33447564195E+02 -0.40802905237E+02  0.25914440516E+03  0.26449368943E+03  0.41800000000E+01 0. -1.
         -5    1    3    3    0  502 -0.66892570871E+02 -0.12405913305E+01  0.93139158686E+03  0.93380079009E+03  0.41800000000E+01 0. -1.
        -11    1    1    2    0    0 -0.88570188680E+01  0.85257208426E+01 -0.46878741667E+01  0.13157160154E+02  0.00000000000E+00 0.  1.
         11    1    1    2    0    0  0.42302025545E+02  0.33517775724E+02  0.22013140039E+03  0.22665113300E+03  0.00000000000E+00 0. -1.
</event>
<event>
 7    1  0.2719869E-009  0.9360148E+02  0.7561462E-02  0.1294357E+00
          1   -1    0    0  501    0  0.00000000000E+00  0.00000000000E+00  0.66385468721E+03  0.66385468721E+03  0.00000000000E+00 0. -1.
         -1   -1    0    0    0  501 -0.00000000000E+00 -0.00000000000E+00 -0.26730649556E+02  0.26730649556E+02  0.00000000000E+00 0.  1.
         25    2    1    2    0    0  0.40273243054E+02 -0.17362783539E+02  0.51918858451E+03  0.53584263785E+03  0.12508855221E+03 0.  0.
          5    1    3    3  502    0  0.62272445935E+02 -0.35478145225E+02  0.15844121052E+03  0.17394725034E+03  0.41800000000E+01 0.  1.
         -5    1    3    3    0  502 -0.21999202880E+02  0.18115361686E+02  0.36074737399E+03  0.36189538750E+03  0.41800000000E+01 0.  1.
        -11    1    1    2    0    0 -0.11159817471E+02  0.45062109645E+02  0.10095496042E+03  0.11111723217E+03  0.00000000000E+00 0. -1.
         11    1    1    2    0    0 -0.29113425584E+02 -0.27699326106E+02  0.16980492728E+02  0.43625466751E+02  0.00000000000E+00 0.  1.
</event>
<event>
 7    1  0.2719869E-009  0.8692370E+02  0.7561462E-02  0.1310477E+00
          1   -1    0    0  501    0  0.00000000000E+00  0.00000000000E+00  0.12800132323E+03  0.12800132323E+03  0.00000000000E+00 0. -1.
         -1   -1    0    0    0  501 -0.00000000000E+00 -0.00000000000E+00 -0.13365114657E+03  0.13365114657E+03  0.00000000000E+00 0.  1.
         25    2    1    2    0    0 -0.11312595606E+02  0.38580615934E+02 -0.63651727291E+02  0.14600141069E+03  0.12509368805E+03 0.  0.
          5    1    3    3  502    0  0.32932185030E+02  0.55533408907E+02 -0.72980224695E+02  0.97529861643E+02  0.41800000000E+01 0.  1.
         -5    1    3    3    0  502 -0.44244780636E+02 -0.16952792972E+02  0.93284974037E+01  0.48471549045E+02  0.41800000000E+01 0.  1.
        -11    1    1    2    0    0 -0.14172207780E+02 -0.32393279255E+02 -0.14754267763E+02  0.38312718926E+02  0.00000000000E+00 0.  1.
         11    1    1    2    0    0  0.25484803386E+02 -0.61873366793E+01  0.72756171724E+02  0.77338340186E+02  0.00000000000E+00 0. -1.
</event>
<event>
 7    1  0.2719869E-009  0.8884584E+02  0.7561462E-02  0.1305671E+00
         -1   -1    0    0    0  501 -0.00000000000E+00  0.00000000000E+00  0.82330164538E+02  0.82330164538E+02  0.00000000000E+00 0.  1.
          1   -1    0    0  501    0  0.00000000000E+00 -0.00000000000E+00 -0.17771913829E+03  0.17771913829E+03  0.00000000000E+00 0. -1.
         25    2    1    2    0    0  0.14225867506E+02 -0.92549409861E+01  0.17248648828E+01  0.12624871137E+03  0.12509089785E+03 0.  0.
          5    1    3    3  502    0  0.13080427432E+02  0.46298881489E+02  0.36527257771E+02  0.60550780088E+02  0.41800000000E+01 0. -1.
         -5    1    3    3    0  502  0.11454400740E+01 -0.55553822476E+02 -0.34802392888E+02  0.65697931287E+02  0.41800000000E+01 0. -1.
        -11    1    1    2    0    0 -0.15626069634E+01  0.40205435098E+02 -0.11438378519E+02  0.41830075964E+02  0.00000000000E+00 0.  1.
         11    1    1    2    0    0 -0.12663260543E+02 -0.30950494112E+02 -0.85675460112E+02  0.91970515486E+02  0.00000000000E+00 0. -1.
</event>
<event>
 7    1  0.2719869E-009  0.1353713E+03  0.7561462E-02  0.1219697E+00
         -2   -1    0    0    0  501 -0.00000000000E+00  0.00000000000E+00  0.52963040040E+02  0.52963040040E+02  0.00000000000E+00 0.  1.
          2   -1    0    0  501    0  0.00000000000E+00 -0.00000000000E+00 -0.63405087174E+03  0.63405087174E+03  0.00000000000E+00 0. -1.
         25    2    1    2    0    0 -0.59526514557E+02  0.10386571976E+03 -0.14760145227E+03  0.22751731049E+03  0.12508574733E+03 0.  0.
          5    1    3    3  502    0 -0.36956233469E+02  0.72714874272E+02 -0.16574839798E+03  0.18477884069E+03  0.41800000000E+01 0.  1.
         -5    1    3    3    0  502 -0.22570281088E+02  0.31150845487E+02  0.18146945705E+02  0.42738469806E+02  0.41800000000E+01 0. -1.
        -11    1    1    2    0    0 -0.23511848222E+01 -0.85911824764E+02 -0.28392593167E+03  0.29664845251E+03  0.00000000000E+00 0.  1.
         11    1    1    2    0    0  0.61877699379E+02 -0.17953894994E+02 -0.14956044775E+03  0.16284814877E+03  0.00000000000E+00 0. -1.
</event>
<event>
 7    1  0.2719869E-009  0.9649434E+02  0.7561462E-02  0.1287845E+00
          2   -1    0    0  501    0  0.00000000000E+00  0.00000000000E+00  0.16496635193E+03  0.16496635193E+03  0.00000000000E+00 0. -1.
         -2   -1    0    0    0  501 -0.00000000000E+00 -0.00000000000E+00 -0.78166041798E+02  0.78166041798E+02  0.00000000000E+00 0.  1.
         25    2    1    2    0    0 -0.25994758874E+02  0.84616497743E+01  0.24970835984E+02  0.13045471441E+03  0.12509021887E+03 0.  0.
          5    1    3    3  502    0  0.23899631711E+02 -0.46579319408E+02  0.18835779066E+02  0.55795020974E+02  0.41800000000E+01 0. -1.
         -5    1    3    3    0  502 -0.49894390585E+02  0.55040969183E+02  0.61350569179E+01  0.74659693435E+02  0.41800000000E+01 0. -1.
        -11    1    1    2    0    0 -0.15179526330E+02 -0.18252450249E+02  0.66010288098E+02  0.70149327114E+02  0.00000000000E+00 0. -1.
         11    1    1    2    0    0  0.41174285204E+02  0.97908004752E+01 -0.41808139508E+01  0.42528352205E+02  0.00000000000E+00 0.  1.
</event>
<event>
 6    1  0.2719869E-009  0.9182684E+02  0.7561462E-02  0.1298487E+00
          2   -1    0    0  501    0  0.00000000000E+00  0.00000000000E+00  0.71068827390E+02  0.71068827390E+02  0.00000000000E+00 0. -1.
         -2   -1    0    0    0  501 -0.00000000000E+00 -0.00000000000E+00 -0.16248922951E+03  0.16248922951E+03  0.00000000000E+00 0.  1.
          5    1    1    2  502    0  0.52734865789E+02  0.10658213305E+02 -0.69729126246E+01  0.54411924163E+02  0.41800000000E+01 0.  1.
         -5    1    1    2    0  502 -0.70631041470E+02  0.53856737229E+01 -0.16420395175E+02  0.72834409988E+02  0.41800000000E+01 0.  1.
        -11    1    1    2    0    0 -0.18805288123E+02 -0.33283306168E+00 -0.63388869957E+02  0.66120333285E+02  0.00000000000E+00 0.  1.
         11    1    1    2    0    0  0.36701463804E+02 -0.15711053966E+02 -0.46382243672E+01  0.40191389468E+02  0.00000000000E+00 0. -1.
</event>
<event>
 7    1  0.2719869E-009  0.1918233E+03  0.7561462E-02  0.1156827E+00
          2   -1    0    0  501    0  0.00000000000E+00  0.00000000000E+00  0.17886376671E+04  0.17886376671E+04  0.00000000000E+00 0. -1.
         -2   -1    0    0    0  501 -0.00000000000E+00 -0.00000000000E+00 -0.24337391370E+02  0.24337391370E+02  0.00000000000E+00 0.  1.
         25    2    1    2    0    0  0.16832840916E+03 -0.19522496314E+02  0.11469719096E+04  0.11661504723E+04  0.12508709547E+03 0.  0.
          5    1    3    3  502    0 -0.15440639207E+02  0.16860179806E+02  0.12657484418E+03  0.12869087995E+03  0.41800000000E+01 0.  1.
         -5    1    3    3    0  502  0.18376904837E+03 -0.36382676120E+02  0.10203970654E+04  0.10374595923E+04  0.41800000000E+01 0.  1.
        -11    1    1    2    0    0 -0.16596331903E+02  0.13119808065E+02  0.15754786407E+02  0.26377658937E+02  0.00000000000E+00 0.  1.
         11    1    1    2    0    0 -0.15173207726E+03  0.64026882495E+01  0.60157357978E+03  0.62044692728E+03  0.00000000000E+00 0. -1.
</event>
<event>
 7    1  0.2719869E-009  0.1094140E+03  0.7561462E-02  0.1261659E+00
         -2   -1    0    0    0  501 -0.00000000000E+00  0.00000000000E+00  0.77897583731E+02  0.77897583731E+02  0.00000000000E+00 0.  1.
          2   -1    0    0  501    0  0.00000000000E+00 -0.00000000000E+00 -0.20494423732E+03  0.20494423732E+03  0.00000000000E+00 0. -1.
         25    2    1    2    0    0  0.40930690755E+02  0.44581445811E+02 -0.91351880140E+02  0.16629875651E+03  0.12508910287E+03 0.  0.
          5    1    3    3  502    0  0.73219817633E+02  0.66720568753E+02 -0.71234399622E+02  0.12208434821E+03  0.41800000000E+01 0.  1.
         -5    1    3    3    0  502 -0.32289126878E+02 -0.22139122942E+02 -0.20117480518E+02  0.44214408302E+02  0.41800000000E+01 0.  1.
        -11    1    1    2    0    0 -0.36868631766E+02 -0.56640584472E+02  0.10709061098E+02  0.68426133949E+02  0.00000000000E+00 0.  1.
         11    1    1    2    0    0 -0.40620589892E+01  0.12059138661E+02 -0.46403834550E+02  0.48116930590E+02  0.00000000000E+00 0. -1.
</event>
<event>
 6    1  0.2719869E-009  0.9370710E+02  0.7561462E-02  0.1294115E+00
         -1   -1    0    0    0  501 -0.00000000000E+00  0.00000000000E+00  0.82513628146E+03  0.82513628146E+03  0.00000000000E+00 0.  1.
          1   -1    0    0  501    0  0.00000000000E+00 -0.00000000000E+00 -0.29840507822E+02  0.29840507822E+02  0.00000000000E+00 0. -1.
          5    1    1    2  502    0  0.10300765224E+02  0.53777210452E+02  0.86730437952E+02  0.10265347240E+03  0.41800000000E+01 0. -1.
         -5    1    1    2    0  502  0.55908137714E+01  0.24069279234E+02  0.57061231689E+03  0.57116239021E+03  0.41800000000E+01 0. -1.
        -11    1    1    2    0    0  0.87845461339E+01 -0.81953822867E+02  0.67946272231E+02  0.10681897417E+03  0.00000000000E+00 0. -1.
         11    1    1    2    0    0 -0.24676125129E+02  0.41073331805E+01  0.70006746560E+02  0.74341952497E+02  0.00000000000E+00 0.  1.
</event>
<event>
 7    1  0.2719869E-009  0.1014256E+03  0.7561462E-02  0.1277326E+00
         -2   -1    0    0    0  501 -0.00000000000E+00  0.00000000000E+00  0.68068463385E+02  0.68068463385E+02  0.00000000000E+00 0.  1.
          2   -1    0    0  501    0  0.00000000000E+00 -0.00000000000E+00 -0.28511637520E+03  0.28511637520E+03  0.00000000000E+00 0. -1.
         25    2    1    2    0    0  0.61236439154E+02  0.65961439878E+02 -0.10726370075E+03  0.18775917621E+03  0.12508874338E+03 0.  0.
          5    1    3    3  502    0  0.45995683893E+02  0.67856318939E+02 -0.28424577306E+01  0.82131814315E+02  0.41800000000E+01 0. -1.
         -5    1    3    3    0  502  0.15240755261E+02 -0.18948790606E+01 -0.10442124302E+03  0.10562736189E+03  0.41800000000E+01 0. -1.
        -11    1    1    2    0    0  0.85110741477E+01 -0.18854986929E+02  0.66746936317E+01  0.21737075478E+02  0.00000000000E+00 0.  1.
         11    1    1    2    0    0 -0.69747513302E+02 -0.47106452949E+02 -0.11645890470E+03  0.14368858690E+03  0.00000000000E+00 0. -1.
</event>
<event>
 7    1  0.2719869E-009  0.1176751E+03  0.7561462E-02  0.1246982E+00
         -1   -1    0    0    0  501 -0.00000000000E+00  0.00000000000E+00  0.20234679671E+03  0.20234679671E+03  0.00000000000E+00 0. -1.
          1   -1    0    0  501    0  0.00000000000E+00 -0.00000000000E+00 -0.74853670226E+02  0.74853670226E+02  0.00000000000E+00 0.  1.
         25    2    1    2    0    0 -0.11827954201E+01 -0.56000274876E+02  0.48910084511E+02  0.14552336198E+03  0.12508965874E+03 0.  0.
          5    1    3    3  502    0  0.11506921635E+02 -0.94318405049E+02  0.24680508766E+02  0.98259710408E+02  0.41800000000E+01 0. -1.
         -5    1    3    3    0  502 -0.12689717055E+02  0.38318130173E+02  0.24229575745E+02  0.47263651569E+02  0.41800000000E+01 0. -1.
        -11    1    1    2    0    0  0.27957284005E+02 -0.89927335707E+01  0.45096850001E+02  0.53816399601E+02  0.00000000000E+00 0. -1.
         11    1    1    2    0    0 -0.26774488585E+02  0.64993008447E+02  0.33486191971E+02  0.77860705357E+02  0.00000000000E+00 0.  1.
</event>
<event>
 7    1  0.2719869E-009  0.1078663E+03  0.7561462E-02  0.1264573E+00
         -1   -1    0    0    0  501 -0.00000000000E+00  0.00000000000E+00  0.15078108110E+03  0.15078108110E+03  0.00000000000E+00 0.  1.
          1   -1    0    0  501    0  0.00000000000E+00 -0.00000000000E+00 -0.15293614422E+03  0.15293614422E+03  0.00000000000E+00 0. -1.
         25    2    1    2    0    0  0.40900869366E+02 -0.45481229935E+02  0.86402770319E+02  0.16387519346E+03  0.12509283322E+03 0.  0.
          5    1    3    3  502    0  0.46361218158E+01 -0.67649876141E+02  0.49768635299E+00  0.67939086387E+02  0.41800000000E+01 0.  1.
         -5    1    3    3    0  502  0.36264747550E+02  0.22168646206E+02  0.85905083966E+02  0.95936107075E+02  0.41800000000E+01 0.  1.
        -11    1    1    2    0    0  0.67378115063E+01 -0.21703894383E+02 -0.66322882484E+01  0.23673706568E+02  0.00000000000E+00 0.  1.
         11    1    1    2    0    0 -0.47638680872E+02  0.67185124318E+02 -0.81925545188E+02  0.11616832528E+03  0.00000000000E+00 0. -1.
</event>
<event>
 7    1  0.2719869E-009  0.1853964E+03  0.7561462E-02  0.1162680E+00
         -2   -1    0    0    0  501 -0.00000000000E+00  0.00000000000E+00  0.30196709214E+03  0.30196709214E+03  0.00000000000E+00 0.  1.
          2   -1    0    0  501    0  0.00000000000E+00 -0.00000000000E+00 -0.12450103763E+03  0.12450103763E+03  0.00000000000E+00 0. -1.
         25    2    1    2    0    0 -0.13787802834E+03  0.81373861585E+02  0.10603241497E+03  0.22917719209E+03  0.12508899352E+03 0.  0.
          5    1    3    3  502    0 -0.14898264819E+03  0.53752550418E+02  0.11723512363E+03  0.19709569440E+03  0.41800000000E+01 0.  1.
         -5    1    3    3    0  502  0.11104619849E+02  0.27621311167E+02 -0.11202708662E+02  0.32081497688E+02  0.41800000000E+01 0.  1.
        -11    1    1    2    0    0 -0.74924299069E+01 -0.25460695467E+02  0.20115491653E+02  0.33301899706E+02  0.00000000000E+00 0.  1.
         11    1    1    2    0    0  0.14537045824E+03 -0.55913166118E+02  0.51318147889E+02  0.16398903798E+03  0.00000000000E+00 0. -1.
</event>
<event>
 7    1  0.2719869E-009  0.1174932E+03  0.7561462E-02  0.1247291E+00
          2   -1    0    0  501    0  0.00000000000E+00  0.00000000000E+00  0.35213082471E+03  0.35213082471E+03  0.00000000000E+00 0.  1.
         -2   -1    0    0    0  501 -0.00000000000E+00 -0.00000000000E+00 -0.67160415266E+02  0.67160415266E+02  0.00000000000E+00 0. -1.
         25    2    1    2    0    0 -0.83485731905E+02 -0.63945246839E+02  0.18626320519E+03  0.24779116106E+03  0.12509043076E+03 0.  0.
          5    1    3    3  502    0 -0.28768788168E+02 -0.32883128652E+02  0.17901638769E+03  0.18431842769E+03  0.41800000000E+01 0. -1.
         -5    1    3    3    0  502 -0.54716943737E+02 -0.31062118187E+02  0.72468174949E+01  0.63472733374E+02  0.41800000000E+01 0. -1.
        -11    1    1    2    0    0 -0.94540795899E+01  0.25972974736E+02 -0.39368725796E+01  0.27919061647E+02  0.00000000000E+00 0.  1.
         11    1    1    2    0    0  0.92939811495E+02  0.37972272103E+02  0.10264407683E+03  0.14358101726E+03  0.00000000000E+00 0. -1.
</event>
<event>
 7    1  0.2719869E-009  0.1424395E+03  0.7561462E-02  0.1210084E+00
          4   -1    0    0  501    0  0.00000000000E+00  0.00000000000E+00  0.55190632160E+02  0.55190632160E+02  0.00000000000E+00 0. -1.
         -4   -1    0    0    0  501 -0.00000000000E+00 -0.00000000000E+00 -0.42230967478E+03  0.42230967478E+03  0.00000000000E+00 0.  1.
         25    2    1    2    0    0 -0.25945312323E+02 -0.10403496046E+03 -0.21547004501E+03  0.27123567646E+03  0.12508005299E+03 0.  0.
          5    1    3    3  502    0 -0.33123020223E+02 -0.12462056484E+03 -0.13086752609E+03  0.18376942465E+03  0.41800000000E+01 0. -1.
         -5    1    3    3    0  502  0.71777079000E+01  0.20585604380E+02 -0.84602518918E+02  0.87466251810E+02  0.41800000000E+01 0. -1.
        -11    1    1    2    0    0  0.54803768475E+02  0.73067176866E+02 -0.72907592676E+02  0.11686651550E+03  0.00000000000E+00 0. -1.
         11    1    1    2    0    0 -0.28858456152E+02  0.30967783594E+02 -0.78741404930E+02  0.89398114983E+02  0.00000000000E+00 0.  1.
</event>
<event>
 7    1  0.2719869E-009  0.1173895E+03  0.7561462E-02  0.1247467E+00
          1   -1    0    0  501    0  0.00000000000E+00  0.00000000000E+00  0.56872802456E+03  0.56872802456E+03  0.00000000000E+00 0. -1.
         -1   -1    0    0    0  501 -0.00000000000E+00 -0.00000000000E+00 -0.28686317823E+02  0.28686317823E+02  0.00000000000E+00 0.  1.
         25    2    1    2    0    0 -0.30004505434E+02 -0.29711071611E+02  0.40216769641E+03  0.42328430997E+03  0.12509089859E+03 0.  0.
          5    1    3    3  502    0  0.47930622173E+02 -0.15152869977E+02  0.12026711756E+03  0.13041704635E+03  0.41800000000E+01 0.  1.
         -5    1    3    3    0  502 -0.77935127606E+02 -0.14558201634E+02  0.28190057885E+03  0.29286726363E+03  0.41800000000E+01 0.  1.
        -11    1    1    2    0    0 -0.29861003691E+02  0.33600319983E+02  0.73328579135E+02  0.86010124766E+02  0.00000000000E+00 0. -1.
         11    1    1    2    0    0  0.59865509125E+02 -0.38892483715E+01  0.64545431193E+02  0.88119907647E+02  0.00000000000E+00 0.  1.
</event>
<event>
 7    1  0.2719869E-009  0.2860622E+03  0.7561462E-02  0.1092423E+00
         -3   -1    0    0    0  501 -0.00000000000E+00  0.00000000000E+00  0.37233686484E+03  0.37233686484E+03  0.00000000000E+00 0.  1.
          3   -1    0    0  501    0  0.00000000000E+00 -0.00000000000E+00 -0.29477832652E+03  0.29477832652E+03  0.00000000000E+00 0. -1.
         25    2    1    2    0    0 -0.26362425934E+03 -0.10054384738E+03  0.17515479619E+03  0.35487604070E+03  0.12510390193E+03 0.  0.
          5    1    3    3  502    0 -0.24286770793E+03 -0.70878507368E+02  0.10137572753E+03  0.27258576062E+03  0.41800000000E+01 0.  1.
         -5    1    3    3    0  502 -0.20756551419E+02 -0.29665340010E+02  0.73779068654E+02  0.82290280083E+02  0.41800000000E+01 0.  1.
        -11    1    1    2    0    0  0.16880808838E+02  0.21948881239E+01  0.15985704835E+02  0.23352130523E+02  0.00000000000E+00 0.  1.
         11    1    1    2    0    0  0.24674345051E+03  0.98348959253E+02 -0.11358196270E+03  0.28888702014E+03  0.00000000000E+00 0. -1.
</event>
<event>
 7    1  0.2719869E-009  0.1002010E+03  0.7561462E-02  0.1279874E+00
         -1   -1    0    0    0  501 -0.00000000000E+00  0.00000000000E+00  0.12561926728E+03  0.12561926728E+03  0.00000000000E+00 0.  1.
          1   -1    0    0  501    0  0.00000000000E+00 -0.00000000000E+00 -0.17175701656E+03  0.17175701656E+03  0.00000000000E+00 0. -1.
         25    2    1    2    0    0 -0.42114656117E+02  0.70510343082E+02  0.47928639477E+02  0.15712622028E+03  0.12508453892E+03 0.  0.
          5    1    3    3  502    0  0.19023860482E+02 -0.14285550686E+01 -0.29210784955E+02  0.35138161518E+02  0.41800000000E+01 0. -1.
         -5    1    3    3    0  502 -0.61138516599E+02  0.71938898151E+02  0.77139424432E+02  0.12198805876E+03  0.41800000000E+01 0. -1.
        -11    1    1    2    0    0  0.26241282174E+02 -0.18806516334E+02 -0.63205880280E+00  0.32290702146E+02  0.00000000000E+00 0.  1.
         11    1    1    2    0    0  0.15873373943E+02 -0.51703826748E+02 -0.93434329964E+02  0.10795936141E+03  0.00000000000E+00 0. -1.
</event>
<event>
 7    1  0.2719869E-009  0.1766312E+03  0.7561462E-02  0.1171104E+00
         -1   -1    0    0    0  501 -0.00000000000E+00  0.00000000000E+00  0.46475962812E+02  0.46475962812E+02  0.00000000000E+00 0.  1.
          1   -1    0    0  501    0  0.00000000000E+00 -0.00000000000E+00 -0.98795034399E+03  0.98795034399E+03  0.00000000000E+00 0. -1.
         25    2    1    2    0    0 -0.12577929589E+03  0.11963017203E+03 -0.64252221471E+03  0.67721140216E+03  0.12509467412E+03 0.  0.
          5    1    3    3  502    0 -0.87401678946E+01  0.76032166566E+01  0.21308548913E+01  0.12498495146E+02  0.41800000000E+01 0. -1.
         -5    1    3    3    0  502 -0.11703912799E+03  0.11202695538E+03 -0.64465306960E+03  0.66471290702E+03  0.41800000000E+01 0. -1.
        -11    1    1    2    0    0  0.91432413776E+02 -0.57857361095E+02 -0.10494607060E+03  0.15073499347E+03  0.00000000000E+00 0.  1.
         11    1    1    2    0    0  0.34346882110E+02 -0.61772810937E+02 -0.19400609587E+03  0.20647991117E+03  0.00000000000E+00 0. -1.
</event>
<event>
 7    1  0.2719869E-009  0.1344901E+03  0.7561462E-02  0.1220941E+00
          1   -1    0    0  501    0  0.00000000000E+00  0.00000000000E+00  0.32274216967E+03  0.32274216967E+03  0.00000000000E+00 0. -1.
         -1   -1    0    0    0  501 -0.00000000000E+00 -0.00000000000E+00 -0.10996719608E+03  0.10996719608E+03  0.00000000000E+00 0.  1.
         25    2    1    2    0    0  0.10653274774E+03  0.11765568191E+02  0.24072576443E+03  0.29169330696E+03  0.12509371178E+03 0.  0.
          5    1    3    3  502    0  0.59919216076E+02  0.66536869774E+02  0.16075449369E+03  0.18405691277E+03  0.41800000000E+01 0. -1.
         -5    1    3    3    0  502  0.46613531660E+02 -0.54771301583E+02  0.79971270735E+02  0.10763639419E+03  0.41800000000E+01 0. -1.
        -11    1    1    2    0    0 -0.81034194088E+02 -0.11110669770E+02  0.22199895419E+02  0.84751536569E+02  0.00000000000E+00 0. -1.
         11    1    1    2    0    0 -0.25498553648E+02 -0.65489842099E+00 -0.50150686255E+02  0.56264522232E+02  0.00000000000E+00 0.  1.
</event>
<event>
 7    1  0.2719869E-009  0.1857824E+03  0.7561462E-02  0.1162321E+00
         -1   -1    0    0    0  501 -0.00000000000E+00  0.00000000000E+00  0.95568923107E+02  0.95568923107E+02  0.00000000000E+00 0.  1.
          1   -1    0    0  501    0  0.00000000000E+00 -0.00000000000E+00 -0.43386716085E+03  0.43386716085E+03  0.00000000000E+00 0. -1.
         25    2    1    2    0    0  0.16038992620E+03 -0.33383508981E+02 -0.11489099658E+03  0.23598117869E+03  0.12509112081E+03 0.  0.
          5    1    3    3  502    0 -0.89002534480E+01 -0.34551766224E+02 -0.28597467575E+02  0.45916517860E+02  0.41800000000E+01 0. -1.
         -5    1    3    3    0  502  0.16929017964E+03  0.11682572432E+01 -0.86293529005E+02  0.19006466083E+03  0.41800000000E+01 0. -1.
        -11    1    1    2    0    0 -0.38140486400E+02  0.20683792274E+02 -0.61230224308E+01  0.43817888691E+02  0.00000000000E+00 0.  1.
         11    1    1    2    0    0 -0.12224943980E+03  0.12699716708E+02 -0.21728421873E+03  0.24963701657E+03  0.00000000000E+00 0. -1.
</event>
<event>
 7    1  0.2719869E-009  0.1355259E+03  0.7561462E-02  0.1219479E+00
         -1   -1    0    0    0  501 -0.00000000000E+00  0.00000000000E+00  0.11750733785E+04  0.11750733785E+04  0.00000000000E+00 0.  1.
          1   -1    0    0  501    0  0.00000000000E+00 -0.00000000000E+00 -0.18046954973E+02  0.18046954973E+02  0.00000000000E+00 0. -1.
         25    2    1    2    0    0 -0.90908427851E+02  0.23996258851E+02  0.69786084857E+03  0.71519089871E+03  0.12509234563E+03 0.  0.
          5    1    3    3  502    0 -0.37891344265E+02  0.70967779070E+02  0.45893576573E+03  0.46595245369E+03  0.41800000000E+01 0. -1.
         -5    1    3    3    0  502 -0.53017083586E+02 -0.46971520219E+02  0.23892508284E+03  0.24923844502E+03  0.41800000000E+01 0. -1.
        -11    1    1    2    0    0  0.32139772878E+02  0.26809421010E+02  0.74075125008E+02  0.85081338733E+02  0.00000000000E+00 0.  1.
         11    1    1    2    0    0  0.58768654973E+02 -0.50805679861E+02  0.38509044992E+03  0.39284809601E+03  0.00000000000E+00 0. -1.
</event>
<event>
 7    1  0.2719869E-009  0.7733367E+02  0.7561462E-02  0.1336793E+00
         -1   -1    0    0    0  501 -0.00000000000E+00  0.00000000000E+00  0.10866752845E+03  0.10866752845E+03  0.00000000000E+00 0.  1.
          1   -1    0    0  501    0  0.00000000000E+00 -0.00000000000E+00 -0.13163585087E+03  0.13163585087E+03  0.00000000000E+00 0. -1.
         25    2    1    2    0    0 -0.27359952324E+00  0.22237345917E+02  0.32735533452E+02  0.13120050448E+03  0.12508949922E+03 0.  0.
          5    1    3    3  502    0 -0.33640239123E+02  0.26564023720E+02  0.69137951175E+02  0.81454537855E+02  0.41800000000E+01 0. -1.
         -5    1    3    3    0  502  0.33366639600E+02 -0.43266778032E+01 -0.36402417723E+02  0.49745966621E+02  0.41800000000E+01 0. -1.
        -11    1    1    2    0    0  0.25680425150E+02 -0.39403414005E+02 -0.17750149466E+01  0.47066590584E+02  0.00000000000E+00 0.  1.
         11    1    1    2    0    0 -0.25406825627E+02  0.17166068088E+02 -0.53928840922E+02  0.62036284264E+02  0.00000000000E+00 0. -1.
</event>
<event>
 7    1  0.2719869E-009  0.8176747E+02  0.7561462E-02  0.1324109E+00
          2   -1    0    0  501    0  0.00000000000E+00  0.00000000000E+00  0.29312310572E+03  0.29312310572E+03  0.00000000000E+00 0. -1.
         -2   -1    0    0    0  501 -0.00000000000E+00 -0.00000000000E+00 -0.61752867303E+02  0.61752867303E+02  0.00000000000E+00 0.  1.
         25    2    1    2    0    0  0.35628474949E+02 -0.60023386377E+02  0.16586701465E+03  0.21916071122E+03  0.12508939066E+03 0.  0.
          5    1    3    3  502    0  0.22762810753E+02 -0.19580624194E+02 -0.14653729791E+02  0.33671213135E+02  0.41800000000E+01 0.  1.
         -5    1    3    3    0  502  0.12865664196E+02 -0.40442762183E+02  0.18052074444E+03  0.18548949809E+03  0.41800000000E+01 0.  1.
        -11    1    1    2    0    0  0.12466903391E+02 -0.14181512466E+01 -0.17669758197E+02  0.21671529430E+02  0.00000000000E+00 0.  1.
         11    1    1    2    0    0 -0.48095378339E+02  0.61441537624E+02  0.83172981961E+02  0.11404373236E+03  0.00000000000E+00 0. -1.
</event>
<event>
 7    1  0.2719869E-009  0.1792608E+03  0.7561462E-02  0.1168520E+00
          1   -1    0    0  501    0  0.00000000000E+00  0.00000000000E+00  0.91701309965E+03  0.91701309965E+03  0.00000000000E+00 0. -1.
         -1   -1    0    0    0  501 -0.00000000000E+00 -0.00000000000E+00 -0.38835952559E+02  0.38835952559E+02  0.00000000000E+00 0.  1.
         25    2    1    2    0    0  0.78363885252E+02  0.13042808727E+03  0.52358538733E+03  0.55941156409E+03  0.12508899135E+03 0.  0.
          5    1    3    3  502    0  0.94400413226E+02  0.13903652862E+03  0.39225323562E+03  0.42675832454E+03  0.41800000000E+01 0. -1.
         -5    1    3    3    0  502 -0.16036527974E+02 -0.86084413511E+01  0.13133215171E+03  0.13265323956E+03  0.41800000000E+01 0. -1.
        -11    1    1    2    0    0  0.18583202190E+01  0.99142257305E+01  0.49520615936E+01  0.11236909713E+02  0.00000000000E+00 0.  1.
         11    1    1    2    0    0 -0.80222205471E+02 -0.14034231300E+03  0.34963969817E+03  0.38520057841E+03  0.00000000000E+00 0. -1.
</event>
<event>
 7    1  0.2719869E-009  0.1343053E+03  0.7561462E-02  0.1221204E+00
         -3   -1    0    0    0  501 -0.00000000000E+00  0.00000000000E+00  0.31676280765E+02  0.31676280765E+02  0.00000000000E+00 0.  1.
          3   -1    0    0  501    0  0.00000000000E+00 -0.00000000000E+00 -0.11207732091E+04  0.11207732091E+04  0.00000000000E+00 0. -1.
         25    2    1    2    0    0  0.26764710109E+02 -0.12647147816E+03 -0.82545838889E+03  0.84483170421E+03  0.12509065573E+03 0.  0.
          5    1    3    3  502    0  0.42080768889E+02 -0.97149992804E+02 -0.29720203091E+03  0.31552405897E+03  0.41800000000E+01 0. -1.
         -5    1    3    3    0  502 -0.15316058780E+02 -0.29321485355E+02 -0.52825635798E+03  0.52930764524E+03  0.41800000000E+01 0. -1.
        -11    1    1    2    0    0 -0.13709651860E+02  0.57077399603E+02 -0.21243284326E+03  0.22039395861E+03  0.00000000000E+00 0. -1.
         11    1    1    2    0    0 -0.13055058248E+02  0.69394078556E+02 -0.51205696225E+02  0.87223827080E+02  0.00000000000E+00 0.  1.
</event>
<event>
 7    1  0.2719869E-009  0.7589043E+02  0.7561462E-02  0.1341136E+00
          1   -1    0    0  501    0  0.00000000000E+00  0.00000000000E+00  0.21300180566E+03  0.21300180566E+03  0.00000000000E+00 0. -1.
         -1   -1    0    0    0  501 -0.00000000000E+00 -0.00000000000E+00 -0.55585190980E+02  0.55585190980E+02  0.00000000000E+00 0.  1.
         25    2    1    2    0    0 -0.17811189986E+02 -0.25071791968E+02  0.91484124165E+02  0.15799544005E+03  0.12508949142E+03 0.  0.
          5    1    3    3  502    0  0.49653592306E+01  0.15500457653E+02 -0.26342346741E+02  0.31245969525E+02  0.41800000000E+01 0.  1.
         -5    1    3    3    0  502 -0.22776549216E+02 -0.40572249621E+02  0.11782647091E+03  0.12674947053E+03  0.41800000000E+01 0.  1.
        -11    1    1    2    0    0  0.50968714270E+02  0.10482650499E+02  0.44725587280E+02  0.68615406093E+02  0.00000000000E+00 0.  1.
         11    1    1    2    0    0 -0.33157524284E+02  0.14589141469E+02  0.21206903240E+02  0.41976150497E+02  0.00000000000E+00 0. -1.
</event>
<event>
 7    1  0.2719869E-009  0.7343674E+02  0.7561462E-02  0.1348781E+00
         -1   -1    0    0    0  501 -0.00000000000E+00  0.00000000000E+00  0.39611809749E+03  0.39611809749E+03  0.00000000000E+00 0.  1.
          1   -1    0    0  501    0  0.00000000000E+00 -0.00000000000E+00 -0.25831227566E+02  0.25831227566E+02  0.00000000000E+00 0. -1.
         25    2    1    2    0    0  0.69120559604E+01  0.34318228644E+02  0.17928872109E+03  0.22139958722E+03  0.12509122421E+03 0.  0.
          5    1    3    3  502    0 -0.33528947952E+02  0.29663655723E+02  0.17449866732E+03  0.18019816902E+03  0.41800000000E+01 0.  1.
         -5    1    3    3    0  502  0.40441003913E+02  0.46545729207E+01  0.47900537732E+01  0.41201418200E+02  0.41800000000E+01 0.  1.
        -11    1    1    2    0    0 -0.19434107328E+02  0.47139758930E+01  0.69727047309E+02  0.72538039833E+02  0.00000000000E+00 0.  1.
         11    1    1    2    0    0  0.12522051367E+02 -0.39032204537E+02  0.12127110153E+03  0.12801169801E+03  0.00000000000E+00 0. -1.
</event>
<event>
 7    1  0.2719869E-009  0.8180734E+02  0.7561462E-02  0.1323999E+00
         -2   -1    0    0    0  501 -0.00000000000E+00  0.00000000000E+00  0.16224788545E+03  0.16224788545E+03  0.00000000000E+00 0. -1.
          2   -1    0    0  501    0  0.00000000000E+00 -0.00000000000E+00 -0.10527707375E+03  0.10527707375E+03  0.00000000000E+00 0.  1.
         25    2    1    2    0    0 -0.28135502873E+02 -0.67319917662E+02  0.64211208524E+02  0.15841113875E+03  0.12508969479E+03 0.  0.
          5    1    3    3  502    0 -0.43375016145E+02 -0.43929924667E+02 -0.23561828657E+02  0.66210742908E+02  0.41800000000E+01 0. -1.
         -5    1    3    3    0  502  0.15239513272E+02 -0.23389992995E+02  0.87773037182E+02  0.92200395841E+02  0.41800000000E+01 0. -1.
        -11    1    1    2    0    0  0.10528350249E+02  0.36793158204E+02  0.36539681998E+02  0.52912484444E+02  0.00000000000E+00 0. -1.
         11    1    1    2    0    0  0.17607152624E+02  0.30526759458E+02 -0.43780078831E+02  0.56201336007E+02  0.00000000000E+00 0.  1.
</event>
<event>
 7    1  0.2719869E-009  0.9722223E+02  0.7561462E-02  0.1286248E+00
          3   -1    0    0  501    0  0.00000000000E+00  0.00000000000E+00  0.48369302396E+03  0.48369302396E+03  0.00000000000E+00 0. -1.
         -3   -1    0    0    0  501 -0.00000000000E+00 -0.00000000000E+00 -0.32505531056E+02  0.32505531056E+02  0.00000000000E+00 0.  1.
         25    2    1    2    0    0 -0.21474122007E+02 -0.23859310884E+02  0.14119134439E+03  0.19134553512E+03  0.12509082080E+03 0.  0.
          5    1    3    3  502    0 -0.14476785763E+01  0.34863173819E+02  0.12094692911E+03  0.12594907194E+03  0.41800000000E+01 0. -1.
         -5    1    3    3    0  502 -0.20026443431E+02 -0.58722484703E+02  0.20244415282E+02  0.65396463179E+02  0.41800000000E+01 0. -1.
        -11    1    1    2    0    0  0.28504852619E+02 -0.30824214094E+02  0.13429438099E+03  0.14070408509E+03  0.00000000000E+00 0.  1.
         11    1    1    2    0    0 -0.70307306111E+01  0.54683524978E+02  0.17570176753E+03  0.18414893480E+03  0.00000000000E+00 0. -1.
</event>
<event>
 7    1  0.2719869E-009  0.1042005E+03  0.7561462E-02  0.1271703E+00
         -1   -1    0    0    0  501 -0.00000000000E+00  0.00000000000E+00  0.51576183048E+02  0.51576183048E+02  0.00000000000E+00 0.  1.
          1   -1    0    0  501    0  0.00000000000E+00 -0.00000000000E+00 -0.12151493696E+04  0.12151493696E+04  0.00000000000E+00 0. -1.
         25    2    1    2    0    0  0.88078051722E+02  0.23175660802E+02 -0.11176239223E+04  0.11282844778E+04  0.12509107350E+03 0.  0.
          5    1    3    3  502    0  0.44837153926E+02  0.18803650282E+02 -0.10219963193E+04  0.10231607384E+04  0.41800000000E+01 0. -1.
         -5    1    3    3    0  502  0.43240897796E+02  0.43720105198E+01 -0.95627603051E+02  0.10512373939E+03  0.41800000000E+01 0. -1.
        -11    1    1    2    0    0 -0.69190973583E+02  0.17258986099E+02  0.40445953458E+01  0.71425640900E+02  0.00000000000E+00 0.  1.
         11    1    1    2    0    0 -0.18887078139E+02 -0.40434646900E+02 -0.49993859569E+02  0.67015433933E+02  0.00000000000E+00 0. -1.
</event>
<event>
 7    1  0.2719869E-009  0.1576211E+03  0.7561462E-02  0.1191409E+00
          1   -1    0    0  501    0  0.00000000000E+00  0.00000000000E+00  0.17787701458E+02  0.17787701458E+02  0.00000000000E+00 0. -1.
         -1   -1    0    0    0  501 -0.00000000000E+00 -0.00000000000E+00 -0.17434426231E+04  0.17434426231E+04  0.00000000000E+00 0.  1.
         25    2    1    2    0    0  0.81283049255E+02  0.10774484048E+03 -0.10954908120E+04  0.11108391041E+04  0.12509001279E+03 0.  0.
          5    1    3    3  502    0  0.96948888355E+02  0.80315761272E+02 -0.10334113498E+04  0.10410601321E+04  0.41800000000E+01 0.  1.
         -5    1    3    3    0  502 -0.15665839099E+02  0.27429079211E+02 -0.62079462238E+02  0.69778971996E+02  0.41800000000E+01 0.  1.
        -11    1    1    2    0    0 -0.36215475498E+02 -0.10632587466E+03 -0.50533843728E+03  0.51767140976E+03  0.00000000000E+00 0.  1.
         11    1    1    2    0    0 -0.45067573757E+02 -0.14189658200E+01 -0.12482567234E+03  0.13271981067E+03  0.00000000000E+00 0. -1.
</event>
<event>
 7    1  0.3906970E-009  0.1484621E+03  0.7561462E-02  0.1202376E+00
         -1   -1    0    0    0  501 -0.00000000000E+00  0.00000000000E+00  0.12911673869E+03  0.12911673869E+03  0.00000000000E+00 0.  1.
          1   -1    0    0  501    0  0.00000000000E+00 -0.00000000000E+00 -0.19075221284E+03  0.19075221284E+03  0.00000000000E+00 0. -1.
         25    2    1    2    0    0 -0.95879248004E+02  0.52787633887E+02 -0.38338803538E+01  0.16625737462E+03  0.12508977371E+03 0.  0.
          5    1    3    3  502    0 -0.91680760975E+02  0.88676669146E+02  0.83639148000E+01  0.12789191161E+03  0.41800000000E+01 0.  1.
         -5    1    3    3    0  502 -0.41984870290E+01 -0.35889035259E+02 -0.12197795154E+02  0.38365463007E+02  0.41800000000E+01 0.  1.
        -11    1    1    2    0    0  0.76122518676E+02  0.47355398811E+00 -0.59747263591E+02  0.96770851033E+02  0.00000000000E+00 0. -1.
         11    1    1    2    0    0  0.19756729328E+02 -0.53261187876E+02  0.19456697939E+01  0.56840725880E+02  0.00000000000E+00 0.  1.
</event>
<event>
 7    1  0.2719869E-009  0.2605774E+03  0.7561462E-02  0.1106797E+00
          2   -1    0    0  501    0  0.00000000000E+00  0.00000000000E+00  0.32037273441E+03  0.32037273441E+03  0.00000000000E+00 0. -1.
         -2   -1    0    0    0  501 -0.00000000000E+00 -0.00000000000E+00 -0.26730262839E+03  0.26730262839E+03  0.00000000000E+00 0.  1.
         25    2    1    2    0    0 -0.24014318806E+03 -0.67312983900E+02  0.13502307033E+03  0.30996577277E+03  0.12509101565E+03 0.  0.
          5    1    3    3  502    0 -0.16625223723E+03 -0.87597173179E+01  0.13689137439E+03  0.21557657529E+03  0.41800000000E+01 0.  1.
         -5    1    3    3    0  502 -0.73890950821E+02 -0.58553266582E+02 -0.18683040554E+01  0.94389197479E+02  0.41800000000E+01 0.  1.
        -11    1    1    2    0    0  0.12314848589E+03 -0.40354200592E+01 -0.11844739403E+02  0.12378259993E+03  0.00000000000E+00 0.  1.
         11    1    1    2    0    0  0.11699470216E+03  0.71348403960E+02 -0.70108224914E+02  0.15392699010E+03  0.00000000000E+00 0. -1.
</event>
<event>
 7    1  0.2719869E-009  0.1123662E+03  0.7561462E-02  0.1256250E+00
         -1   -1    0    0    0  501 -0.00000000000E+00  0.00000000000E+00  0.91466636907E+02  0.91466636907E+02  0.00000000000E+00 0.  1.
          1   -1    0    0  501    0  0.00000000000E+00 -0.00000000000E+00 -0.19429325032E+03  0.19429325032E+03  0.00000000000E+00 0. -1.
         25    2    1    2    0    0 -0.72614920552E+02 -0.16133947796E+02 -0.91886924267E+02  0.17211808440E+03  0.12509275425E+03 0.  0.
          5    1    3    3  502    0  0.16865697762E+02 -0.41749403529E+02 -0.63978666681E+01  0.45671320913E+02  0.41800000000E+01 0.  1.
         -5    1    3    3    0  502 -0.89480618314E+02  0.25615455733E+02 -0.85489057599E+02  0.12644676348E+03  0.41800000000E+01 0.  1.
        -11    1    1    2    0    0  0.26030691004E+02  0.28040862380E+02 -0.41675921279E+02  0.56575341374E+02  0.00000000000E+00 0. -1.
         11    1    1    2    0    0  0.46584229549E+02 -0.11906914585E+02  0.30736232132E+02  0.57066461457E+02  0.00000000000E+00 0.  1.
</event>
<event>
 7    1  0.2719869E-009  0.1035628E+03  0.7561462E-02  0.1272977E+00
          2   -1    0    0  501    0  0.00000000000E+00  0.00000000000E+00  0.96686805739E+02  0.96686805739E+02  0.00000000000E+00 0. -1.
         -2   -1    0    0    0  501 -0.00000000000E+00 -0.00000000000E+00 -0.16822006631E+03  0.16822006631E+03  0.00000000000E+00 0.  1.
         25    2    1    2    0    0 -0.34404457155E+02 -0.45865363163E+02 -0.91869423844E+01  0.13791916478E+03  0.12509995161E+03 0.  0.
          5    1    3    3  502    0  0.33244098804E+02 -0.47113363697E+02 -0.32391516921E+02  0.66268559005E+02  0.41800000000E+01 0. -1.
         -5    1    3    3    0  502 -0.67648555958E+02  0.12480005344E+01  0.23204574536E+02  0.71650605775E+02  0.41800000000E+01 0. -1.
        -11    1    1    2    0    0  0.16214527565E+02 -0.12446481642E+02 -0.62653729645E+02  0.65903836366E+02  0.00000000000E+00 0.  1.
         11    1    1    2    0    0  0.18189929590E+02  0.58311844805E+02  0.30741145465E+00  0.61083870906E+02  0.00000000000E+00 0. -1.
</event>
<event>
 7    1  0.2719869E-009  0.9220953E+02  0.7561462E-02  0.1297588E+00
          1   -1    0    0  501    0  0.00000000000E+00  0.00000000000E+00  0.52814472854E+02  0.52814472854E+02  0.00000000000E+00 0. -1.
         -1   -1    0    0    0  501 -0.00000000000E+00 -0.00000000000E+00 -0.24079751698E+03  0.24079751698E+03  0.00000000000E+00 0.  1.
         25    2    1    2    0    0 -0.11479256145E+02 -0.39099672408E+01 -0.72832371086E+02  0.14525254219E+03  0.12508671220E+03 0.  0.
          5    1    3    3  502    0  0.54914205521E+02 -0.68173420747E+01 -0.16122209061E+02  0.57787923877E+02  0.41800000000E+01 0.  1.
         -5    1    3    3    0  502 -0.66393461666E+02  0.29073748338E+01 -0.56710162025E+02  0.87464618317E+02  0.41800000000E+01 0.  1.
        -11    1    1    2    0    0 -0.19349767458E+02 -0.16445609377E+02 -0.10772495489E+03  0.11067762861E+03  0.00000000000E+00 0.  1.
         11    1    1    2    0    0  0.30829023603E+02  0.20355576618E+02 -0.74257181536E+01  0.37681819036E+02  0.00000000000E+00 0. -1.
</event>
<event>
 7    1  0.2719869E-009  0.1260164E+03  0.7561462E-02  0.1233489E+00
          1   -1    0    0  501    0  0.00000000000E+00  0.00000000000E+00  0.29253070227E+03  0.29253070227E+03  0.00000000000E+00 0. -1.
         -1   -1    0    0    0  501 -0.00000000000E+00 -0.00000000000E+00 -0.76354465443E+02  0.76354465443E+02  0.00000000000E+00 0.  1.
         25    2    1    2    0    0  0.81281430109E+02  0.22180859850E+02  0.18676868029E+03  0.24005596909E+03  0.12508264042E+03 0.  0.
          5    1    3    3  502    0  0.68278174305E+02 -0.43999939075E+02  0.82875019842E+02  0.11611909851E+03  0.41800000000E+01 0.  1.
         -5    1    3    3    0  502  0.13003255803E+02  0.66180798924E+02  0.10389366045E+03  0.12393687058E+03  0.41800000000E+01 0.  1.
        -11    1    1    2    0    0 -0.80691463311E+02  0.24185236251E+00 -0.12153144737E+02  0.81601897470E+02  0.00000000000E+00 0.  1.
         11    1    1    2    0    0 -0.58996679791E+00 -0.22422712212E+02  0.41560701273E+02  0.47227301152E+02  0.00000000000E+00 0. -1.
</event>
<event>
 7    1  0.2719869E-009  0.6630177E+02  0.7561462E-02  0.1373141E+00
         -1   -1    0    0    0  501 -0.00000000000E+00  0.00000000000E+00  0.57112511256E+02  0.57112511256E+02  0.00000000000E+00 0.  1.
          1   -1    0    0  501    0  0.00000000000E+00 -0.00000000000E+00 -0.33649884118E+03  0.33649884118E+03  0.00000000000E+00 0. -1.
         25    2    1    2    0    0  0.10982050433E+02  0.57255799700E+02 -0.60576323073E+02  0.15071576215E+03  0.12508764133E+03 0.  0.
          5    1    3    3  502    0  0.14565042269E+02  0.25120695466E+02 -0.97288944550E+02  0.10161594820E+03  0.41800000000E+01 0.  1.
         -5    1    3    3    0  502 -0.35829918360E+01  0.32135104234E+02  0.36712621477E+02  0.49099813954E+02  0.41800000000E+01 0.  1.
        -11    1    1    2    0    0 -0.20267452316E+02 -0.10180083726E+02 -0.42999003984E+01  0.23084472519E+02  0.00000000000E+00 0.  1.
         11    1    1    2    0    0  0.92854018831E+01 -0.47075715974E+02 -0.21451010646E+03  0.21981111777E+03  0.00000000000E+00 0. -1.
</event>
<event>
 7    1  0.2719869E-009  0.1740515E+03  0.7561462E-02  0.1173687E+00
          1   -1    0    0  501    0  0.00000000000E+00  0.00000000000E+00  0.28700149609E+03  0.28700149609E+03  0.00000000000E+00 0.  1.
         -1   -1    0    0    0  501 -0.00000000000E+00 -0.00000000000E+00 -0.16546070785E+03  0.16546070785E+03  0.00000000000E+00 0. -1.
         25    2    1    2    0    0 -0.28200126074E+02  0.15613297714E+03 -0.42598646559E+02  0.20647965242E+03  0.12508576463E+03 0.  0.
          5    1    3    3  502    0 -0.31407545724E+02  0.25763276547E+01 -0.42198209435E+02  0.52832117809E+02  0.41800000000E+01 0.  1.
         -5    1    3    3    0  502  0.32074196506E+01  0.15355664949E+03 -0.40043712336E+00  0.15364753461E+03  0.41800000000E+01 0.  1.
        -11    1    1    2    0    0 -0.71916730069E+01 -0.56073024819E+02  0.11681440428E+03  0.12977484086E+03  0.00000000000E+00 0.  1.
         11    1    1    2    0    0  0.35391799081E+02 -0.10005995232E+03  0.47325030518E+02  0.11620771065E+03  0.00000000000E+00 0. -1.
</event>
<event>
 7    1  0.2719869E-009  0.1423652E+03  0.7561462E-02  0.1210181E+00
          2   -1    0    0  501    0  0.00000000000E+00  0.00000000000E+00  0.11516324799E+03  0.11516324799E+03  0.00000000000E+00 0. -1.
         -2   -1    0    0    0  501 -0.00000000000E+00 -0.00000000000E+00 -0.22108852471E+03  0.22108852471E+03  0.00000000000E+00 0.  1.
         25    2    1    2    0    0 -0.11336483960E+03 -0.16807788210E+00 -0.90435520253E+02  0.19152117198E+03  0.12510060306E+03 0.  0.
          5    1    3    3  502    0 -0.11059302704E+03 -0.40591372458E+02 -0.35458735685E+02  0.12309862503E+03  0.41800000000E+01 0. -1.
         -5    1    3    3    0  502 -0.27718125577E+01  0.40423294576E+02 -0.54976784569E+02  0.68422546947E+02  0.41800000000E+01 0. -1.
        -11    1    1    2    0    0  0.15931702999E+02 -0.21050004820E+02  0.25698711592E+02  0.36842172043E+02  0.00000000000E+00 0. -1.
         11    1    1    2    0    0  0.97433136600E+02  0.21218082702E+02 -0.41188468054E+02  0.10788842867E+03  0.00000000000E+00 0.  1.
</event>
<event>
 7    1  0.2719869E-009  0.7254321E+02  0.7561462E-02  0.1351652E+00
          3   -1    0    0  501    0  0.00000000000E+00  0.00000000000E+00  0.99490722345E+02  0.99490722345E+02  0.00000000000E+00 0. -1.
         -3   -1    0    0    0  501 -0.00000000000E+00 -0.00000000000E+00 -0.12198266733E+03  0.12198266733E+03  0.00000000000E+00 0.  1.
         25    2    1    2    0    0  0.37617345868E+02 -0.59931855068E+01 -0.13271174828E+02  0.13143595521E+03  0.12509317830E+03 0.  0.
          5    1    3    3  502    0 -0.22764867474E+02 -0.82366907006E+00  0.42865697226E+02  0.48722253853E+02  0.41800000000E+01 0.  1.
         -5    1    3    3    0  502  0.60382213342E+02 -0.51695164368E+01 -0.56136872053E+02  0.82713701357E+02  0.41800000000E+01 0.  1.
        -11    1    1    2    0    0 -0.22802070843E+02  0.27084282266E+02 -0.37637596969E+02  0.51672831219E+02  0.00000000000E+00 0.  1.
         11    1    1    2    0    0 -0.14815275024E+02 -0.21091096759E+02  0.28416826808E+02  0.38364603248E+02  0.00000000000E+00 0. -1.
</event>
<event>
 7    1  0.2719869E-009  0.9229679E+02  0.7561462E-02  0.1297383E+00
          3   -1    0    0  501    0  0.00000000000E+00  0.00000000000E+00  0.31021687974E+02  0.31021687974E+02  0.00000000000E+00 0. -1.
         -3   -1    0    0    0  501 -0.00000000000E+00 -0.00000000000E+00 -0.94418500279E+03  0.94418500279E+03  0.00000000000E+00 0.  1.
         25    2    1    2    0    0 -0.20139041279E+02 -0.18088122269E+02 -0.85363072050E+03  0.86317193196E+03  0.12509043124E+03 0.  0.
          5    1    3    3  502    0 -0.79580700166E+01 -0.66571649325E+02 -0.30802702782E+03  0.31526693077E+03  0.41800000000E+01 0. -1.
         -5    1    3    3    0  502 -0.12180971263E+02  0.48483527057E+02 -0.54560369268E+03  0.54790500118E+03  0.41800000000E+01 0. -1.
        -11    1    1    2    0    0  0.20668481903E+02  0.40164406278E+02  0.34412991749E+01  0.45301304792E+02  0.00000000000E+00 0. -1.
         11    1    1    2    0    0 -0.52944062324E+00 -0.22076284010E+02 -0.62973893494E+02  0.66733454016E+02  0.00000000000E+00 0.  1.
</event>
<event>
 7    1  0.2719869E-009  0.1066973E+03  0.7561462E-02  0.1266811E+00
         -2   -1    0    0    0  501 -0.00000000000E+00  0.00000000000E+00  0.61022224989E+02  0.61022224989E+02  0.00000000000E+00 0.  1.
          2   -1    0    0  501    0  0.00000000000E+00 -0.00000000000E+00 -0.39498939570E+03  0.39498939570E+03  0.00000000000E+00 0. -1.
         25    2    1    2    0    0  0.20970391380E+02 -0.63639480846E+02 -0.30822753727E+03  0.33932525656E+03  0.12509066382E+03 0.  0.
          5    1    3    3  502    0  0.54036315152E+02 -0.85495411142E+02 -0.20392083807E+03  0.22766328048E+03  0.41800000000E+01 0.  1.
         -5    1    3    3    0  502 -0.33065923773E+02  0.21855930297E+02 -0.10430669920E+03  0.11166197608E+03  0.41800000000E+01 0.  1.
        -11    1    1    2    0    0 -0.21624936881E+02  0.22644635787E+02  0.32716235960E+02  0.45285422825E+02  0.00000000000E+00 0.  1.
         11    1    1    2    0    0  0.65454550134E+00  0.40994845058E+02 -0.58455869404E+02  0.71400941303E+02  0.00000000000E+00 0. -1.
</event>
<event>
 7    1  0.2719869E-009  0.1177634E+03  0.7561462E-02  0.1246833E+00
         -1   -1    0    0    0  501 -0.00000000000E+00  0.00000000000E+00  0.85483087164E+02  0.85483087164E+02  0.00000000000E+00 0.  1.
          1   -1    0    0  501    0  0.00000000000E+00 -0.00000000000E+00 -0.19842380978E+03  0.19842380978E+03  0.00000000000E+00 0. -1.
         25    2    1    2    0    0 -0.42442633146E+02  0.48318628482E+02 -0.97480864657E+02  0.17112740960E+03  0.12508398929E+03 0.  0.
          5    1    3    3  502    0  0.42985631035E+02  0.10252522765E+02 -0.16540416321E+02  0.47370206572E+02  0.41800000000E+01 0. -1.
         -5    1    3    3    0  502 -0.85428264181E+02  0.38066105717E+02 -0.80940448336E+02  0.12375720303E+03  0.41800000000E+01 0. -1.
        -11    1    1    2    0    0  0.49979071323E+02 -0.63357709135E+02  0.10980831591E+02  0.81441301191E+02  0.00000000000E+00 0.  1.
         11    1    1    2    0    0 -0.75364381773E+01  0.15039080653E+02 -0.26440689552E+02  0.31338186151E+02  0.00000000000E+00 0. -1.
</event>
<event>
 7    1  0.2719869E-009  0.1138039E+03  0.7561462E-02  0.1253684E+00
         -4   -1    0    0    0  501 -0.00000000000E+00  0.00000000000E+00  0.48391918995E+03  0.48391918995E+03  0.00000000000E+00 0.  1.
          4   -1    0    0  501    0  0.00000000000E+00 -0.00000000000E+00 -0.29803297900E+02  0.29803297900E+02  0.00000000000E+00 0. -1.
         25    2    1    2    0    0 -0.45439766938E+02 -0.24488145875E+02  0.26202641514E+03  0.29490338368E+03  0.12508285959E+03 0.  0.
          5    1    3    3  502    0 -0.74520978335E+02  0.18360205611E+02  0.19834676366E+03  0.21271902693E+03  0.41800000000E+01 0. -1.
         -5    1    3    3    0  502  0.29081211397E+02 -0.42848351486E+02  0.63679651483E+02  0.82184356750E+02  0.41800000000E+01 0. -1.
        -11    1    1    2    0    0 -0.21039742090E+02  0.24522719094E+02  0.32002793278E+02  0.45477612916E+02  0.00000000000E+00 0.  1.
         11    1    1    2    0    0  0.66479509028E+02 -0.34573219275E-01  0.16008668363E+03  0.17334149126E+03  0.00000000000E+00 0. -1.
</event>
<event>
 7    1  0.2719869E-009  0.1034108E+03  0.7561462E-02  0.1273283E+00
          2   -1    0    0  501    0  0.00000000000E+00  0.00000000000E+00  0.49514090077E+03  0.49514090077E+03  0.00000000000E+00 0. -1.
         -2   -1    0    0    0  501 -0.00000000000E+00 -0.00000000000E+00 -0.36567564140E+02  0.36567564140E+02  0.00000000000E+00 0.  1.
         25    2    1    2    0    0  0.25935805016E+02 -0.39470733476E+01  0.39934755350E+03  0.41930188200E+03  0.12508938560E+03 0.  0.
          5    1    3    3  502    0 -0.47130577879E+02  0.17160200280E+01  0.22848189097E+03  0.23333598736E+03  0.41800000000E+01 0.  1.
         -5    1    3    3    0  502  0.73066382895E+02 -0.56630933756E+01  0.17086566253E+03  0.18596589464E+03  0.41800000000E+01 0.  1.
        -11    1    1    2    0    0 -0.46931080594E+02  0.27598414599E+02  0.59672734715E+02  0.80777683072E+02  0.00000000000E+00 0. -1.
         11    1    1    2    0    0  0.20995275578E+02 -0.23651341251E+02 -0.44695158364E+00  0.31628899843E+02  0.00000000000E+00 0.  1.
</event>
<event>
 7    1  0.2719869E-009  0.1149870E+03  0.7561462E-02  0.1251604E+00
          2   -1    0    0  501    0  0.00000000000E+00  0.00000000000E+00  0.10948278577E+03  0.10948278577E+03  0.00000000000E+00 0. -1.
         -2   -1    0    0    0  501 -0.00000000000E+00 -0.00000000000E+00 -0.14280421739E+03  0.14280421739E+03  0.00000000000E+00 0.  1.
         25    2    1    2    0    0 -0.37590739843E+02 -0.50319627559E+02 -0.30943428243E+02  0.14335412295E+03  0.12509108752E+03 0.  0.
          5    1    3    3  502    0  0.30741835936E+01  0.40171867370E+02 -0.12209543642E+02  0.42305731157E+02  0.41800000000E+01 0.  1.
         -5    1    3    3    0  502 -0.40664923436E+02 -0.90491494929E+02 -0.18733884601E+02  0.10104839180E+03  0.41800000000E+01 0.  1.
        -11    1    1    2    0    0 -0.18506642872E+02  0.95590872045E+01 -0.28096004728E+02  0.34975097716E+02  0.00000000000E+00 0.  1.
         11    1    1    2    0    0  0.56097382715E+02  0.40760540354E+02  0.25718001343E+02  0.73957782488E+02  0.00000000000E+00 0. -1.
</event>
<event>
 7    1  0.2719869E-009  0.9734681E+02  0.7561462E-02  0.1285976E+00
          2   -1    0    0  501    0  0.00000000000E+00  0.00000000000E+00  0.10093465913E+04  0.10093465913E+04  0.00000000000E+00 0. -1.
         -2   -1    0    0    0  501 -0.00000000000E+00 -0.00000000000E+00 -0.17844104464E+02  0.17844104464E+02  0.00000000000E+00 0.  1.
         25    2    1    2    0    0  0.58766981941E+02 -0.22874653823E+02  0.72376110505E+03  0.73719108752E+03  0.12507499503E+03 0.  0.
          5    1    3    3  502    0  0.30001912212E+02 -0.39709975583E+02  0.93225266521E+02  0.10576114416E+03  0.41800000000E+01 0.  1.
         -5    1    3    3    0  502  0.28765069728E+02  0.16835321760E+02  0.63053583853E+03  0.63142994336E+03  0.41800000000E+01 0.  1.
        -11    1    1    2    0    0 -0.54924748691E+02  0.55631649862E+02  0.19711609820E+03  0.21205274027E+03  0.00000000000E+00 0.  1.
         11    1    1    2    0    0 -0.38422332491E+01 -0.32756996039E+02  0.70625283576E+02  0.77946867968E+02  0.00000000000E+00 0. -1.
</event>
<event>
 7    1  0.2719869E-009  0.2165497E+03  0.7561462E-02  0.1136482E+00
          2   -1    0    0  501    0  0.00000000000E+00  0.00000000000E+00  0.73121331087E+03  0.73121331087E+03  0.00000000000E+00 0. -1.
         -2   -1    0    0    0  501 -0.00000000000E+00 -0.00000000000E+00 -0.70308514509E+02  0.70308514509E+02  0.00000000000E+00 0.  1.
         25    2    1    2    0    0 -0.72314284464E+02  0.18366509277E+03  0.37941107724E+03  0.44560363446E+03  0.12509041318E+03 0.  0.
          5    1    3    3  502    0 -0.22968069268E+02 -0.35202651321E+01  0.11774495545E+03  0.12008859815E+03  0.41800000000E+01 0. -1.
         -5    1    3    3    0  502 -0.49346215196E+02  0.18718535790E+03  0.26166612180E+03  0.32551503631E+03  0.41800000000E+01 0. -1.
        -11    1    1    2    0    0  0.48774830881E+02 -0.18592563507E+03  0.26371597209E+03  0.32633332627E+03  0.00000000000E+00 0.  1.
         11    1    1    2    0    0  0.23539453583E+02  0.22605423016E+01  0.17777747031E+02  0.29584864643E+02  0.00000000000E+00 0. -1.
</event>
<event>
 7    1  0.2719869E-009  0.1082604E+03  0.7561462E-02  0.1263826E+00
         -2   -1    0    0    0  501 -0.00000000000E+00  0.00000000000E+00  0.14312386368E+02  0.14312386368E+02  0.00000000000E+00 0.  1.
          2   -1    0    0  501    0  0.00000000000E+00 -0.00000000000E+00 -0.14754246759E+04  0.14754246759E+04  0.00000000000E+00 0. -1.
         25    2    1    2    0    0 -0.22002975934E+01 -0.53547549455E+02 -0.12020444700E+04  0.12097231251E+04  0.12508776995E+03 0.  0.
          5    1    3    3  502    0 -0.52570869767E+01  0.28233030025E+02 -0.73301005763E+03  0.73358432231E+03  0.41800000000E+01 0.  1.
         -5    1    3    3    0  502  0.30567893833E+01 -0.81780579480E+02 -0.46903441233E+03  0.47613880276E+03  0.41800000000E+01 0.  1.
        -11    1    1    2    0    0  0.34039105796E+02  0.63626494259E+02 -0.19148223043E+03  0.20462755451E+03  0.00000000000E+00 0. -1.
         11    1    1    2    0    0 -0.31838808203E+02 -0.10078944804E+02 -0.67585589167E+02  0.75386382718E+02  0.00000000000E+00 0.  1.
</event>
<event>
 7    1  0.2719869E-009  0.2554129E+03  0.7561462E-02  0.1109931E+00
          1   -1    0    0  501    0  0.00000000000E+00  0.00000000000E+00  0.16464892922E+04  0.16464892922E+04  0.00000000000E+00 0. -1.
         -1   -1    0    0    0  501 -0.00000000000E+00 -0.00000000000E+00 -0.41351300266E+02  0.41351300266E+02  0.00000000000E+00 0.  1.
         25    2    1    2    0    0  0.23009977806E+03  0.23760265491E+02  0.98447888431E+03  0.10189978079E+04  0.12508957130E+03 0.  0.
          5    1    3    3  502    0  0.73723211616E+02 -0.49782826681E+02  0.29258281134E+03  0.30583592931E+03  0.41800000000E+01 0.  1.
         -5    1    3    3    0  502  0.15637656645E+03  0.73543092172E+02  0.69189607297E+03  0.71316187863E+03  0.41800000000E+01 0.  1.
        -11    1    1    2    0    0 -0.14760595768E+03  0.29763046277E+02  0.35790407378E+03  0.38828943289E+03  0.00000000000E+00 0.  1.
         11    1    1    2    0    0 -0.82493820377E+02 -0.53523311768E+02  0.26275503382E+03  0.28055335161E+03  0.00000000000E+00 0. -1.
</event>
<event>
 7    1  0.2719869E-009  0.2327093E+03  0.7561462E-02  0.1124747E+00
         -2   -1    0    0    0  501 -0.00000000000E+00  0.00000000000E+00  0.20218968757E+03  0.20218968757E+03  0.00000000000E+00 0.  1.
          2   -1    0    0  501    0  0.00000000000E+00 -0.00000000000E+00 -0.55033625605E+03  0.55033625605E+03  0.00000000000E+00 0. -1.
         25    2    1    2    0    0 -0.78660280352E+02 -0.19583387327E+03  0.86932129213E+02  0.26027417124E+03  0.12508838275E+03 0.  0.
          5    1    3    3  502    0 -0.11002087937E+03 -0.17589674866E+03  0.79027925353E+02  0.22205212332E+03  0.41800000000E+01 0.  1.
         -5    1    3    3    0  502  0.31360599016E+02 -0.19937124615E+02  0.79042038598E+01  0.38222047920E+02  0.41800000000E+01 0.  1.
        -11    1    1    2    0    0  0.20750973893E+02  0.13475120221E+03 -0.19572905038E+03  0.23853375144E+03  0.00000000000E+00 0.  1.
         11    1    1    2    0    0  0.57909306459E+02  0.61082671057E+02 -0.23934964731E+03  0.25371802093E+03  0.00000000000E+00 0. -1.
</event>
<event>
 7    1  0.2719869E-009  0.1383621E+03  0.7561462E-02  0.1215550E+00
         -1   -1    0    0    0  501 -0.00000000000E+00  0.00000000000E+00  0.15959455089E+02  0.15959455089E+02  0.00000000000E+00 0.  1.
          1   -1    0    0  501    0  0.00000000000E+00 -0.00000000000E+00 -0.22394729038E+04  0.22394729038E+04  0.00000000000E+00 0. -1.
         25    2    1    2    0    0 -0.56312857610E+02  0.99101214168E+02 -0.17921468264E+04  0.18001193694E+04  0.12508919953E+03 0.  0.
          5    1    3    3  502    0 -0.51743473749E+02  0.10855725417E+03 -0.17777385085E+04  0.17818063142E+04  0.41800000000E+01 0.  1.
         -5    1    3    3    0  502 -0.45693838611E+01 -0.94560400042E+01 -0.14408317940E+02  0.18313055106E+02  0.41800000000E+01 0.  1.
        -11    1    1    2    0    0  0.71226015054E+02 -0.35158262478E+02 -0.21501423469E+03  0.22921686186E+03  0.00000000000E+00 0. -1.
         11    1    1    2    0    0 -0.14913157443E+02 -0.63942951690E+02 -0.21635238755E+03  0.22609612764E+03  0.00000000000E+00 0.  1.
</event>
<event>
 7    1  0.2719869E-009  0.1485869E+03  0.7561462E-02  0.1202220E+00
          3   -1    0    0  501    0  0.00000000000E+00  0.00000000000E+00  0.70464245814E+03  0.70464245814E+03  0.00000000000E+00 0. -1.
         -3   -1    0    0    0  501 -0.00000000000E+00 -0.00000000000E+00 -0.18136346671E+03  0.18136346671E+03  0.00000000000E+00 0.  1.
         25    2    1    2    0    0  0.39838124285E+02  0.11304448924E+03 -0.12944353782E+03  0.21626031593E+03  0.12508701799E+03 0.  0.
          5    1    3    3  502    0  0.30793353103E+02 -0.51654580294E+01 -0.83151715648E+02  0.88919023651E+02  0.41800000000E+01 0.  1.
         -5    1    3    3    0  502  0.90447711825E+01  0.11820994727E+03 -0.46291822177E+02  0.12734129228E+03  0.41800000000E+01 0.  1.
        -11    1    1    2    0    0  0.12547783427E+02  0.81831883457E+01  0.35121027587E+02  0.38182430766E+02  0.00000000000E+00 0.  1.
         11    1    1    2    0    0 -0.52385907712E+02 -0.12122767759E+03  0.61760150167E+03  0.63156317815E+03  0.00000000000E+00 0. -1.
</event>
<event>
 7    1  0.2719869E-009  0.1539860E+03  0.7561462E-02  0.1195659E+00
         -2   -1    0    0    0  501 -0.00000000000E+00  0.00000000000E+00  0.87940577547E+02  0.87940577547E+02  0.00000000000E+00 0.  1.
          2   -1    0    0  501    0  0.00000000000E+00 -0.00000000000E+00 -0.44548460191E+03  0.44548460191E+03  0.00000000000E+00 0. -1.
         25    2    1    2    0    0 -0.56547041410E+02 -0.12935743499E+03 -0.71155320771E+02  0.20159628559E+03  0.12508824410E+03 0.  0.
          5    1    3    3  502    0 -0.11948561759E+02 -0.24448308724E+01  0.30382243610E+02  0.33004521704E+02  0.41800000000E+01 0.  1.
         -5    1    3    3    0  502 -0.44598479650E+02 -0.12691260412E+03 -0.10153756438E+03  0.16859176389E+03  0.41800000000E+01 0.  1.
        -11    1    1    2    0    0  0.46181870434E+01  0.10142332792E+03 -0.22426747051E+03  0.24617862910E+03  0.00000000000E+00 0.  1.
         11    1    1    2    0    0  0.51928854366E+02  0.27934107070E+02 -0.62121233080E+02  0.85650264757E+02  0.00000000000E+00 0. -1.
</event>
<event>
 6    1  0.2719869E-009  0.1223658E+03  0.7561462E-02  0.1239245E+00
         -1   -1    0    0    0  501 -0.00000000000E+00  0.00000000000E+00  0.25230260990E+03  0.25230260990E+03  0.00000000000E+00 0.  1.
          1   -1    0    0  501    0  0.00000000000E+00 -0.00000000000E+00 -0.70324586441E+02  0.70324586441E+02  0.00000000000E+00 0. -1.
          5    1    1    2  502    0  0.10280512347E+02  0.60722482816E+02  0.77336353293E+02  0.98950961562E+02  0.41800000000E+01 0.  1.
         -5    1    1    2    0  502  0.60396425118E+02 -0.42110810429E+02  0.22405639957E+02  0.77074857275E+02  0.41800000000E+01 0.  1.
        -11    1    1    2    0    0 -0.25637737435E+02  0.32328922826E+02  0.18333554289E+01  0.41301501474E+02  0.00000000000E+00 0. -1.
         11    1    1    2    0    0 -0.45039200030E+02 -0.50940595214E+02  0.80402674785E+02  0.10529987603E+03  0.00000000000E+00 0.  1.
</event>
<event>
 7    1  0.2719869E-009  0.1199010E+03  0.7561462E-02  0.1243260E+00
          2   -1    0    0  501    0  0.00000000000E+00  0.00000000000E+00  0.59427305892E+03  0.59427305892E+03  0.00000000000E+00 0. -1.
         -2   -1    0    0    0  501 -0.00000000000E+00 -0.00000000000E+00 -0.38529982102E+02  0.38529982102E+02  0.00000000000E+00 0.  1.
         25    2    1    2    0    0 -0.68601324646E+02  0.77241206359E+02  0.33171171117E+03  0.36925771811E+03  0.12508500052E+03 0.  0.
          5    1    3    3  502    0 -0.27899593270E+02  0.39837305057E+02  0.30284931129E+03  0.30675817174E+03  0.41800000000E+01 0. -1.
         -5    1    3    3    0  502 -0.40701731376E+02  0.37403901302E+02  0.28862399873E+02  0.62499546367E+02  0.41800000000E+01 0. -1.
        -11    1    1    2    0    0  0.61940442242E+01 -0.72716953838E+02  0.91946695450E+02  0.11738959223E+03  0.00000000000E+00 0.  1.
         11    1    1    2    0    0  0.62407280422E+02 -0.45242525215E+01  0.13208467020E+03  0.14615573069E+03  0.00000000000E+00 0. -1.
</event>
<event>
 7    1  0.3777617E-009  0.1552355E+03  0.7561462E-02  0.1194183E+00
          1   -1    0    0  501    0  0.00000000000E+00  0.00000000000E+00  0.38699447930E+03  0.38699447930E+03  0.00000000000E+00 0. -1.
         -1   -1    0    0    0  501 -0.00000000000E+00 -0.00000000000E+00 -0.85393140007E+02  0.85393140007E+02  0.00000000000E+00 0.  1.
         25    2    1    2    0    0 -0.29422794694E+02 -0.13533940214E+03  0.10135843846E+03  0.21237564958E+03  0.12508968330E+03 0.  0.
          5    1    3    3  502    0  0.10336502131E+02 -0.31978696117E+02 -0.26624389899E+02  0.43079122776E+02  0.41800000000E+01 0.  1.
         -5    1    3    3    0  502 -0.39759296825E+02 -0.10336070602E+03  0.12798282836E+03  0.16929652681E+03  0.41800000000E+01 0.  1.
        -11    1    1    2    0    0 -0.32422321823E+02  0.33399042339E+02  0.52706180408E+02  0.70318165752E+02  0.00000000000E+00 0. -1.
         11    1    1    2    0    0  0.61845116517E+02  0.10194035980E+03  0.14753672043E+03  0.18969380398E+03  0.00000000000E+00 0.  1.
</event>
<event>
 7    1  0.2719869E-009  0.1410819E+03  0.7561462E-02  0.1211881E+00
         -1   -1    0    0    0  501 -0.00000000000E+00  0.00000000000E+00  0.34599253666E+02  0.34599253666E+02  0.00000000000E+00 0.  1.
          1   -1    0    0  501    0  0.00000000000E+00 -0.00000000000E+00 -0.73337119238E+03  0.73337119238E+03  0.00000000000E+00 0. -1.
         25    2    1    2    0    0 -0.82187108779E+02 -0.19584552905E+02 -0.47847714721E+03  0.50172463182E+03  0.12509576415E+03 0.  0.
          5    1    3    3  502    0 -0.34296371786E+02  0.52739493457E+02 -0.17245850186E+03  0.18362217337E+03  0.41800000000E+01 0. -1.
         -5    1    3    3    0  502 -0.47890736994E+02 -0.72324046362E+02 -0.30601864535E+03  0.31810245845E+03  0.41800000000E+01 0. -1.
        -11    1    1    2    0    0 -0.23950103849E+02 -0.17404513139E+01 -0.39628717496E+01  0.24338056571E+02  0.00000000000E+00 0.  1.
         11    1    1    2    0    0  0.10613721263E+03  0.21325004219E+02 -0.21633191976E+03  0.24190775766E+03  0.00000000000E+00 0. -1.
</event>
<event>
 7    1  0.2719869E-009  0.8895722E+02  0.7561462E-02  0.1305397E+00
          1   -1    0    0  501    0  0.00000000000E+00  0.00000000000E+00  0.59297325029E+03  0.59297325029E+03  0.00000000000E+00 0. -1.
         -1   -1    0    0    0  501 -0.00000000000E+00 -0.00000000000E+00 -0.26298483277E+02  0.26298483277E+02  0.00000000000E+00 0.  1.
         25    2    1    2    0    0 -0.41900202539E+02 -0.43525259168E+02  0.32751431301E+03  0.35575732280E+03  0.12509025680E+03 0.  0.
          5    1    3    3  502    0  0.44199661520E+01 -0.10215362874E+01  0.27114998991E+03  0.27122014871E+03  0.41800000000E+01 0. -1.
         -5    1    3    3    0  502 -0.46320168691E+02 -0.42503722880E+02  0.56364323100E+02  0.84537174100E+02  0.41800000000E+01 0. -1.
        -11    1    1    2    0    0  0.23562388063E+02  0.71505214020E+02  0.18654044615E+03  0.20116043302E+03  0.00000000000E+00 0.  1.
         11    1    1    2    0    0  0.18337814476E+02 -0.27979954852E+02  0.52620007853E+02  0.62353977738E+02  0.00000000000E+00 0. -1.
</event>
<event>
 7    1  0.2719869E-009  0.1446469E+03  0.7561462E-02  0.1207210E+00
         -2   -1    0    0    0  501 -0.00000000000E+00  0.00000000000E+00  0.29785633344E+02  0.29785633344E+02  0.00000000000E+00 0.  1.
          2   -1    0    0  501    0  0.00000000000E+00 -0.00000000000E+00 -0.79229960989E+03  0.79229960989E+03  0.00000000000E+00 0. -1.
         25    2    1    2    0    0 -0.86318585021E+02  0.56553035718E+02 -0.30991219128E+03  0.34977301260E+03  0.12508577084E+03 0.  0.
          5    1    3    3  502    0 -0.71580252461E+02 -0.21474389387E+02 -0.20425182111E+03  0.21753427493E+03  0.41800000000E+01 0. -1.
         -5    1    3    3    0  502 -0.14738332560E+02  0.78027425105E+02 -0.10566037017E+03  0.13223873767E+03  0.41800000000E+01 0. -1.
        -11    1    1    2    0    0  0.77000130851E+02 -0.79186270305E+02 -0.36356092203E+03  0.37996845867E+03  0.00000000000E+00 0. -1.
         11    1    1    2    0    0  0.93184541700E+01  0.22633234587E+02 -0.89040863239E+02  0.92343771974E+02  0.00000000000E+00 0.  1.
</event>
<event>
 7    1  0.2719869E-009  0.9058294E+02  0.7561462E-02  0.1301446E+00
          1   -1    0    0  501    0  0.00000000000E+00  0.00000000000E+00  0.11548012586E+03  0.11548012586E+03  0.00000000000E+00 0. -1.
         -1   -1    0    0    0  501 -0.00000000000E+00 -0.00000000000E+00 -0.11330393038E+03  0.11330393038E+03  0.00000000000E+00 0.  1.
         25    2    1    2    0    0 -0.21205597212E+02 -0.30703062887E+02 -0.11404464504E+02  0.13103484995E+03  0.12509082567E+03 0.  0.
          5    1    3    3  502    0 -0.52786500340E+02 -0.17834954397E+02  0.40345460122E+02  0.68918276016E+02  0.41800000000E+01 0.  1.
         -5    1    3    3    0  502  0.31580903128E+02 -0.12868108490E+02 -0.51749924626E+02  0.62116573934E+02  0.41800000000E+01 0.  1.
        -11    1    1    2    0    0 -0.28986571092E+02 -0.48987459902E+01 -0.11133612761E+02  0.31435272372E+02  0.00000000000E+00 0.  1.
         11    1    1    2    0    0  0.50192168305E+02  0.35601808877E+02  0.24714272740E+02  0.66313933917E+02  0.00000000000E+00 0. -1.
</event>
<event>
 7    1  0.2719869E-009  0.1289822E+03  0.7561462E-02  0.1228974E+00
         -2   -1    0    0    0  501 -0.00000000000E+00  0.00000000000E+00  0.10018918837E+03  0.10018918837E+03  0.00000000000E+00 0. -1.
          2   -1    0    0  501    0  0.00000000000E+00 -0.00000000000E+00 -0.27643194764E+03  0.27643194764E+03  0.00000000000E+00 0.  1.
         25    2    1    2    0    0  0.11560843116E+03 -0.25713157103E+02 -0.43649162836E+02  0.17770426109E+03  0.12508828558E+03 0.  0.
          5    1    3    3  502    0  0.74804604780E+02  0.20501695012E+02 -0.75382181333E+02  0.10824044557E+03  0.41800000000E+01 0.  1.
         -5    1    3    3    0  502  0.40803826377E+02 -0.46214852115E+02  0.31733018497E+02  0.69463815515E+02  0.41800000000E+01 0.  1.
        -11    1    1    2    0    0 -0.38546364025E+02  0.10448301292E+02  0.52277061468E+01  0.40278010018E+02  0.00000000000E+00 0. -1.
         11    1    1    2    0    0 -0.77062067132E+02  0.15264855811E+02 -0.13782130258E+03  0.15863886490E+03  0.00000000000E+00 0.  1.
</event>
<event>
 6    1  0.2719869E-009  0.1044286E+03  0.7561462E-02  0.1271250E+00
          2   -1    0    0  501    0  0.00000000000E+00  0.00000000000E+00  0.95662714838E+03  0.95662714838E+03  0.00000000000E+00 0.  1.
         -2   -1    0    0    0  501 -0.00000000000E+00 -0.00000000000E+00 -0.13429182335E+02  0.13429182335E+02  0.00000000000E+00 0. -1.
          5    1    1    2  502    0 -0.35860870234E+02  0.41952850419E+02  0.39900968230E+03  0.40283029012E+03  0.41800000000E+01 0. -1.
         -5    1    1    2    0  502  0.23758692088E+02 -0.61699476872E+02  0.25469535856E+03  0.26317009513E+03  0.41800000000E+01 0. -1.
        -11    1    1    2    0    0  0.16350542125E+02 -0.31684194051E+02  0.17312623404E+03  0.17675950128E+03  0.00000000000E+00 0.  1.
         11    1    1    2    0    0 -0.42483639790E+01  0.51430820504E+02  0.11636669114E+03  0.12729644418E+03  0.00000000000E+00 0. -1.
</event>
<event>
 7    1  0.2719869E-009  0.8978389E+02  0.7561462E-02  0.1303376E+00
         -3   -1    0    0    0  501 -0.00000000000E+00  0.00000000000E+00  0.18109476770E+02  0.18109476770E+02  0.00000000000E+00 0. -1.
          3   -1    0    0  501    0  0.00000000000E+00 -0.00000000000E+00 -0.75996897149E+03  0.75996897149E+03  0.00000000000E+00 0.  1.
         25    2    1    2    0    0 -0.23814016014E+02 -0.42838862111E+02 -0.36578331038E+03  0.38967824432E+03  0.12509767576E+03 0.  0.
          5    1    3    3  502    0 -0.33315598678E+02  0.48583865437E+01 -0.32297699539E+03  0.32475397609E+03  0.41800000000E+01 0.  1.
         -5    1    3    3    0  502  0.95015826637E+01 -0.47697248654E+02 -0.42806314988E+02  0.64924268230E+02  0.41800000000E+01 0.  1.
        -11    1    1    2    0    0  0.13660286354E+02  0.68176293528E+02 -0.25746257645E+03  0.26668631142E+03  0.00000000000E+00 0. -1.
         11    1    1    2    0    0  0.10153729661E+02 -0.25337431418E+02 -0.11861360788E+03  0.12171389252E+03  0.00000000000E+00 0.  1.
</event>
<event>
 7    1  0.2719869E-009  0.1729156E+03  0.7561462E-02  0.1174841E+00
          1   -1    0    0  501    0  0.00000000000E+00  0.00000000000E+00  0.39923533589E+03  0.39923533589E+03  0.00000000000E+00 0.  1.
         -1   -1    0    0    0  501 -0.00000000000E+00 -0.00000000000E+00 -0.10180952867E+03  0.10180952867E+03  0.00000000000E+00 0. -1.
         25    2    1    2    0    0 -0.15393060788E+03  0.24575938725E+02  0.70885786318E+02  0.21206581999E+03  0.12509399866E+03 0.  0.
          5    1    3    3  502    0 -0.49077528596E+02  0.58686033165E+02 -0.71039105614E+01  0.76945384832E+02  0.41800000000E+01 0. -1.
         -5    1    3    3    0  502 -0.10485307928E+03 -0.34110094440E+02  0.77989696880E+02  0.13512043516E+03  0.41800000000E+01 0. -1.
        -11    1    1    2    0    0  0.12315294237E+03 -0.31939207349E+02  0.10989709750E+03  0.16811939870E+03  0.00000000000E+00 0. -1.
         11    1    1    2    0    0  0.30777665508E+02  0.73632686241E+01  0.11664292340E+03  0.12085964586E+03  0.00000000000E+00 0.  1.
</event>
<event>
 7    1  0.2719869E-009  0.1522414E+03  0.7561462E-02  0.1197746E+00
         -1   -1    0    0    0  501 -0.00000000000E+00  0.00000000000E+00  0.97673985828E+02  0.97673985828E+02  0.00000000000E+00 0.  1.
          1   -1    0    0  501    0  0.00000000000E+00 -0.00000000000E+00 -0.37123389407E+03  0.37123389407E+03  0.00000000000E+00 0. -1.
         25    2    1    2    0    0 -0.13835148766E+03  0.19752168306E+02 -0.17131084082E+03  0.25401835579E+03  0.12508652446E+03 0.  0.
          5    1    3    3  502    0  0.76345131907E+01  0.75570192979E+01  0.13758527277E+02  0.17948922117E+02  0.41800000000E+01 0.  1.
         -5    1    3    3    0  502 -0.14598600085E+03  0.12195149008E+02 -0.18506936810E+03  0.23606943367E+03  0.41800000000E+01 0.  1.
        -11    1    1    2    0    0  0.78286872279E+02  0.10774837613E+02  0.14260014816E+02  0.80301180062E+02  0.00000000000E+00 0.  1.
         11    1    1    2    0    0  0.60064615381E+02 -0.30527005918E+02 -0.11650908223E+03  0.13458834405E+03  0.00000000000E+00 0. -1.
</event>
<event>
 7    1  0.2719869E-009  0.6193509E+02  0.7561462E-02  0.1389886E+00
         -2   -1    0    0    0  501 -0.00000000000E+00  0.00000000000E+00  0.24661285323E+03  0.24661285323E+03  0.00000000000E+00 0.  1.
          2   -1    0    0  501    0  0.00000000000E+00 -0.00000000000E+00 -0.48581599761E+02  0.48581599761E+02  0.00000000000E+00 0. -1.
         25    2    1    2    0    0  0.33276997759E+01 -0.10092034796E+02  0.13281979183E+03  0.18275903165E+03  0.12508734468E+03 0.  0.
          5    1    3    3  502    0 -0.14956341436E+02 -0.22897428403E+01 -0.21770621072E+02  0.26839661199E+02  0.41800000000E+01 0. -1.
         -5    1    3    3    0  502  0.18284041212E+02 -0.78022919554E+01  0.15459041290E+03  0.15591937046E+03  0.41800000000E+01 0. -1.
        -11    1    1    2    0    0  0.36453631684E+02 -0.16494054483E+02  0.45759025020E+02  0.60784944411E+02  0.00000000000E+00 0.  1.
         11    1    1    2    0    0 -0.39781331460E+02  0.26586089279E+02  0.19452436620E+02  0.51650476922E+02  0.00000000000E+00 0. -1.
</event>
<event>
 7    1  0.2719869E-009  0.1270868E+03  0.7561462E-02  0.1231844E+00
         -1   -1    0    0    0  501 -0.00000000000E+00  0.00000000000E+00  0.10485734762E+03  0.10485734762E+03  0.00000000000E+00 0.  1.
          1   -1    0    0  501    0  0.00000000000E+00 -0.00000000000E+00 -0.24647711455E+03  0.24647711455E+03  0.00000000000E+00 0. -1.
         25    2    1    2    0    0  0.49411971952E+02  0.85095339728E+02 -0.37573333938E+01  0.15918485599E+03  0.12507174344E+03 0.  0.
          5    1    3    3  502    0  0.14343971370E+02  0.84073487336E+02  0.46900726379E+02  0.97423053341E+02  0.41800000000E+01 0.  1.
         -5    1    3    3    0  502  0.35068000581E+02  0.10218523927E+01 -0.50658059773E+02  0.61761802654E+02  0.41800000000E+01 0.  1.
        -11    1    1    2    0    0  0.25762176400E+02 -0.33564033632E+02 -0.36977357140E+02  0.56192161621E+02  0.00000000000E+00 0.  1.
         11    1    1    2    0    0 -0.75174148352E+02 -0.51531306096E+02 -0.10088507640E+03  0.13595744455E+03  0.00000000000E+00 0. -1.
</event>
<event>
 7    1  0.2719869E-009  0.7955764E+02  0.7561462E-02  0.1330311E+00
          1   -1    0    0  501    0  0.00000000000E+00  0.00000000000E+00  0.33393885700E+03  0.33393885700E+03  0.00000000000E+00 0. -1.
         -1   -1    0    0    0  501 -0.00000000000E+00 -0.00000000000E+00 -0.40345785418E+02  0.40345785418E+02  0.00000000000E+00 0.  1.
         25    2    1    2    0    0 -0.50507150830E+01 -0.31532046628E+02  0.21189587243E+03  0.24812748570E+03  0.12509040218E+03 0.  0.
          5    1    3    3  502    0 -0.18099104231E+02 -0.72608737008E+02  0.17800685240E+03  0.19314118712E+03  0.41800000000E+01 0.  1.
         -5    1    3    3    0  502  0.13048389148E+02  0.41076690380E+02  0.33889020032E+02  0.54986298572E+02  0.41800000000E+01 0.  1.
        -11    1    1    2    0    0  0.14248466057E+02  0.98711913025E+01 -0.17247347424E+02  0.24452611228E+02  0.00000000000E+00 0.  1.
         11    1    1    2    0    0 -0.91977509736E+01  0.21660855325E+02  0.98944546578E+02  0.10170454549E+03  0.00000000000E+00 0. -1.
</event>
<event>
 7    1  0.2719869E-009  0.1056441E+03  0.7561462E-02  0.1268856E+00
          2   -1    0    0  501    0  0.00000000000E+00  0.00000000000E+00  0.12362058951E+03  0.12362058951E+03  0.00000000000E+00 0. -1.
         -2   -1    0    0    0  501 -0.00000000000E+00 -0.00000000000E+00 -0.11198370326E+03  0.11198370326E+03  0.00000000000E+00 0.  1.
         25    2    1    2    0    0 -0.13558510729E+02 -0.31273920117E+02 -0.19125373208E+02  0.13105492138E+03  0.12509085188E+03 0.  0.
          5    1    3    3  502    0  0.30421434462E+02 -0.64274013699E+02 -0.25244878424E+02  0.75573730875E+02  0.41800000000E+01 0.  1.
         -5    1    3    3    0  502 -0.43979945191E+02  0.33000093582E+02  0.61195052166E+01  0.55481190502E+02  0.41800000000E+01 0.  1.
        -11    1    1    2    0    0  0.43041206611E+02  0.15825011072E+01  0.43093985556E+02  0.60927344989E+02  0.00000000000E+00 0. -1.
         11    1    1    2    0    0 -0.29482695882E+02  0.29691419010E+02 -0.12331726099E+02  0.43622026407E+02  0.00000000000E+00 0.  1.
</event>
<event>
 7    1  0.2719869E-009  0.1281418E+03  0.7561462E-02  0.1230239E+00
         -2   -1    0    0    0  501 -0.00000000000E+00  0.00000000000E+00  0.55722606428E+02  0.55722606428E+02  0.00000000000E+00 0.  1.
          2   -1    0    0  501    0  0.00000000000E+00 -0.00000000000E+00 -0.39970495170E+03  0.39970495170E+03  0.00000000000E+00 0. -1.
         25    2    1    2    0    0 -0.10178650954E+03 -0.14735873118E+01 -0.22819220834E+03  0.27943269971E+03  0.12509310425E+03 0.  0.
          5    1    3    3  502    0 -0.11428958978E+03  0.16779767241E+01 -0.23707673061E+03  0.26322571025E+03  0.41800000000E+01 0. -1.
         -5    1    3    3    0  502  0.12503080244E+02 -0.31515640359E+01  0.88845222641E+01  0.16206989459E+02  0.41800000000E+01 0. -1.
        -11    1    1    2    0    0 -0.10920670526E+02  0.10671000544E+02 -0.17075895173E+01  0.15363826324E+02  0.00000000000E+00 0.  1.
         11    1    1    2    0    0  0.11270718007E+03 -0.91974132325E+01 -0.11408254741E+03  0.16063103209E+03  0.00000000000E+00 0. -1.
</event>
<event>
 7    1  0.2719869E-009  0.1155886E+03  0.7561462E-02  0.1250557E+00
          1   -1    0    0  501    0  0.00000000000E+00  0.00000000000E+00  0.52706536046E+03  0.52706536046E+03  0.00000000000E+00 0. -1.
         -1   -1    0    0    0  501 -0.00000000000E+00 -0.00000000000E+00 -0.27963129997E+02  0.27963129997E+02  0.00000000000E+00 0.  1.
         25    2    1    2    0    0  0.52765079448E+02 -0.16302220869E+02  0.24833024564E+03  0.28348752760E+03  0.12508937361E+03 0.  0.
          5    1    3    3  502    0  0.42384107304E+02 -0.66328818639E+02  0.10520695461E+03  0.13146064215E+03  0.41800000000E+01 0.  1.
         -5    1    3    3    0  502  0.10380972144E+02  0.50026597769E+02  0.14312329102E+03  0.15202688545E+03  0.41800000000E+01 0.  1.
        -11    1    1    2    0    0 -0.28435984578E+02  0.51188968900E+02  0.11180894852E+03  0.12621472467E+03  0.00000000000E+00 0.  1.
         11    1    1    2    0    0 -0.24329094870E+02 -0.34886748031E+02  0.13896303631E+03  0.14532623819E+03  0.00000000000E+00 0. -1.
</event>
<event>
 7    1  0.2719869E-009  0.1287425E+03  0.7561462E-02  0.1229334E+00
         -3   -1    0    0    0  501 -0.00000000000E+00  0.00000000000E+00  0.54136212623E+03  0.54136212623E+03  0.00000000000E+00 0.  1.
          3   -1    0    0  501    0  0.00000000000E+00 -0.00000000000E+00 -0.34622733231E+02  0.34622733231E+02  0.00000000000E+00 0. -1.
         25    2    1    2    0    0  0.73715752616E+01  0.81069160413E+02  0.31685160784E+03  0.35024102518E+03  0.12508910998E+03 0.  0.
          5    1    3    3  502    0  0.64532204797E+02  0.50093949248E+02  0.20623791154E+03  0.22186788358E+03  0.41800000000E+01 0.  1.
         -5    1    3    3    0  502 -0.57160629535E+02  0.30975211165E+02  0.11061369630E+03  0.12837314160E+03  0.41800000000E+01 0.  1.
        -11    1    1    2    0    0 -0.39248244782E+02 -0.62038978804E+02  0.74756778704E+02  0.10477516677E+03  0.00000000000E+00 0. -1.
         11    1    1    2    0    0  0.31876669521E+02 -0.19030181609E+02  0.11513100645E+03  0.12096866751E+03  0.00000000000E+00 0.  1.
</event>
<event>
 7    1  0.2719869E-009  0.1095699E+03  0.7561462E-02  0.1261368E+00
         -1   -1    0    0    0  501 -0.00000000000E+00  0.00000000000E+00  0.27441274178E+03  0.27441274178E+03  0.00000000000E+00 0.  1.
          1   -1    0    0  501    0  0.00000000000E+00 -0.00000000000E+00 -0.55515728953E+02  0.55515728953E+02  0.00000000000E+00 0. -1.
         25    2    1    2    0    0 -0.18699591903E+02 -0.54187559423E+02  0.10958403056E+03  0.17590732389E+03  0.12509500595E+03 0.  0.
          5    1    3    3  502    0 -0.53207464258E+02 -0.60064812098E+02  0.24808121797E+02  0.84093586035E+02  0.41800000000E+01 0.  1.
         -5    1    3    3    0  502  0.34507872355E+02  0.58772526746E+01  0.84775908761E+02  0.91813737860E+02  0.41800000000E+01 0.  1.
        -11    1    1    2    0    0  0.42609484075E+02 -0.18088080706E+01  0.68599866672E+02  0.80776120402E+02  0.00000000000E+00 0.  1.
         11    1    1    2    0    0 -0.23909892172E+02  0.55996367494E+02  0.40713115598E+02  0.73245026438E+02  0.00000000000E+00 0. -1.
</event>
<event>
 7    1  0.2719869E-009  0.1242838E+03  0.7561462E-02  0.1236193E+00
          2   -1    0    0  501    0  0.00000000000E+00  0.00000000000E+00  0.38382341704E+03  0.38382341704E+03  0.00000000000E+00 0. -1.
         -2   -1    0    0    0  501 -0.00000000000E+00 -0.00000000000E+00 -0.51979464689E+02  0.51979464689E+02  0.00000000000E+00 0.  1.
         25    2    1    2    0    0 -0.38158295725E+02 -0.81363362081E+02  0.17257541816E+03  0.23131435236E+03  0.12509197590E+03 0.  0.
          5    1    3    3  502    0  0.26862423101E+02 -0.23007491655E+01  0.10523520393E+03  0.10871432182E+03  0.41800000000E+01 0. -1.
         -5    1    3    3    0  502 -0.65020718826E+02 -0.79062612915E+02  0.67340214230E+02  0.12260003055E+03  0.41800000000E+01 0. -1.
        -11    1    1    2    0    0 -0.15677252686E+02  0.58116820927E+02  0.42070912887E+02  0.73439109727E+02  0.00000000000E+00 0.  1.
         11    1    1    2    0    0  0.53835548411E+02  0.23246541154E+02  0.11719762130E+03  0.13104941963E+03  0.00000000000E+00 0. -1.
</event>
<event>
 7    1  0.2719869E-009  0.1674839E+03  0.7561462E-02  0.1180497E+00
          1   -1    0    0  501    0  0.00000000000E+00  0.00000000000E+00  0.64044310350E+03  0.64044310350E+03  0.00000000000E+00 0. -1.
         -1   -1    0    0    0  501 -0.00000000000E+00 -0.00000000000E+00 -0.49732365257E+02  0.49732365257E+02  0.00000000000E+00 0.  1.
         25    2    1    2    0    0  0.60728765053E+02  0.12679331744E+03  0.28721514592E+03  0.34337625788E+03  0.12510070414E+03 0.  0.
          5    1    3    3  502    0  0.87865118828E+02  0.72385912091E+02  0.12027893482E+03  0.16566379791E+03  0.41800000000E+01 0. -1.
         -5    1    3    3    0  502 -0.27136353775E+02  0.54407405352E+02  0.16693621110E+03  0.17771245997E+03  0.41800000000E+01 0. -1.
        -11    1    1    2    0    0 -0.38764027218E+02 -0.13196531355E+03  0.28877438279E+03  0.31985643333E+03  0.00000000000E+00 0. -1.
         11    1    1    2    0    0 -0.21964737835E+02  0.51719961102E+01  0.14721209544E+02  0.26942777554E+02  0.00000000000E+00 0.  1.
</event>
<event>
 7    1  0.2719869E-009  0.1284345E+03  0.7561462E-02  0.1229797E+00
         -2   -1    0    0    0  501 -0.00000000000E+00  0.00000000000E+00  0.78827843431E+02  0.78827843431E+02  0.00000000000E+00 0.  1.
          2   -1    0    0  501    0  0.00000000000E+00 -0.00000000000E+00 -0.25320352164E+03  0.25320352164E+03  0.00000000000E+00 0. -1.
         25    2    1    2    0    0 -0.57553936322E+02 -0.58214217799E+02 -0.10063898156E+03  0.18021379706E+03  0.12508979695E+03 0.  0.
          5    1    3    3  502    0 -0.46109728684E+01 -0.70826920497E+02 -0.10348348873E+03  0.12555484291E+03  0.41800000000E+01 0. -1.
         -5    1    3    3    0  502 -0.52942963453E+02  0.12612702698E+02  0.28445071669E+01  0.54658954157E+02  0.41800000000E+01 0. -1.
        -11    1    1    2    0    0  0.78527358317E+02  0.71628216837E+02 -0.50160324674E+02  0.11752959467E+03  0.00000000000E+00 0.  1.
         11    1    1    2    0    0 -0.20973421995E+02 -0.13413999038E+02 -0.23576371978E+02  0.34287973344E+02  0.00000000000E+00 0. -1.
</event>
<event>
 7    1  0.2719869E-009  0.6779774E+02  0.7561462E-02  0.1367746E+00
         -1   -1    0    0    0  501 -0.00000000000E+00  0.00000000000E+00  0.67857942961E+02  0.67857942961E+02  0.00000000000E+00 0.  1.
          1   -1    0    0  501    0  0.00000000000E+00 -0.00000000000E+00 -0.20733760058E+03  0.20733760058E+03  0.00000000000E+00 0. -1.
         25    2    1    2    0    0 -0.43329995287E+02  0.17303355240E+02 -0.90958850372E+02  0.16154044646E+03  0.12507960980E+03 0.  0.
          5    1    3    3  502    0 -0.32200930051E+02 -0.25076595010E+02  0.17414323316E+02  0.44569794368E+02  0.41800000000E+01 0.  1.
         -5    1    3    3    0  502 -0.11129065235E+02  0.42379950250E+02 -0.10837317369E+03  0.11697065210E+03  0.41800000000E+01 0.  1.
        -11    1    1    2    0    0  0.34261054135E+02 -0.40584741647E+01  0.22272137003E+02  0.41065059718E+02  0.00000000000E+00 0.  1.
         11    1    1    2    0    0  0.90689411523E+01 -0.13244881075E+02 -0.70792944248E+02  0.72590037358E+02  0.00000000000E+00 0. -1.
</event>
<event>
 7    1  0.2719869E-009  0.2564905E+03  0.7561462E-02  0.1109270E+00
          3   -1    0    0  501    0  0.00000000000E+00  0.00000000000E+00  0.50838053071E+02  0.50838053071E+02  0.00000000000E+00 0.  1.
         -3   -1    0    0    0  501 -0.00000000000E+00 -0.00000000000E+00 -0.16570679219E+04  0.16570679219E+04  0.00000000000E+00 0. -1.
         25    2    1    2    0    0 -0.23777506162E+03 -0.52348084291E+02 -0.11559662887E+04  0.11879339469E+04  0.12510675281E+03 0.  0.
          5    1    3    3  502    0 -0.13932752678E+03 -0.81636362026E+02 -0.84846173304E+03  0.86370217098E+03  0.41800000000E+01 0. -1.
         -5    1    3    3    0  502 -0.98447534843E+02  0.29288277735E+02 -0.30750455570E+03  0.32423177590E+03  0.41800000000E+01 0. -1.
        -11    1    1    2    0    0  0.11184659923E+03 -0.10844421272E+01 -0.12865000687E+03  0.17047481351E+03  0.00000000000E+00 0.  1.
         11    1    1    2    0    0  0.12592846239E+03  0.53432526418E+02 -0.32161357323E+03  0.34949721459E+03  0.00000000000E+00 0. -1.
</event>
<event>
 7    1  0.2719869E-009  0.1366489E+03  0.7561462E-02  0.1217911E+00
         -1   -1    0    0    0  501 -0.00000000000E+00  0.00000000000E+00  0.31863375056E+03  0.31863375056E+03  0.00000000000E+00 0.  1.
          1   -1    0    0  501    0  0.00000000000E+00 -0.00000000000E+00 -0.75748470722E+02  0.75748470722E+02  0.00000000000E+00 0. -1.
         25    2    1    2    0    0  0.63805793133E+02  0.80588721386E+02  0.79212637035E+02  0.18024779187E+03  0.12509557689E+03 0.  0.
          5    1    3    3  502    0  0.53832331963E+00  0.71240528703E+02  0.90414128691E+02  0.11518545823E+03  0.41800000000E+01 0.  1.
         -5    1    3    3    0  502  0.63267469814E+02  0.93481926830E+01 -0.11201491656E+02  0.65062333638E+02  0.41800000000E+01 0.  1.
        -11    1    1    2    0    0 -0.61672472940E+02 -0.46221654456E+01  0.79654148402E+02  0.10084464135E+03  0.00000000000E+00 0. -1.
         11    1    1    2    0    0 -0.21333201930E+01 -0.75966555940E+02  0.84018494405E+02  0.11328978806E+03  0.00000000000E+00 0.  1.
</event>
<event>
 7    1  0.2719869E-009  0.1549216E+03  0.7561462E-02  0.1194553E+00
         -2   -1    0    0    0  501 -0.00000000000E+00  0.00000000000E+00  0.91129182123E+02  0.91129182123E+02  0.00000000000E+00 0.  1.
          2   -1    0    0  501    0  0.00000000000E+00 -0.00000000000E+00 -0.35548162713E+03  0.35548162713E+03  0.00000000000E+00 0. -1.
         25    2    1    2    0    0 -0.13394742512E+03 -0.14602183181E+02 -0.77711478008E+02  0.19960467876E+03  0.12509123678E+03 0.  0.
          5    1    3    3  502    0 -0.13945145742E+02  0.22576435499E+02 -0.68487625681E+02  0.73567586620E+02  0.41800000000E+01 0. -1.
         -5    1    3    3    0  502 -0.12000227938E+03 -0.37178618679E+02 -0.92238523272E+01  0.12603709214E+03  0.41800000000E+01 0. -1.
        -11    1    1    2    0    0  0.41741536837E+02 -0.33279033219E+02 -0.37479851258E+02  0.65227212112E+02  0.00000000000E+00 0.  1.
         11    1    1    2    0    0  0.92205888286E+02  0.47881216400E+02 -0.14916111574E+03  0.18177891838E+03  0.00000000000E+00 0. -1.
</event>
<event>
 7    1  0.2719869E-009  0.1465185E+03  0.7561462E-02  0.1204817E+00
         -1   -1    0    0    0  501 -0.00000000000E+00  0.00000000000E+00  0.34894119778E+02  0.34894119778E+02  0.00000000000E+00 0.  1.
          1   -1    0    0  501    0  0.00000000000E+00 -0.00000000000E+00 -0.69856867782E+03  0.69856867782E+03  0.00000000000E+00 0. -1.
         25    2    1    2    0    0 -0.72420624872E+02  0.75211570480E+02 -0.45680017667E+03  0.48498962263E+03  0.12508799068E+03 0.  0.
          5    1    3    3  502    0  0.31708219576E+02  0.14154625012E+02 -0.17394214019E+03  0.17742351910E+03  0.41800000000E+01 0.  1.
         -5    1    3    3    0  502 -0.10412884445E+03  0.61056945468E+02 -0.28285803648E+03  0.30756610352E+03  0.41800000000E+01 0.  1.
        -11    1    1    2    0    0  0.87043696371E+02 -0.33822382457E+02 -0.13228261319E+03  0.16192358811E+03  0.00000000000E+00 0.  1.
         11    1    1    2    0    0 -0.14623071499E+02 -0.41389188023E+02 -0.74591768182E+02  0.86549586861E+02  0.00000000000E+00 0. -1.
</event>
<event>
 7    1  0.2719869E-009  0.3438034E+03  0.7561462E-02  0.1065187E+00
          2   -1    0    0  501    0  0.00000000000E+00  0.00000000000E+00  0.35172418983E+03  0.35172418983E+03  0.00000000000E+00 0. -1.
         -2   -1    0    0    0  501 -0.00000000000E+00 -0.00000000000E+00 -0.37729800639E+03  0.37729800639E+03  0.00000000000E+00 0.  1.
         25    2    1    2    0    0  0.11848671239E+03  0.31261061266E+03  0.82400388571E+02  0.36633534103E+03  0.12508901586E+03 0.  0.
          5    1    3    3  502    0  0.76869271955E+02  0.28943338636E+03  0.99436870836E+02  0.31557207384E+03  0.41800000000E+01 0.  1.
         -5    1    3    3    0  502  0.41617440434E+02  0.23177226309E+02 -0.17036482265E+02  0.50763267188E+02  0.41800000000E+01 0.  1.
        -11    1    1    2    0    0 -0.11876704569E+03 -0.24095544383E+03 -0.56643020519E+02  0.27454247181E+03  0.00000000000E+00 0.  1.
         11    1    1    2    0    0  0.28033330666E+00 -0.71655168834E+02 -0.51331184613E+02  0.88144383378E+02  0.00000000000E+00 0. -1.
</event>
<event>
 7    1  0.2719869E-009  0.1458024E+03  0.7561462E-02  0.1205728E+00
         -2   -1    0    0    0  501 -0.00000000000E+00  0.00000000000E+00  0.85620975353E+02  0.85620975353E+02  0.00000000000E+00 0.  1.
          2   -1    0    0  501    0  0.00000000000E+00 -0.00000000000E+00 -0.52178481866E+03  0.52178481866E+03  0.00000000000E+00 0. -1.
         25    2    1    2    0    0  0.96075503943E+02 -0.43976676434E+02 -0.15835094702E+02  0.16450688600E+03  0.12508922731E+03 0.  0.
          5    1    3    3  502    0  0.71917822455E+02 -0.85986302821E+02 -0.25205643371E+02  0.11497223281E+03  0.41800000000E+01 0.  1.
         -5    1    3    3    0  502  0.24157681488E+02  0.42009626387E+02  0.93705486691E+01  0.49534653187E+02  0.41800000000E+01 0.  1.
        -11    1    1    2    0    0 -0.35550947715E+02  0.58583913855E+02 -0.14172504783E+03  0.15742278752E+03  0.00000000000E+00 0.  1.
         11    1    1    2    0    0 -0.60524556228E+02 -0.14607237421E+02 -0.27860370077E+03  0.28547612049E+03  0.00000000000E+00 0. -1.
</event>
<event>
 7    1  0.2719869E-009  0.1096366E+03  0.7561462E-02  0.1261244E+00
          2   -1    0    0  501    0  0.00000000000E+00  0.00000000000E+00  0.44323677057E+03  0.44323677057E+03  0.00000000000E+00 0. -1.
         -2   -1    0    0    0  501 -0.00000000000E+00 -0.00000000000E+00 -0.39273105278E+02  0.39273105278E+02  0.00000000000E+00 0.  1.
         25    2    1    2    0    0  0.15207930752E+02 -0.73170708910E+02  0.17536681353E+03  0.22800524839E+03  0.12509052804E+03 0.  0.
          5    1    3    3  502    0 -0.44965234791E+02 -0.15655316615E+01  0.92620579784E+02  0.10305516692E+03  0.41800000000E+01 0.  1.
         -5    1    3    3    0  502  0.60173165543E+02 -0.71605177248E+02  0.82746233747E+02  0.12495008147E+03  0.41800000000E+01 0.  1.
        -11    1    1    2    0    0 -0.23957429493E+02  0.60437725858E+02  0.22998080803E+03  0.23899340827E+03  0.00000000000E+00 0. -1.
         11    1    1    2    0    0  0.87494987410E+01  0.12732983052E+02 -0.13839562716E+01  0.15511219184E+02  0.00000000000E+00 0.  1.
</event>
<event>
 7    1  0.2719869E-009  0.4079697E+03  0.7561462E-02  0.1041054E+00
         -2   -1    0    0    0  501 -0.00000000000E+00  0.00000000000E+00  0.15880048118E+03  0.15880048118E+03  0.00000000000E+00 0.  1.
          2   -1    0    0  501    0  0.00000000000E+00 -0.00000000000E+00 -0.11610441084E+04  0.11610441084E+04  0.00000000000E+00 0. -1.
         25    2    1    2    0    0  0.16916890252E+03  0.36246334463E+03 -0.34038241653E+03  0.53991239499E+03  0.12508961188E+03 0.  0.
          5    1    3    3  502    0  0.97329770860E+02  0.98693711896E+02 -0.16296833867E+03  0.21398524452E+03  0.41800000000E+01 0.  1.
         -5    1    3    3    0  502  0.71839131662E+02  0.26376963273E+03 -0.17741407785E+03  0.32592715046E+03  0.41800000000E+01 0.  1.
        -11    1    1    2    0    0 -0.13803448041E+03 -0.23406776969E+03 -0.51567569963E+03  0.58289164155E+03  0.00000000000E+00 0.  1.
         11    1    1    2    0    0 -0.31134422110E+02 -0.12839557493E+03 -0.14618551105E+03  0.19704055305E+03  0.00000000000E+00 0. -1.
</event>
<event>
 7    1  0.2719869E-009  0.1723028E+03  0.7561462E-02  0.1175467E+00
          2   -1    0    0  501    0  0.00000000000E+00  0.00000000000E+00  0.66832437385E+03  0.66832437385E+03  0.00000000000E+00 0. -1.
         -2   -1    0    0    0  501 -0.00000000000E+00 -0.00000000000E+00 -0.48787686594E+02  0.48787686594E+02  0.00000000000E+00 0.  1.
         25    2    1    2    0    0  0.49571054836E+02  0.13267187366E+03  0.38360057230E+03  0.42761942620E+03  0.12509939671E+03 0.  0.
          5    1    3    3  502    0  0.85578001115E+02  0.85046997260E+02  0.19118119352E+03  0.22610684902E+03  0.41800000000E+01 0.  1.
         -5    1    3    3    0  502 -0.36006946278E+02  0.47624876396E+02  0.19241937877E+03  0.20151257717E+03  0.41800000000E+01 0.  1.
        -11    1    1    2    0    0 -0.70044562501E+02 -0.74012959087E+02  0.17476132013E+03  0.20230095863E+03  0.00000000000E+00 0. -1.
         11    1    1    2    0    0  0.20473507665E+02 -0.58658914569E+02  0.61174794822E+02  0.87191675612E+02  0.00000000000E+00 0.  1.
</event>
<event>
 7    1  0.2719869E-009  0.1444920E+03  0.7561462E-02  0.1207409E+00
          1   -1    0    0  501    0  0.00000000000E+00  0.00000000000E+00  0.74988183082E+02  0.74988183082E+02  0.00000000000E+00 0.  1.
         -1   -1    0    0    0  501 -0.00000000000E+00 -0.00000000000E+00 -0.67531063199E+03  0.67531063199E+03  0.00000000000E+00 0. -1.
         25    2    1    2    0    0 -0.10909390381E+03 -0.68005317979E+02 -0.63024444816E+02  0.19011954284E+03  0.12508859581E+03 0.  0.
          5    1    3    3  502    0 -0.69028484549E+02 -0.66730522603E+02 -0.97634056576E+02  0.13699553179E+03  0.41800000000E+01 0. -1.
         -5    1    3    3    0  502 -0.40065419260E+02 -0.12747953761E+01  0.34609611760E+02  0.53124011048E+02  0.41800000000E+01 0. -1.
        -11    1    1    2    0    0  0.19817557974E+01 -0.16207006746E+02 -0.23454963424E+02  0.28578483741E+02  0.00000000000E+00 0.  1.
         11    1    1    2    0    0  0.10711214801E+03  0.84212324725E+02 -0.51384304067E+03  0.53160078850E+03  0.00000000000E+00 0. -1.
</event>
<event>
 7    1  0.2719869E-009  0.8369676E+02  0.7561462E-02  0.1318876E+00
          2   -1    0    0  501    0  0.00000000000E+00  0.00000000000E+00  0.16352418798E+03  0.16352418798E+03  0.00000000000E+00 0. -1.
         -2   -1    0    0    0  501 -0.00000000000E+00 -0.00000000000E+00 -0.83052868489E+02  0.83052868489E+02  0.00000000000E+00 0.  1.
         25    2    1    2    0    0  0.44289034416E+02  0.74534165355E+01  0.45725067152E+02  0.14055467365E+03  0.12509101699E+03 0.  0.
          5    1    3    3  502    0  0.60114019383E+02  0.25355851955E+02  0.76977479288E+02  0.10099316448E+03  0.41800000000E+01 0.  1.
         -5    1    3    3    0  502 -0.15824984967E+02 -0.17902435420E+02 -0.31252412136E+02  0.39561509166E+02  0.41800000000E+01 0.  1.
        -11    1    1    2    0    0 -0.76390083099E+01  0.26634301537E+02 -0.18209434775E+02  0.33156054969E+02  0.00000000000E+00 0.  1.
         11    1    1    2    0    0 -0.36650026106E+02 -0.34087718072E+02  0.52955687115E+02  0.72866327853E+02  0.00000000000E+00 0. -1.
</event>
<event>
 7    1  0.2719869E-009  0.1287139E+03  0.7561462E-02  0.1229377E+00
         -2   -1    0    0    0  501 -0.00000000000E+00  0.00000000000E+00  0.37812153487E+02  0.37812153487E+02  0.00000000000E+00 0. -1.
          2   -1    0    0  501    0  0.00000000000E+00 -0.00000000000E+00 -0.76438145949E+03  0.76438145949E+03  0.00000000000E+00 0.  1.
         25    2    1    2    0    0 -0.69304399473E+02  0.10605414224E+03 -0.40944935589E+03  0.44648416970E+03  0.12509499541E+03 0.  0.
          5    1    3    3  502    0 -0.31472700126E+02  0.32513100357E+02 -0.32517591209E+03  0.32833592364E+03  0.41800000000E+01 0.  1.
         -5    1    3    3    0  502 -0.37831699347E+02  0.73541041882E+02 -0.84273443803E+02  0.11814824606E+03  0.41800000000E+01 0.  1.
        -11    1    1    2    0    0  0.24424528506E+00 -0.14477476496E+02  0.37486933242E+01  0.14956927595E+02  0.00000000000E+00 0. -1.
         11    1    1    2    0    0  0.69060154188E+02 -0.91576665743E+02 -0.32086864344E+03  0.34075251569E+03  0.00000000000E+00 0.  1.
</event>
<event>
 7    1  0.2719869E-009  0.1062737E+03  0.7561462E-02  0.1267630E+00
         -2   -1    0    0    0  501 -0.00000000000E+00  0.00000000000E+00  0.26643578929E+03  0.26643578929E+03  0.00000000000E+00 0. -1.
          2   -1    0    0  501    0  0.00000000000E+00 -0.00000000000E+00 -0.52068899031E+02  0.52068899031E+02  0.00000000000E+00 0.  1.
         25    2    1    2    0    0 -0.44680902696E+02 -0.89268068303E+01  0.13971305341E+03  0.19298616534E+03  0.12509137370E+03 0.  0.
          5    1    3    3  502    0 -0.26060536140E+02 -0.65575263939E+02  0.56314092147E+02  0.90377077619E+02  0.41800000000E+01 0. -1.
         -5    1    3    3    0  502 -0.18620366556E+02  0.56648457109E+02  0.83398961260E+02  0.10260908772E+03  0.41800000000E+01 0. -1.
        -11    1    1    2    0    0 -0.18445649927E+02  0.28549759548E+01 -0.88546732562E+01  0.20659093093E+02  0.00000000000E+00 0.  1.
         11    1    1    2    0    0  0.63126552623E+02  0.60718308755E+01  0.83508510111E+02  0.10485942989E+03  0.00000000000E+00 0. -1.
</event>
<event>
 7    1  0.2719869E-009  0.8728096E+02  0.7561462E-02  0.1309573E+00
          1   -1    0    0  501    0  0.00000000000E+00  0.00000000000E+00  0.15870445366E+03  0.15870445366E+03  0.00000000000E+00 0. -1.
         -1   -1    0    0    0  501 -0.00000000000E+00 -0.00000000000E+00 -0.10508692625E+03  0.10508692625E+03  0.00000000000E+00 0.  1.
         25    2    1    2    0    0 -0.52687753214E+02  0.19535012680E+02 -0.16130339026E+02  0.13808062267E+03  0.12509378266E+03 0.  0.
          5    1    3    3  502    0  0.21607818032E+02 -0.47583050134E+01 -0.48423659924E+02  0.53402832389E+02  0.41800000000E+01 0.  1.
         -5    1    3    3    0  502 -0.74295571247E+02  0.24293317694E+02  0.32293320898E+02  0.84677790277E+02  0.41800000000E+01 0.  1.
        -11    1    1    2    0    0  0.43507096688E+02 -0.34962492426E+02  0.22429130161E+01  0.55859412794E+02  0.00000000000E+00 0.  1.
         11    1    1    2    0    0  0.91806565261E+01  0.15427479745E+02  0.67504953421E+02  0.69851344454E+02  0.00000000000E+00 0. -1.
</event>
<event>
 7    1  0.2719869E-009  0.1271325E+03  0.7561462E-02  0.1231774E+00
          1   -1    0    0  501    0  0.00000000000E+00  0.00000000000E+00  0.17806223463E+03  0.17806223463E+03  0.00000000000E+00 0.  1.
         -1   -1    0    0    0  501 -0.00000000000E+00 -0.00000000000E+00 -0.94387444731E+02  0.94387444731E+02  0.00000000000E+00 0. -1.
         25    2    1    2    0    0  0.60971163799E+02 -0.25075573888E+02  0.20546682488E+02  0.14288413298E+03  0.12508973609E+03 0.  0.
          5    1    3    3  502    0  0.66280722400E+02  0.38936493852E+02  0.13015795030E+02  0.78077320879E+02  0.41800000000E+01 0.  1.
         -5    1    3    3    0  502 -0.53095586006E+01 -0.64012067740E+02  0.75308874579E+01  0.64806812101E+02  0.41800000000E+01 0.  1.
        -11    1    1    2    0    0 -0.29529370736E+02  0.59417752005E+02  0.41171413613E+02  0.78086735674E+02  0.00000000000E+00 0.  1.
         11    1    1    2    0    0 -0.31441793063E+02 -0.34342178117E+02  0.21956693794E+02  0.51478810701E+02  0.00000000000E+00 0. -1.
</event>
<event>
 7    1  0.2719869E-009  0.1096550E+03  0.7561462E-02  0.1261210E+00
          2   -1    0    0  501    0  0.00000000000E+00  0.00000000000E+00  0.11720412188E+04  0.11720412188E+04  0.00000000000E+00 0. -1.
         -2   -1    0    0    0  501 -0.00000000000E+00 -0.00000000000E+00 -0.17093977187E+02  0.17093977187E+02  0.00000000000E+00 0.  1.
         25    2    1    2    0    0  0.97741884902E+02  0.47367022454E+02  0.72393065763E+03  0.74264422701E+03  0.12509092684E+03 0.  0.
          5    1    3    3  502    0  0.31636917408E+02  0.24864705742E+02  0.46599124500E+02  0.61709796134E+02  0.41800000000E+01 0. -1.
         -5    1    3    3    0  502  0.66104967495E+02  0.22502316712E+02  0.67733153313E+03  0.68093443088E+03  0.41800000000E+01 0. -1.
        -11    1    1    2    0    0 -0.79659752698E+02 -0.41912333411E+02  0.40136866967E+03  0.41133821714E+03  0.00000000000E+00 0. -1.
         11    1    1    2    0    0 -0.18082132204E+02 -0.54546890436E+01  0.29647914273E+02  0.35152751789E+02  0.00000000000E+00 0.  1.
</event>
<event>
 7    1  0.2719869E-009  0.7657081E+02  0.7561462E-02  0.1339075E+00
          1   -1    0    0  501    0  0.00000000000E+00  0.00000000000E+00  0.93904496418E+02  0.93904496418E+02  0.00000000000E+00 0. -1.
         -1   -1    0    0    0  501 -0.00000000000E+00 -0.00000000000E+00 -0.13993286256E+03  0.13993286256E+03  0.00000000000E+00 0.  1.
         25    2    1    2    0    0 -0.15455449713E+02 -0.19638220253E+02  0.49927204305E+01  0.12765934553E+03  0.12508977026E+03 0.  0.
          5    1    3    3  502    0  0.10295501588E+02 -0.32272576312E+02  0.57969235390E+02  0.67271250816E+02  0.41800000000E+01 0.  1.
         -5    1    3    3    0  502 -0.25750951300E+02  0.12634356059E+02 -0.52976514959E+02  0.60388094713E+02  0.41800000000E+01 0.  1.
        -11    1    1    2    0    0  0.24755623603E+02  0.51333920367E+02 -0.44968758292E+02  0.72596153497E+02  0.00000000000E+00 0.  1.
         11    1    1    2    0    0 -0.93001738901E+01 -0.31695700114E+02 -0.60523282794E+01  0.33581859950E+02  0.00000000000E+00 0. -1.
</event>
<event>
 7    1  0.2719869E-009  0.1477855E+03  0.7561462E-02  0.1203221E+00
         -2   -1    0    0    0  501 -0.00000000000E+00  0.00000000000E+00  0.17990071448E+02  0.17990071448E+02  0.00000000000E+00 0.  1.
          2   -1    0    0  501    0  0.00000000000E+00 -0.00000000000E+00 -0.21397876880E+04  0.21397876880E+04  0.00000000000E+00 0. -1.
         25    2    1    2    0    0 -0.13803338753E+03 -0.50925655813E+01 -0.15710912424E+04  0.15821042530E+04  0.12508807035E+03 0.  0.
          5    1    3    3  502    0 -0.78735289596E+02 -0.11607998089E+02 -0.32681911307E+03  0.33639589254E+03  0.41800000000E+01 0. -1.
         -5    1    3    3    0  502 -0.59298097931E+02  0.65154325078E+01 -0.12442721293E+04  0.12457083605E+04  0.41800000000E+01 0. -1.
        -11    1    1    2    0    0  0.74740267352E+02  0.38964156953E+02 -0.39945993313E+03  0.40825549753E+03  0.00000000000E+00 0. -1.
         11    1    1    2    0    0  0.63293120175E+02 -0.33871591372E+02 -0.15124644105E+03  0.16741800887E+03  0.00000000000E+00 0.  1.
</event>
<event>
 7    1  0.2719869E-009  0.1793005E+03  0.7561462E-02  0.1168482E+00
          1   -1    0    0  501    0  0.00000000000E+00  0.00000000000E+00  0.35087889012E+03  0.35087889012E+03  0.00000000000E+00 0. -1.
         -1   -1    0    0    0  501 -0.00000000000E+00 -0.00000000000E+00 -0.12842455578E+03  0.12842455578E+03  0.00000000000E+00 0.  1.
         25    2    1    2    0    0 -0.60424011702E+02 -0.14590183468E+03  0.14838623970E+02  0.20200303980E+03  0.12508651716E+03 0.  0.
          5    1    3    3  502    0  0.18759525467E+02 -0.10234628239E+03 -0.18154497216E+02  0.10570591036E+03  0.41800000000E+01 0.  1.
         -5    1    3    3    0  502 -0.79183537169E+02 -0.43555552284E+02  0.32993121186E+02  0.96297129443E+02  0.41800000000E+01 0.  1.
        -11    1    1    2    0    0  0.63159033824E+01  0.72672308450E+02  0.15701805718E+03  0.17313528043E+03  0.00000000000E+00 0. -1.
         11    1    1    2    0    0  0.54108108320E+02  0.73229526226E+02  0.50597653190E+02  0.10416512567E+03  0.00000000000E+00 0.  1.
</event>
<event>
 7    1  0.2719869E-009  0.9901620E+02  0.7561462E-02  0.1282378E+00
          4   -1    0    0  501    0  0.00000000000E+00  0.00000000000E+00  0.82855374444E+03  0.82855374444E+03  0.00000000000E+00 0. -1.
         -4   -1    0    0    0  501 -0.00000000000E+00 -0.00000000000E+00 -0.15143493693E+02  0.15143493693E+02  0.00000000000E+00 0.  1.
         25    2    1    2    0    0  0.29530681452E+02 -0.71199999677E+01  0.47538151133E+03  0.49250176412E+03  0.12509057040E+03 0.  0.
          5    1    3    3  502    0  0.53577287284E+02 -0.40597135914E+02  0.14916890483E+03  0.16366883553E+03  0.41800000000E+01 0.  1.
         -5    1    3    3    0  502 -0.24046605832E+02  0.33477135947E+02  0.32621260650E+03  0.32883292859E+03  0.41800000000E+01 0.  1.
        -11    1    1    2    0    0  0.72678992169E+01  0.39544044095E+02  0.21544059039E+03  0.21916021940E+03  0.00000000000E+00 0. -1.
         11    1    1    2    0    0 -0.36798580669E+02 -0.32424044127E+02  0.12258814903E+03  0.13203525461E+03  0.00000000000E+00 0.  1.
</event>
<event>
 7    1  0.2719869E-009  0.1241406E+03  0.7561462E-02  0.1236419E+00
         -1   -1    0    0    0  501 -0.00000000000E+00  0.00000000000E+00  0.10866983152E+03  0.10866983152E+03  0.00000000000E+00 0.  1.
          1   -1    0    0  501    0  0.00000000000E+00 -0.00000000000E+00 -0.25023945752E+03  0.25023945752E+03  0.00000000000E+00 0. -1.
         25    2    1    2    0    0  0.10025769467E+03 -0.20071027278E+02  0.87621146869E+00  0.16156365975E+03  0.12509035506E+03 0.  0.
          5    1    3    3  502    0  0.34959777262E+02 -0.55873710654E+02  0.40130163595E+02  0.77278457533E+02  0.41800000000E+01 0.  1.
         -5    1    3    3    0  502  0.65297917408E+02  0.35802683376E+02 -0.39253952127E+02  0.84285202214E+02  0.41800000000E+01 0.  1.
        -11    1    1    2    0    0 -0.36623025511E+02 -0.89687175115E+01 -0.11697999214E+03  0.12290647848E+03  0.00000000000E+00 0. -1.
         11    1    1    2    0    0 -0.63634669159E+02  0.29039744790E+02 -0.25465845332E+02  0.74439150821E+02  0.00000000000E+00 0.  1.
</event>
<event>
 7    1  0.2719869E-009  0.9757638E+02  0.7561462E-02  0.1285477E+00
          2   -1    0    0  501    0  0.00000000000E+00  0.00000000000E+00  0.67388351609E+03  0.67388351609E+03  0.00000000000E+00 0. -1.
         -2   -1    0    0    0  501 -0.00000000000E+00 -0.00000000000E+00 -0.20111185484E+02  0.20111185484E+02  0.00000000000E+00 0.  1.
         25    2    1    2    0    0 -0.31352511255E+02 -0.30538512465E+02  0.38382495097E+03  0.40605974399E+03  0.12508933605E+03 0.  0.
          5    1    3    3  502    0 -0.70207899670E+02 -0.22294688677E+02  0.13317221352E+03  0.15224491182E+03  0.41800000000E+01 0.  1.
         -5    1    3    3    0  502  0.38855388415E+02 -0.82438237877E+01  0.25065273745E+03  0.25381483217E+03  0.41800000000E+01 0.  1.
        -11    1    1    2    0    0  0.26754321786E+02 -0.18276351226E+02  0.34075181550E+02  0.47020599167E+02  0.00000000000E+00 0.  1.
         11    1    1    2    0    0  0.45981894698E+01  0.48814863691E+02  0.23587219809E+03  0.24091435842E+03  0.00000000000E+00 0. -1.
</event>
<event>
 7    1  0.2719869E-009  0.9429595E+02  0.7561462E-02  0.1292770E+00
         -1   -1    0    0    0  501 -0.00000000000E+00  0.00000000000E+00  0.77199864200E+02  0.77199864200E+02  0.00000000000E+00 0.  1.
          1   -1    0    0  501    0  0.00000000000E+00 -0.00000000000E+00 -0.16328930261E+03  0.16328930261E+03  0.00000000000E+00 0. -1.
         25    2    1    2    0    0  0.36252706576E+01  0.12882904998E+02 -0.56853738494E+02  0.13804539776E+03  0.12508026396E+03 0.  0.
          5    1    3    3  502    0 -0.45083116558E+02  0.41948139609E+02 -0.52454499448E+02  0.81000498317E+02  0.41800000000E+01 0.  1.
         -5    1    3    3    0  502  0.48708387216E+02 -0.29065234612E+02 -0.43992390458E+01  0.57044899442E+02  0.41800000000E+01 0.  1.
        -11    1    1    2    0    0 -0.35343268527E+02 -0.14577759882E+02  0.20537793153E+02  0.43398832484E+02  0.00000000000E+00 0.  1.
         11    1    1    2    0    0  0.31717997869E+02  0.16948548842E+01 -0.49773493072E+02  0.59044936570E+02  0.00000000000E+00 0. -1.
</event>
<event>
 7    1  0.2719869E-009  0.1519063E+03  0.7561462E-02  0.1198150E+00
          2   -1    0    0  501    0  0.00000000000E+00  0.00000000000E+00  0.17908796177E+03  0.17908796177E+03  0.00000000000E+00 0. -1.
         -2   -1    0    0    0  501 -0.00000000000E+00 -0.00000000000E+00 -0.13819814555E+03  0.13819814555E+03  0.00000000000E+00 0.  1.
         25    2    1    2    0    0 -0.11092971126E+03  0.72465268124E+01 -0.30005595382E+01  0.16737908451E+03  0.12509532997E+03 0.  0.
          5    1    3    3  502    0  0.20876674751E+02  0.18450150107E+02  0.17918316692E+02  0.33388352171E+02  0.41800000000E+01 0. -1.
         -5    1    3    3    0  502 -0.13180638602E+03 -0.11203623294E+02 -0.20918876230E+02  0.13399073234E+03  0.41800000000E+01 0. -1.
        -11    1    1    2    0    0  0.11371557844E+03  0.20378171752E+02  0.33875995707E+02  0.12039138569E+03  0.00000000000E+00 0.  1.
         11    1    1    2    0    0 -0.27858671778E+01 -0.27624698564E+02  0.10014380057E+02  0.29515637121E+02  0.00000000000E+00 0. -1.
</event>
<event>
 7    1  0.2719869E-009  0.1392340E+03  0.7561462E-02  0.1214363E+00
          4   -1    0    0  501    0  0.00000000000E+00  0.00000000000E+00  0.43168511877E+03  0.43168511877E+03  0.00000000000E+00 0. -1.
         -4   -1    0    0    0  501 -0.00000000000E+00 -0.00000000000E+00 -0.63224257720E+02  0.63224257720E+02  0.00000000000E+00 0.  1.
         25    2    1    2    0    0  0.10881377423E+03 -0.56738361907E+02  0.22985906888E+03  0.28903558978E+03  0.12508677565E+03 0.  0.
          5    1    3    3  502    0  0.44110525808E+01 -0.22080931783E+02  0.15316942498E+03  0.15487210879E+03  0.41800000000E+01 0. -1.
         -5    1    3    3    0  502  0.10440272165E+03 -0.34657430124E+02  0.76689643896E+02  0.13416348099E+03  0.41800000000E+01 0. -1.
        -11    1    1    2    0    0 -0.71574848378E+02  0.75286070900E+02  0.68742207704E+02  0.12456501319E+03  0.00000000000E+00 0. -1.
         11    1    1    2    0    0 -0.37238925853E+02 -0.18547708993E+02  0.69859584467E+02  0.81308773509E+02  0.00000000000E+00 0.  1.
</event>
<event>
 7    1  0.2719869E-009  0.1284429E+03  0.7561462E-02  0.1229785E+00
          1   -1    0    0  501    0  0.00000000000E+00  0.00000000000E+00  0.18779827530E+03  0.18779827530E+03  0.00000000000E+00 0. -1.
         -1   -1    0    0    0  501 -0.00000000000E+00 -0.00000000000E+00 -0.92154137520E+02  0.92154137520E+02  0.00000000000E+00 0.  1.
         25    2    1    2    0    0  0.52324973209E+02  0.47281393143E+02  0.64161065044E+02  0.15728212997E+03  0.12509034009E+03 0.  0.
          5    1    3    3  502    0 -0.11113033698E+02 -0.35239665591E+02  0.29596983974E+02  0.47526702067E+02  0.41800000000E+01 0. -1.
         -5    1    3    3    0  502  0.63438006907E+02  0.82521058734E+02  0.34564081070E+02  0.10975542791E+03  0.41800000000E+01 0. -1.
        -11    1    1    2    0    0 -0.71312915005E+02 -0.78246740697E+01  0.32753280757E+02  0.78864027105E+02  0.00000000000E+00 0.  1.
         11    1    1    2    0    0  0.18987941796E+02 -0.39456719073E+02 -0.12702080213E+01  0.43806255741E+02  0.00000000000E+00 0. -1.
</event>
<event>
 7    1  0.2719869E-009  0.1152513E+03  0.7561462E-02  0.1251143E+00
          1   -1    0    0  501    0  0.00000000000E+00  0.00000000000E+00  0.15617134441E+03  0.15617134441E+03  0.00000000000E+00 0. -1.
         -1   -1    0    0    0  501 -0.00000000000E+00 -0.00000000000E+00 -0.97556374329E+02  0.97556374329E+02  0.00000000000E+00 0.  1.
         25    2    1    2    0    0  0.47957107675E+02 -0.37554449767E+00  0.53715130569E+02  0.14433627682E+03  0.12509044865E+03 0.  0.
          5    1    3    3  502    0  0.56386979500E+01 -0.54169487357E+02  0.52487834702E+02  0.75753372643E+02  0.41800000000E+01 0.  1.
         -5    1    3    3    0  502  0.42318409725E+02  0.53793942859E+02  0.12272958669E+01  0.68582904175E+02  0.41800000000E+01 0.  1.
        -11    1    1    2    0    0 -0.72158431186E+02  0.21384261609E+02 -0.61027571511E+01  0.75507413415E+02  0.00000000000E+00 0.  1.
         11    1    1    2    0    0  0.24201323511E+02 -0.21008717111E+02  0.11002596662E+02  0.33884028504E+02  0.00000000000E+00 0. -1.
</event>
<event>
 7    1  0.2719869E-009  0.2215519E+03  0.7561462E-02  0.1132731E+00
         -2   -1    0    0    0  501 -0.00000000000E+00  0.00000000000E+00  0.39275240536E+02  0.39275240536E+02  0.00000000000E+00 0.  1.
          2   -1    0    0  501    0  0.00000000000E+00 -0.00000000000E+00 -0.14241948090E+04  0.14241948090E+04  0.00000000000E+00 0. -1.
         25    2    1    2    0    0 -0.20706688766E+03 -0.11767646611E+02 -0.80551316035E+03  0.84113884685E+03  0.12509170522E+03 0.  0.
          5    1    3    3  502    0 -0.33299708541E+02 -0.42329883711E+02 -0.32036809955E+03  0.32489056812E+03  0.41800000000E+01 0. -1.
         -5    1    3    3    0  502 -0.17376717911E+03  0.30562237100E+02 -0.48514506080E+03  0.51624827873E+03  0.41800000000E+01 0. -1.
        -11    1    1    2    0    0  0.14599428331E+03  0.29625826397E+02 -0.29013997289E+03  0.32614908281E+03  0.00000000000E+00 0.  1.
         11    1    1    2    0    0  0.61072604346E+02 -0.17858179787E+02 -0.28926643525E+03  0.29618211991E+03  0.00000000000E+00 0. -1.
</event>
<event>
 7    1  0.2719869E-009  0.1305791E+03  0.7561462E-02  0.1226599E+00
         -2   -1    0    0    0  501 -0.00000000000E+00  0.00000000000E+00  0.50304907404E+02  0.50304907404E+02  0.00000000000E+00 0.  1.
          2   -1    0    0  501    0  0.00000000000E+00 -0.00000000000E+00 -0.45664135731E+03  0.45664135731E+03  0.00000000000E+00 0. -1.
         25    2    1    2    0    0  0.26648977053E+02  0.76314177500E+02 -0.10739088592E+03  0.18361468758E+03  0.12509008534E+03 0.  0.
          5    1    3    3  502    0 -0.37608191100E+02 -0.11255989761E+02 -0.37066535994E+02  0.54152320670E+02  0.41800000000E+01 0.  1.
         -5    1    3    3    0  502  0.64257168154E+02  0.87570167261E+02 -0.70324349927E+02  0.12946236691E+03  0.41800000000E+01 0.  1.
        -11    1    1    2    0    0  0.28251033933E+02 -0.29325748591E+02 -0.17664420536E+03  0.18127684832E+03  0.00000000000E+00 0.  1.
         11    1    1    2    0    0 -0.54900010986E+02 -0.46988428909E+02 -0.12230135863E+03  0.14205472882E+03  0.00000000000E+00 0. -1.
</event>
<event>
 7    1  0.2719869E-009  0.6707313E+02  0.7561462E-02  0.1370339E+00
          4   -1    0    0  501    0  0.00000000000E+00  0.00000000000E+00  0.53877872963E+02  0.53877872963E+02  0.00000000000E+00 0. -1.
         -4   -1    0    0    0  501 -0.00000000000E+00 -0.00000000000E+00 -0.21195326696E+03  0.21195326696E+03  0.00000000000E+00 0.  1.
         25    2    1    2    0    0 -0.13238253001E+02  0.34967553885E+01 -0.89787766206E+02  0.15458836904E+03  0.12509293442E+03 0.  0.
          5    1    3    3  502    0 -0.42502879640E+02 -0.60152836066E+01  0.14713819963E+02  0.45570245911E+02  0.41800000000E+01 0. -1.
         -5    1    3    3    0  502  0.29264626639E+02  0.95120389951E+01 -0.10450158617E+03  0.10901812313E+03  0.41800000000E+01 0. -1.
        -11    1    1    2    0    0  0.11746076691E+02  0.26992110595E+02 -0.74488287740E+02  0.80094003287E+02  0.00000000000E+00 0.  1.
         11    1    1    2    0    0  0.14921763099E+01 -0.30488865983E+02  0.62006599493E+01  0.31148767599E+02  0.00000000000E+00 0. -1.
</event>
<event>
 7    1  0.2719869E-009  0.1060633E+03  0.7561462E-02  0.1268039E+00
          2   -1    0    0  501    0  0.00000000000E+00  0.00000000000E+00  0.29602138144E+03  0.29602138144E+03  0.00000000000E+00 0. -1.
         -2   -1    0    0    0  501 -0.00000000000E+00 -0.00000000000E+00 -0.45095132029E+02  0.45095132029E+02  0.00000000000E+00 0.  1.
         25    2    1    2    0    0  0.31504841814E+01 -0.28363235041E+02  0.10215891761E+03  0.16400415170E+03  0.12508604509E+03 0.  0.
          5    1    3    3  502    0  0.60226984906E+02 -0.10159245334E+01  0.71411171085E+02  0.93516573768E+02  0.41800000000E+01 0. -1.
         -5    1    3    3    0  502 -0.57076500725E+02 -0.27347310508E+02  0.30747746523E+02  0.70487577936E+02  0.41800000000E+01 0. -1.
        -11    1    1    2    0    0 -0.41759176736E+02  0.26917226000E+02  0.47544116724E+02  0.68766335748E+02  0.00000000000E+00 0.  1.
         11    1    1    2    0    0  0.38608692554E+02  0.14460090413E+01  0.10122321508E+03  0.10834602602E+03  0.00000000000E+00 0. -1.
</event>
<event>
 7    1  0.2719869E-009  0.1565358E+03  0.7561462E-02  0.1192664E+00
         -1   -1    0    0    0  501 -0.00000000000E+00  0.00000000000E+00  0.29149977798E+02  0.29149977798E+02  0.00000000000E+00 0.  1.
          1   -1    0    0  501    0  0.00000000000E+00 -0.00000000000E+00 -0.86540491961E+03  0.86540491961E+03  0.00000000000E+00 0. -1.
         25    2    1    2    0    0 -0.14160108832E+02 -0.11433336412E+03 -0.44328976418E+03  0.47479049920E+03  0.12509027250E+03 0.  0.
          5    1    3    3  502    0  0.48873957465E+02 -0.79400268562E+02 -0.19439246425E+03  0.21563619576E+03  0.41800000000E+01 0. -1.
         -5    1    3    3    0  502 -0.63034066297E+02 -0.34933095563E+02 -0.24889729993E+03  0.25915430344E+03  0.41800000000E+01 0. -1.
        -11    1    1    2    0    0 -0.38815753035E+02  0.61571332355E+02 -0.18969252681E+03  0.20317713055E+03  0.00000000000E+00 0.  1.
         11    1    1    2    0    0  0.52975861867E+02  0.52762031770E+02 -0.20327265083E+03  0.21658726766E+03  0.00000000000E+00 0. -1.
</event>
<event>
 7    1  0.2719869E-009  0.9904710E+02  0.7561462E-02  0.1282313E+00
         -3   -1    0    0    0  501 -0.00000000000E+00  0.00000000000E+00  0.50341359453E+03  0.50341359453E+03  0.00000000000E+00 0.  1.
          3   -1    0    0  501    0  0.00000000000E+00 -0.00000000000E+00 -0.42906543263E+02  0.42906543263E+02  0.00000000000E+00 0. -1.
         25    2    1    2    0    0 -0.47246250219E+02 -0.10957369205E+02  0.40941370982E+03  0.43083658965E+03  0.12509320160E+03 0.  0.
          5    1    3    3  502    0 -0.15946925151E+02  0.35666130102E+02  0.33612164246E+03  0.33841041383E+03  0.41800000000E+01 0.  1.
         -5    1    3    3    0  502 -0.31299325068E+02 -0.46623499308E+02  0.73292067363E+02  0.92426175815E+02  0.41800000000E+01 0.  1.
        -11    1    1    2    0    0  0.74566221636E+02  0.88777919172E+01  0.29826485578E+02  0.80799479209E+02  0.00000000000E+00 0. -1.
         11    1    1    2    0    0 -0.27319971417E+02  0.20795772882E+01  0.21266855869E+02  0.34684068943E+02  0.00000000000E+00 0.  1.
</event>
<event>
 7    1  0.2719869E-009  0.1278534E+03  0.7561462E-02  0.1230676E+00
          1   -1    0    0  501    0  0.00000000000E+00  0.00000000000E+00  0.14519064872E+03  0.14519064872E+03  0.00000000000E+00 0. -1.
         -1   -1    0    0    0  501 -0.00000000000E+00 -0.00000000000E+00 -0.12186691661E+03  0.12186691661E+03  0.00000000000E+00 0.  1.
         25    2    1    2    0    0 -0.65721922792E+02 -0.36113999675E+02  0.42126624642E+01  0.14590810135E+03  0.12509130828E+03 0.  0.
          5    1    3    3  502    0  0.26834003693E+02  0.15880133917E+02  0.21724911063E+02  0.38232009732E+02  0.41800000000E+01 0.  1.
         -5    1    3    3    0  502 -0.92555926485E+02 -0.51994133593E+02 -0.17512248599E+02  0.10767609162E+03  0.41800000000E+01 0.  1.
        -11    1    1    2    0    0  0.59494938143E+02 -0.19065244369E+02  0.16010408167E+00  0.62475249825E+02  0.00000000000E+00 0.  1.
         11    1    1    2    0    0  0.62269846496E+01  0.55179244044E+02  0.18950965557E+02  0.58674214154E+02  0.00000000000E+00 0. -1.
</event>
<event>
 7    1  0.2719869E-009  0.1290891E+03  0.7561462E-02  0.1228814E+00
         -2   -1    0    0    0  501 -0.00000000000E+00  0.00000000000E+00  0.33590313217E+02  0.33590313217E+02  0.00000000000E+00 0.  1.
          2   -1    0    0  501    0  0.00000000000E+00 -0.00000000000E+00 -0.64680603182E+03  0.64680603182E+03  0.00000000000E+00 0. -1.
         25    2    1    2    0    0  0.66321174390E+02  0.45492138354E+02 -0.46445581175E+03  0.48768270917E+03  0.12508873223E+03 0.  0.
          5    1    3    3  502    0  0.72349453232E+02 -0.15936657710E+02 -0.34791040562E+03  0.35573521498E+03  0.41800000000E+01 0. -1.
         -5    1    3    3    0  502 -0.60282788420E+01  0.61428796064E+02 -0.11654540613E+03  0.13194749419E+03  0.41800000000E+01 0. -1.
        -11    1    1    2    0    0  0.41433445096E+01 -0.51245003177E+02 -0.55024002598E+02  0.75305102857E+02  0.00000000000E+00 0.  1.
         11    1    1    2    0    0 -0.70464518899E+02  0.57528648233E+01 -0.93735904257E+02  0.11740853301E+03  0.00000000000E+00 0. -1.
</event>
<event>
 7    1  0.2761917E-009  0.1066726E+03  0.7561462E-02  0.1266859E+00
          2   -1    0    0  501    0  0.00000000000E+00  0.00000000000E+00  0.33411296280E+03  0.33411296280E+03  0.00000000000E+00 0. -1.
         -2   -1    0    0    0  501 -0.00000000000E+00 -0.00000000000E+00 -0.56425277168E+02  0.56425277168E+02  0.00000000000E+00 0.  1.
         25    2    1    2    0    0  0.54557850414E+02  0.62007731080E+02  0.13246366068E+03  0.20003870950E+03  0.12508935264E+03 0.  0.
          5    1    3    3  502    0  0.19287782151E+02 -0.15168768105E+02 -0.15569178412E+02  0.29359526265E+02  0.41800000000E+01 0. -1.
         -5    1    3    3    0  502  0.35270068263E+02  0.77176499185E+02  0.14803283909E+03  0.17067918324E+03  0.41800000000E+01 0. -1.
        -11    1    1    2    0    0 -0.57298401441E+00 -0.47625688292E+02  0.16895012777E+02  0.50536877156E+02  0.00000000000E+00 0.  1.
         11    1    1    2    0    0 -0.53984866400E+02 -0.14382042788E+02  0.12832901217E+03  0.13996265331E+03  0.00000000000E+00 0. -1.
</event>
<event>
 7    1  0.2719869E-009  0.1261929E+03  0.7561462E-02  0.1233217E+00
         -2   -1    0    0    0  501 -0.00000000000E+00  0.00000000000E+00  0.29709538266E+03  0.29709538266E+03  0.00000000000E+00 0.  1.
          2   -1    0    0  501    0  0.00000000000E+00 -0.00000000000E+00 -0.55878464279E+02  0.55878464279E+02  0.00000000000E+00 0. -1.
         25    2    1    2    0    0  0.43477495083E+02  0.70235314390E+02  0.15751564034E+03  0.21744508132E+03  0.12509154438E+03 0.  0.
          5    1    3    3  502    0 -0.31394783432E+02 -0.12595691758E+02  0.17508125914E+02  0.38318282199E+02  0.41800000000E+01 0. -1.
         -5    1    3    3    0  502  0.74872278515E+02  0.82831006148E+02  0.14000751442E+03  0.17912679913E+03  0.41800000000E+01 0. -1.
        -11    1    1    2    0    0 -0.56599933057E+01 -0.68476103986E+02  0.52546580017E+02  0.86499453251E+02  0.00000000000E+00 0.  1.
         11    1    1    2    0    0 -0.37817501777E+02 -0.17592104040E+01  0.31154698029E+02  0.49029312367E+02  0.00000000000E+00 0. -1.
</event>
<event>
 7    1  0.2719869E-009  0.1036595E+03  0.7561462E-02  0.1272783E+00
         -1   -1    0    0    0  501 -0.00000000000E+00  0.00000000000E+00  0.27853201381E+02  0.27853201381E+02  0.00000000000E+00 0.  1.
          1   -1    0    0  501    0  0.00000000000E+00 -0.00000000000E+00 -0.47450357496E+03  0.47450357496E+03  0.00000000000E+00 0. -1.
         25    2    1    2    0    0  0.15812486562E+02 -0.31591618303E+02 -0.21565211601E+03  0.25179530070E+03  0.12508786206E+03 0.  0.
          5    1    3    3  502    0  0.43809725378E+02 -0.60085627337E+02 -0.75708180238E+02  0.10620158005E+03  0.41800000000E+01 0.  1.
         -5    1    3    3    0  502 -0.27997238816E+02  0.28494009034E+02 -0.13994393577E+03  0.14559372065E+03  0.41800000000E+01 0.  1.
        -11    1    1    2    0    0  0.35631747048E+02  0.11406480563E+02 -0.58620401046E+02  0.69541934222E+02  0.00000000000E+00 0.  1.
         11    1    1    2    0    0 -0.51444233611E+02  0.20185137740E+02 -0.17237785652E+03  0.18101954142E+03  0.00000000000E+00 0. -1.
</event>
<event>
 7    1  0.2719869E-009  0.1061448E+03  0.7561462E-02  0.1267880E+00
         -4   -1    0    0    0  501 -0.00000000000E+00  0.00000000000E+00  0.27770860536E+02  0.27770860536E+02  0.00000000000E+00 0. -1.
          4   -1    0    0  501    0  0.00000000000E+00 -0.00000000000E+00 -0.51927647015E+03  0.51927647015E+03  0.00000000000E+00 0.  1.
         25    2    1    2    0    0 -0.41593615102E+02 -0.10108730567E+02 -0.21480365828E+03  0.25222595764E+03  0.12508040154E+03 0.  0.
          5    1    3    3  502    0 -0.33770991843E+02 -0.61478927808E+02 -0.16825237149E+03  0.18233614937E+03  0.41800000000E+01 0.  1.
         -5    1    3    3    0  502 -0.78226232593E+01  0.51370197241E+02 -0.46551286785E+02  0.69889808274E+02  0.41800000000E+01 0.  1.
        -11    1    1    2    0    0 -0.98863418823E+01 -0.25464341439E+02 -0.31191004169E+02  0.41461442109E+02  0.00000000000E+00 0. -1.
         11    1    1    2    0    0  0.51479956985E+02  0.35573072005E+02 -0.24551094717E+03  0.25335993093E+03  0.00000000000E+00 0.  1.
</event>
<event>
 7    1  0.2719869E-009  0.1557402E+03  0.7561462E-02  0.1193592E+00
          2   -1    0    0  501    0  0.00000000000E+00  0.00000000000E+00  0.81791670577E+02  0.81791670577E+02  0.00000000000E+00 0.  1.
         -2   -1    0    0    0  501 -0.00000000000E+00 -0.00000000000E+00 -0.38987809895E+03  0.38987809895E+03  0.00000000000E+00 0. -1.
         25    2    1    2    0    0  0.27399612633E+02  0.13599976798E+03 -0.12838765097E+03  0.22666582488E+03  0.12508929445E+03 0.  0.
          5    1    3    3  502    0  0.77446119700E+01  0.13993324068E+03 -0.55227864314E+02  0.15069465902E+03  0.41800000000E+01 0. -1.
         -5    1    3    3    0  502  0.19655000663E+02 -0.39334726994E+01 -0.73159786655E+02  0.75971165859E+02  0.41800000000E+01 0. -1.
        -11    1    1    2    0    0 -0.13509999183E+02  0.56857675565E+00 -0.64190854473E+02  0.65599612464E+02  0.00000000000E+00 0.  1.
         11    1    1    2    0    0 -0.13889613450E+02 -0.13656834474E+03 -0.11550792293E+03  0.17940433218E+03  0.00000000000E+00 0. -1.
</event>
<event>
 7    1  0.2719869E-009  0.1727583E+03  0.7561462E-02  0.1175001E+00
          1   -1    0    0  501    0  0.00000000000E+00  0.00000000000E+00  0.65933249965E+03  0.65933249965E+03  0.00000000000E+00 0. -1.
         -1   -1    0    0    0  501 -0.00000000000E+00 -0.00000000000E+00 -0.72520961918E+02  0.72520961918E+02  0.00000000000E+00 0.  1.
         25    2    1    2    0    0 -0.14625935860E+03  0.43008715287E+02  0.11641006921E+03  0.22899819767E+03  0.12508925115E+03 0.  0.
          5    1    3    3  502    0 -0.64273838705E+02  0.79092085189E+02  0.88613326893E+02  0.13511653631E+03  0.41800000000E+01 0.  1.
         -5    1    3    3    0  502 -0.81985519897E+02 -0.36083369902E+02  0.27796742312E+02  0.93881661359E+02  0.41800000000E+01 0.  1.
        -11    1    1    2    0    0  0.17526320880E+02  0.16037803244E+01  0.55573322227E+01  0.18456109459E+02  0.00000000000E+00 0.  1.
         11    1    1    2    0    0  0.12873303772E+03 -0.44612495611E+02  0.46484413631E+03  0.48439915444E+03  0.00000000000E+00 0. -1.
</event>
<event>
 7    1  0.2719869E-009  0.1063582E+03  0.7561462E-02  0.1267466E+00
          3   -1    0    0  501    0  0.00000000000E+00  0.00000000000E+00  0.62559856048E+02  0.62559856048E+02  0.00000000000E+00 0. -1.
         -3   -1    0    0    0  501 -0.00000000000E+00 -0.00000000000E+00 -0.24840409549E+03  0.24840409549E+03  0.00000000000E+00 0.  1.
         25    2    1    2    0    0 -0.42064810699E+02  0.45055181596E+02 -0.10041532612E+03  0.17184287345E+03  0.12508923914E+03 0.  0.
          5    1    3    3  502    0 -0.35314911744E+02 -0.30561672683E+02 -0.12789059295E+01  0.46907001919E+02  0.41800000000E+01 0. -1.
         -5    1    3    3    0  502 -0.67498989550E+01  0.75616854279E+02 -0.99136420191E+02  0.12493587153E+03  0.41800000000E+01 0. -1.
        -11    1    1    2    0    0 -0.32476786129E+01  0.14557420991E+02 -0.57175525205E+02  0.59088971939E+02  0.00000000000E+00 0.  1.
         11    1    1    2    0    0  0.45312489312E+02 -0.59612602587E+02 -0.28253388117E+02  0.80032106151E+02  0.00000000000E+00 0. -1.
</event>
<event>
 7    1  0.2719869E-009  0.1138221E+03  0.7561462E-02  0.1253651E+00
         -1   -1    0    0    0  501 -0.00000000000E+00  0.00000000000E+00  0.14564469205E+03  0.14564469205E+03  0.00000000000E+00 0.  1.
          1   -1    0    0  501    0  0.00000000000E+00 -0.00000000000E+00 -0.12563998613E+03  0.12563998613E+03  0.00000000000E+00 0. -1.
         25    2    1    2    0    0 -0.57989176540E+02  0.54411771576E+02 -0.30433140004E+01  0.14825075478E+03  0.12508252896E+03 0.  0.
          5    1    3    3  502    0 -0.72119788361E+02  0.64699177090E+02 -0.41744129042E+02  0.10558073735E+03  0.41800000000E+01 0.  1.
         -5    1    3    3    0  502  0.14130611821E+02 -0.10287405514E+02  0.38700815042E+02  0.42670017431E+02  0.41800000000E+01 0.  1.
        -11    1    1    2    0    0  0.71825356508E+02 -0.63722194089E+02  0.18153735677E+01  0.96034865743E+02  0.00000000000E+00 0. -1.
         11    1    1    2    0    0 -0.13836179968E+02  0.93104225128E+01  0.21232646353E+02  0.26999057661E+02  0.00000000000E+00 0.  1.
</event>
<event>
 7    1  0.2719869E-009  0.1377126E+03  0.7561462E-02  0.1216440E+00
          2   -1    0    0  501    0  0.00000000000E+00  0.00000000000E+00  0.98935654534E+03  0.98935654534E+03  0.00000000000E+00 0. -1.
         -2   -1    0    0    0  501 -0.00000000000E+00 -0.00000000000E+00 -0.27840981205E+02  0.27840981205E+02  0.00000000000E+00 0.  1.
         25    2    1    2    0    0 -0.10596091600E+03 -0.62544072599E+02  0.60107461135E+03  0.62616053024E+03  0.12508734743E+03 0.  0.
          5    1    3    3  502    0 -0.67001595193E+02 -0.61964986125E+02  0.16729708408E+03  0.19061652605E+03  0.41800000000E+01 0. -1.
         -5    1    3    3    0  502 -0.38959320810E+02 -0.57908647409E+00  0.43377752727E+03  0.43554400419E+03  0.41800000000E+01 0. -1.
        -11    1    1    2    0    0  0.99832882337E+02  0.79006846814E+02  0.34466283515E+03  0.36742503477E+03  0.00000000000E+00 0. -1.
         11    1    1    2    0    0  0.61280336652E+01 -0.16462774214E+02  0.15778117635E+02  0.23611961535E+02  0.00000000000E+00 0.  1.
</event>
<event>
 7    1  0.2719869E-009  0.1125139E+03  0.7561462E-02  0.1255984E+00
         -1   -1    0    0    0  501 -0.00000000000E+00  0.00000000000E+00  0.26111383820E+02  0.26111383820E+02  0.00000000000E+00 0.  1.
          1   -1    0    0  501    0  0.00000000000E+00 -0.00000000000E+00 -0.55511265205E+03  0.55511265205E+03  0.00000000000E+00 0. -1.
         25    2    1    2    0    0 -0.44761919186E+01 -0.35922199439E+02 -0.38929441705E+03  0.41049772876E+03  0.12509117260E+03 0.  0.
          5    1    3    3  502    0 -0.48114165756E+02  0.24885242657E+02 -0.18823318452E+03  0.19591695282E+03  0.41800000000E+01 0.  1.
         -5    1    3    3    0  502  0.43637973837E+02 -0.60807442096E+02 -0.20106123253E+03  0.21458077594E+03  0.41800000000E+01 0.  1.
        -11    1    1    2    0    0 -0.36078313042E+02  0.41285810954E+02 -0.60971308535E+02  0.81997947063E+02  0.00000000000E+00 0.  1.
         11    1    1    2    0    0  0.40554504961E+02 -0.53636115145E+01 -0.78735542638E+02  0.88728360041E+02  0.00000000000E+00 0. -1.
</event>
<event>
 7    1  0.2719869E-009  0.1617668E+03  0.7561462E-02  0.1186716E+00
          1   -1    0    0  501    0  0.00000000000E+00  0.00000000000E+00  0.29201225425E+03  0.29201225425E+03  0.00000000000E+00 0. -1.
         -1   -1    0    0    0  501 -0.00000000000E+00 -0.00000000000E+00 -0.15630162971E+03  0.15630162971E+03  0.00000000000E+00 0.  1.
         25    2    1    2    0    0  0.12499544859E+03 -0.64713447155E+02  0.19335167092E+03  0.26989686576E+03  0.12509099523E+03 0.  0.
          5    1    3    3  502    0  0.44609596827E+02 -0.62082451751E+02  0.20585636786E+02  0.79281068272E+02  0.41800000000E+01 0. -1.
         -5    1    3    3    0  502  0.80385851759E+02 -0.26309954045E+01  0.17276603413E+03  0.19061579748E+03  0.41800000000E+01 0. -1.
        -11    1    1    2    0    0 -0.79854507990E+01  0.47497956420E+02 -0.33480389286E+01  0.48280768979E+02  0.00000000000E+00 0.  1.
         11    1    1    2    0    0 -0.11700999779E+03  0.17215490735E+02 -0.54293007454E+02  0.13013624922E+03  0.00000000000E+00 0. -1.
</event>
<event>
 7    1  0.2719869E-009  0.1654170E+03  0.7561462E-02  0.1182713E+00
          1   -1    0    0  501    0  0.00000000000E+00  0.00000000000E+00  0.17851411856E+03  0.17851411856E+03  0.00000000000E+00 0.  1.
         -1   -1    0    0    0  501 -0.00000000000E+00 -0.00000000000E+00 -0.17246789929E+03  0.17246789929E+03  0.00000000000E+00 0. -1.
         25    2    1    2    0    0 -0.13013582312E+03 -0.43494288900E+02  0.31315364145E+01  0.18570000396E+03  0.12509036463E+03 0.  0.
          5    1    3    3  502    0 -0.80765854515E+02 -0.76896620347E+02 -0.32368816161E+02  0.11619563734E+03  0.41800000000E+01 0.  1.
         -5    1    3    3    0  502 -0.49369968608E+02  0.33402331447E+02  0.35500352575E+02  0.69504366621E+02  0.41800000000E+01 0.  1.
        -11    1    1    2    0    0  0.11689215238E+03  0.30563686174E+01  0.21425273724E+02  0.11887875769E+03  0.00000000000E+00 0. -1.
         11    1    1    2    0    0  0.13243670745E+02  0.40437920282E+02 -0.18510590875E+02  0.46403256202E+02  0.00000000000E+00 0.  1.
</event>
<event>
 7    1  0.2719869E-009  0.1318401E+03  0.7561462E-02  0.1224751E+00
          2   -1    0    0  501    0  0.00000000000E+00  0.00000000000E+00  0.49421303513E+03  0.49421303513E+03  0.00000000000E+00 0. -1.
         -2   -1    0    0    0  501 -0.00000000000E+00 -0.00000000000E+00 -0.48266082185E+02  0.48266082185E+02  0.00000000000E+00 0.  1.
         25    2    1    2    0    0 -0.40328388485E+02 -0.10103998008E+03  0.21161598563E+03  0.26881826533E+03  0.12508588212E+03 0.  0.
          5    1    3    3  502    0 -0.38415682414E+02 -0.15078347140E+02  0.12261121054E+01  0.41498156088E+02  0.41800000000E+01 0.  1.
         -5    1    3    3    0  502 -0.19127060706E+01 -0.85961632941E+02  0.21038987353E+03  0.22732010924E+03  0.41800000000E+01 0.  1.
        -11    1    1    2    0    0  0.65764289688E+02  0.73498877710E+02  0.13270985832E+03  0.16534489202E+03  0.00000000000E+00 0.  1.
         11    1    1    2    0    0 -0.25435901203E+02  0.27541102371E+02  0.10162110899E+03  0.10831595996E+03  0.00000000000E+00 0. -1.
</event>
<event>
 7    1  0.2719869E-009  0.1013088E+03  0.7561462E-02  0.1277568E+00
         -4   -1    0    0    0  501 -0.00000000000E+00  0.00000000000E+00  0.19484382780E+03  0.19484382780E+03  0.00000000000E+00 0.  1.
          4   -1    0    0  501    0  0.00000000000E+00 -0.00000000000E+00 -0.68288061763E+02  0.68288061763E+02  0.00000000000E+00 0. -1.
         25    2    1    2    0    0  0.19478940954E+02 -0.11242209815E+02  0.36889309322E+02  0.13233879816E+03  0.12508764900E+03 0.  0.
          5    1    3    3  502    0  0.48928220081E+02 -0.43654193178E+02 -0.11759974436E+02  0.66748997753E+02  0.41800000000E+01 0. -1.
         -5    1    3    3    0  502 -0.29449279127E+02  0.32411983363E+02  0.48649283758E+02  0.65589800402E+02  0.41800000000E+01 0. -1.
        -11    1    1    2    0    0 -0.47367041784E+02  0.32848430587E+02  0.41226265079E+02  0.70867912145E+02  0.00000000000E+00 0. -1.
         11    1    1    2    0    0  0.27888100831E+02 -0.21606220772E+02  0.48440191641E+02  0.59925179267E+02  0.00000000000E+00 0.  1.
</event>
<event>
 7    1  0.2719869E-009  0.1093222E+03  0.7561462E-02  0.1261830E+00
         -1   -1    0    0    0  501 -0.00000000000E+00  0.00000000000E+00  0.25265883155E+03  0.25265883155E+03  0.00000000000E+00 0.  1.
          1   -1    0    0  501    0  0.00000000000E+00 -0.00000000000E+00 -0.52996176772E+02  0.52996176772E+02  0.00000000000E+00 0. -1.
         25    2    1    2    0    0 -0.38797812578E+02 -0.13444362310E+02  0.10855093373E+03  0.17063481945E+03  0.12508763030E+03 0.  0.
          5    1    3    3  502    0  0.36006769730E+02 -0.36036492221E+02  0.58776813721E+02  0.77892891005E+02  0.41800000000E+01 0.  1.
         -5    1    3    3    0  502 -0.74804582308E+02  0.22592129912E+02  0.49774120010E+02  0.92741928441E+02  0.41800000000E+01 0.  1.
        -11    1    1    2    0    0 -0.24532588016E+02  0.75765500861E+01  0.22936291050E+01  0.25778144239E+02  0.00000000000E+00 0. -1.
         11    1    1    2    0    0  0.63330400594E+02  0.58678122235E+01  0.88818091941E+02  0.10924204463E+03  0.00000000000E+00 0.  1.
</event>
<event>
 7    1  0.2719869E-009  0.9339922E+02  0.7561462E-02  0.1294823E+00
          2   -1    0    0  501    0  0.00000000000E+00  0.00000000000E+00  0.30890007343E+03  0.30890007343E+03  0.00000000000E+00 0. -1.
         -2   -1    0    0    0  501 -0.00000000000E+00 -0.00000000000E+00 -0.52517570860E+02  0.52517570860E+02  0.00000000000E+00 0.  1.
         25    2    1    2    0    0  0.26761727148E+02  0.35392370167E+02  0.62920735980E+02  0.14688458093E+03  0.12508897310E+03 0.  0.
          5    1    3    3  502    0  0.46997266551E+02 -0.71406612742E+01  0.82817907497E+02  0.95582479089E+02  0.41800000000E+01 0. -1.
         -5    1    3    3    0  502 -0.20235539403E+02  0.42533031441E+02 -0.19897171517E+02  0.51302101837E+02  0.41800000000E+01 0. -1.
        -11    1    1    2    0    0 -0.31327914420E+02  0.19374585536E+02  0.92860334255E+02  0.99899221541E+02  0.00000000000E+00 0. -1.
         11    1    1    2    0    0  0.45661872723E+01 -0.54766955703E+02  0.10060143234E+03  0.11463384182E+03  0.00000000000E+00 0.  1.
</event>
<event>
 7    1  0.2719869E-009  0.1016718E+03  0.7561462E-02  0.1276819E+00
         -2   -1    0    0    0  501 -0.00000000000E+00  0.00000000000E+00  0.39274274454E+03  0.39274274454E+03  0.00000000000E+00 0.  1.
          2   -1    0    0  501    0  0.00000000000E+00 -0.00000000000E+00 -0.35859542439E+02  0.35859542439E+02  0.00000000000E+00 0. -1.
         25    2    1    2    0    0 -0.79531681749E+01 -0.27681951364E+02  0.26903716644E+03  0.29809066620E+03  0.12508998776E+03 0.  0.
          5    1    3    3  502    0 -0.49338363175E+02  0.10710818099E+02  0.47534169218E+02  0.69469168329E+02  0.41800000000E+01 0.  1.
         -5    1    3    3    0  502  0.41385195000E+02 -0.38392769463E+02  0.22150299722E+03  0.22862149787E+03  0.41800000000E+01 0.  1.
        -11    1    1    2    0    0 -0.24846010577E+02  0.50391462755E+02  0.45141554400E+02  0.72072072912E+02  0.00000000000E+00 0.  1.
         11    1    1    2    0    0  0.32799178752E+02 -0.22709511392E+02  0.42704481260E+02  0.58439547860E+02  0.00000000000E+00 0. -1.
</event>
<event>
 7    1  0.2719869E-009  0.1369153E+03  0.7561462E-02  0.1217541E+00
          3   -1    0    0  501    0  0.00000000000E+00  0.00000000000E+00  0.78994011887E+03  0.78994011887E+03  0.00000000000E+00 0. -1.
         -3   -1    0    0    0  501 -0.00000000000E+00 -0.00000000000E+00 -0.29048233123E+02  0.29048233123E+02  0.00000000000E+00 0.  1.
         25    2    1    2    0    0  0.33078344618E+02  0.85065740425E+02  0.54900678817E+03  0.57042596006E+03  0.12508783065E+03 0.  0.
          5    1    3    3  502    0 -0.28695351682E+02 -0.18290139015E+02  0.12937691941E+03  0.13384248978E+03  0.41800000000E+01 0.  1.
         -5    1    3    3    0  502  0.61773696300E+02  0.10335587944E+03  0.41962986876E+03  0.43658347028E+03  0.41800000000E+01 0.  1.
        -11    1    1    2    0    0 -0.27215796170E+02  0.59509379472E+01  0.10211150435E+03  0.10584362307E+03  0.00000000000E+00 0. -1.
         11    1    1    2    0    0 -0.58625484480E+01 -0.91016678372E+02  0.10977359322E+03  0.14271876886E+03  0.00000000000E+00 0.  1.
</event>
<event>
 7    1  0.2849999E-009  0.1053847E+03  0.7561462E-02  0.1269364E+00
         -1   -1    0    0    0  501 -0.00000000000E+00  0.00000000000E+00  0.18937872922E+02  0.18937872922E+02  0.00000000000E+00 0.  1.
          1   -1    0    0  501    0  0.00000000000E+00 -0.00000000000E+00 -0.87773164556E+03  0.87773164556E+03  0.00000000000E+00 0. -1.
         25    2    1    2    0    0  0.11833982135E+02 -0.65200577887E+02 -0.40469373655E+03  0.42873762577E+03  0.12509105826E+03 0.  0.
          5    1    3    3  502    0 -0.28533239180E+02 -0.44373746349E+02 -0.55912160822E+02  0.76985824870E+02  0.41800000000E+01 0.  1.
         -5    1    3    3    0  502  0.40367221315E+02 -0.20826831539E+02 -0.34878157573E+03  0.35175180090E+03  0.41800000000E+01 0.  1.
        -11    1    1    2    0    0 -0.50151642031E+02  0.50557737682E+02 -0.26235132323E+03  0.27184460421E+03  0.00000000000E+00 0.  1.
         11    1    1    2    0    0  0.38317659896E+02  0.14642840206E+02 -0.19174871286E+03  0.19608728850E+03  0.00000000000E+00 0. -1.
</event>
<event>
 7    1  0.2719869E-009  0.3174978E+03  0.7561462E-02  0.1076807E+00
         -2   -1    0    0    0  501 -0.00000000000E+00  0.00000000000E+00  0.84320007082E+03  0.84320007082E+03  0.00000000000E+00 0. -1.
          2   -1    0    0  501    0  0.00000000000E+00 -0.00000000000E+00 -0.12904946350E+03  0.12904946350E+03  0.00000000000E+00 0.  1.
         25    2    1    2    0    0 -0.19603891164E+02 -0.30594839006E+03  0.28490208345E+03  0.43681465091E+03  0.12509641149E+03 0.  0.
          5    1    3    3  502    0  0.25012131524E+02 -0.81840114021E+01  0.42903788177E+02  0.50505368090E+02  0.41800000000E+01 0.  1.
         -5    1    3    3    0  502 -0.44616022688E+02 -0.29776437865E+03  0.24199829528E+03  0.38630928282E+03  0.41800000000E+01 0.  1.
        -11    1    1    2    0    0  0.12953317606E+02  0.69944956620E+02  0.44142655119E+02  0.83717736439E+02  0.00000000000E+00 0.  1.
         11    1    1    2    0    0  0.66505735576E+01  0.23600343344E+03  0.38510586874E+03  0.45171714697E+03  0.00000000000E+00 0. -1.
</event>
<event>
 7    1  0.2719869E-009  0.1165121E+03  0.7561462E-02  0.1248964E+00
         -1   -1    0    0    0  501 -0.00000000000E+00  0.00000000000E+00  0.34951557871E+03  0.34951557871E+03  0.00000000000E+00 0.  1.
          1   -1    0    0  501    0  0.00000000000E+00 -0.00000000000E+00 -0.52939382213E+02  0.52939382213E+02  0.00000000000E+00 0. -1.
         25    2    1    2    0    0  0.36640516179E+02  0.68296833965E+02  0.20360748396E+03  0.25121689371E+03  0.12508771006E+03 0.  0.
          5    1    3    3  502    0  0.80904141570E+02  0.52479893225E+02  0.16056609944E+03  0.18734610753E+03  0.41800000000E+01 0. -1.
         -5    1    3    3    0  502 -0.44263625391E+02  0.15816940740E+02  0.43041384520E+02  0.63870786190E+02  0.41800000000E+01 0. -1.
        -11    1    1    2    0    0 -0.46761108856E+02 -0.60859569860E+02  0.10746513195E+03  0.13205772651E+03  0.00000000000E+00 0.  1.
         11    1    1    2    0    0  0.10120592677E+02 -0.74372641051E+01 -0.14496419414E+02  0.19180340699E+02  0.00000000000E+00 0. -1.
</event>
<event>
 7    1  0.2719869E-009  0.1056340E+03  0.7561462E-02  0.1268876E+00
         -2   -1    0    0    0  501 -0.00000000000E+00  0.00000000000E+00  0.38651011833E+02  0.38651011833E+02  0.00000000000E+00 0.  1.
          2   -1    0    0  501    0  0.00000000000E+00 -0.00000000000E+00 -0.50212884507E+03  0.50212884507E+03  0.00000000000E+00 0. -1.
         25    2    1    2    0    0 -0.68668902770E+02  0.18529182119E+02 -0.15832298709E+03  0.21394409466E+03  0.12508860299E+03 0.  0.
          5    1    3    3  502    0 -0.51258654446E+01  0.31247498644E+02  0.10049010692E+02  0.33483364286E+02  0.41800000000E+01 0.  1.
         -5    1    3    3    0  502 -0.63543037326E+02 -0.12718316524E+02 -0.16837199779E+03  0.18046073037E+03  0.41800000000E+01 0.  1.
        -11    1    1    2    0    0  0.28406879901E+00 -0.42066885136E+02 -0.14754062903E+03  0.15342079629E+03  0.00000000000E+00 0. -1.
         11    1    1    2    0    0  0.68384833971E+02  0.23537703016E+02 -0.15761421711E+03  0.17341496595E+03  0.00000000000E+00 0.  1.
</event>
<event>
 7    1  0.2719869E-009  0.8727540E+02  0.7561462E-02  0.1309587E+00
          2   -1    0    0  501    0  0.00000000000E+00  0.00000000000E+00  0.33447285970E+03  0.33447285970E+03  0.00000000000E+00 0. -1.
         -2   -1    0    0    0  501 -0.00000000000E+00 -0.00000000000E+00 -0.36924565092E+02  0.36924565092E+02  0.00000000000E+00 0.  1.
         25    2    1    2    0    0 -0.24425997926E+02  0.54483943781E+01  0.18219660139E+03  0.22242625792E+03  0.12510605213E+03 0.  0.
          5    1    3    3  502    0  0.39097660903E+02 -0.33289063676E+02  0.57904083681E+02  0.77505768530E+02  0.41800000000E+01 0.  1.
         -5    1    3    3    0  502 -0.63523658829E+02  0.38737458054E+02  0.12429251771E+03  0.14492048939E+03  0.41800000000E+01 0.  1.
        -11    1    1    2    0    0 -0.11582527023E+02 -0.46847319572E+01 -0.11575954697E+02  0.17032450585E+02  0.00000000000E+00 0.  1.
         11    1    1    2    0    0  0.36008524949E+02 -0.76366242087E+00  0.12692764791E+03  0.13193871628E+03  0.00000000000E+00 0. -1.
</event>
<event>
 7    1  0.2719869E-009  0.1589134E+03  0.7561462E-02  0.1189929E+00
         -1   -1    0    0    0  501 -0.00000000000E+00  0.00000000000E+00  0.20702759115E+02  0.20702759115E+02  0.00000000000E+00 0.  1.
          1   -1    0    0  501    0  0.00000000000E+00 -0.00000000000E+00 -0.14893308773E+04  0.14893308773E+04  0.00000000000E+00 0. -1.
         25    2    1    2    0    0  0.12385461993E+03  0.29440529758E+02 -0.10061857482E+04  0.10218917873E+04  0.12508538473E+03 0.  0.
          5    1    3    3  502    0  0.14405198732E+03  0.26285904471E+02 -0.70905152194E+03  0.72402586763E+03  0.41800000000E+01 0.  1.
         -5    1    3    3    0  502 -0.20197367390E+02  0.31546252871E+01 -0.29713422625E+03  0.29786591970E+03  0.41800000000E+01 0.  1.
        -11    1    1    2    0    0 -0.15882451476E+02 -0.38967331193E+02 -0.76989829060E+02  0.87739038882E+02  0.00000000000E+00 0.  1.
         11    1    1    2    0    0 -0.10797216846E+03  0.95268014350E+01 -0.38545254089E+03  0.40040281016E+03  0.00000000000E+00 0. -1.
</event>
<event>
 7    1  0.2719869E-009  0.7204693E+02  0.7561462E-02  0.1353268E+00
          2   -1    0    0  501    0  0.00000000000E+00  0.00000000000E+00  0.19756863326E+03  0.19756863326E+03  0.00000000000E+00 0. -1.
         -2   -1    0    0    0  501 -0.00000000000E+00 -0.00000000000E+00 -0.70022446268E+02  0.70022446268E+02  0.00000000000E+00 0.  1.
         25    2    1    2    0    0  0.11836149636E+02  0.45028991637E+02  0.60176899633E+02  0.14641364711E+03  0.12509193533E+03 0.  0.
          5    1    3    3  502    0  0.35460942931E+01 -0.25554492435E+02 -0.24474291551E+02  0.35806008089E+02  0.41800000000E+01 0.  1.
         -5    1    3    3    0  502  0.82900553429E+01  0.70583484072E+02  0.84651191184E+02  0.11060763902E+03  0.41800000000E+01 0.  1.
        -11    1    1    2    0    0 -0.96553829490E+01 -0.28427142903E+02  0.88940011721E+02  0.93870413648E+02  0.00000000000E+00 0. -1.
         11    1    1    2    0    0 -0.21807666870E+01 -0.16601848733E+02 -0.21570724360E+02  0.27307018771E+02  0.00000000000E+00 0.  1.
</event>
<event>
 7    1  0.2719869E-009  0.2468886E+03  0.7561462E-02  0.1115287E+00
          3   -1    0    0  501    0  0.00000000000E+00  0.00000000000E+00  0.42325359419E+02  0.42325359419E+02  0.00000000000E+00 0. -1.
         -3   -1    0    0    0  501 -0.00000000000E+00 -0.00000000000E+00 -0.17131480257E+04  0.17131480257E+04  0.00000000000E+00 0.  1.
         25    2    1    2    0    0  0.36627123796E+02  0.23362410836E+03 -0.10802941605E+04  0.11129260683E+04  0.12508872846E+03 0.  0.
          5    1    3    3  502    0  0.52315046603E+02  0.23520333587E+03 -0.89373048068E+03  0.92565064566E+03  0.41800000000E+01 0. -1.
         -5    1    3    3    0  502 -0.15687922807E+02 -0.15792275155E+01 -0.18656367985E+03  0.18727542263E+03  0.41800000000E+01 0. -1.
        -11    1    1    2    0    0 -0.18617884297E+02 -0.11887623604E+03 -0.18480256634E+03  0.22052250143E+03  0.00000000000E+00 0. -1.
         11    1    1    2    0    0 -0.18009239499E+02 -0.11474787232E+03 -0.40572593945E+03  0.42202481544E+03  0.00000000000E+00 0.  1.
</event>
<event>
 7    1  0.2719869E-009  0.1011381E+03  0.7561462E-02  0.1277921E+00
         -1   -1    0    0    0  501 -0.00000000000E+00  0.00000000000E+00  0.29221541609E+02  0.29221541609E+02  0.00000000000E+00 0.  1.
          1   -1    0    0  501    0  0.00000000000E+00 -0.00000000000E+00 -0.38127612033E+03  0.38127612033E+03  0.00000000000E+00 0. -1.
         25    2    1    2    0    0 -0.18601308575E+02 -0.14658221175E+02 -0.20778047467E+03  0.24368248288E+03  0.12509018619E+03 0.  0.
          5    1    3    3  502    0 -0.50254951318E+02 -0.51485829658E+02 -0.15974523521E+03  0.17524943183E+03  0.41800000000E+01 0.  1.
         -5    1    3    3    0  502  0.31653642743E+02  0.36827608483E+02 -0.48035239462E+02  0.68433051048E+02  0.41800000000E+01 0.  1.
        -11    1    1    2    0    0  0.15942388404E+02 -0.31461708703E+02 -0.43845825831E+02  0.56271265361E+02  0.00000000000E+00 0. -1.
         11    1    1    2    0    0  0.26589201711E+01  0.46119929877E+02 -0.10042827823E+03  0.11054391370E+03  0.00000000000E+00 0.  1.
</event>
<event>
 7    1  0.2719869E-009  0.8024834E+02  0.7561462E-02  0.1328348E+00
         -1   -1    0    0    0  501 -0.00000000000E+00  0.00000000000E+00  0.11529166383E+03  0.11529166383E+03  0.00000000000E+00 0.  1.
          1   -1    0    0  501    0  0.00000000000E+00 -0.00000000000E+00 -0.16406558537E+03  0.16406558537E+03  0.00000000000E+00 0. -1.
         25    2    1    2    0    0  0.32609153019E+02 -0.66954405252E+01 -0.10840112185E+03  0.16884816105E+03  0.12510280767E+03 0.  0.
          5    1    3    3  502    0 -0.77255455732E+01 -0.27771373657E+02  0.18135376382E+02  0.34311769493E+02  0.41800000000E+01 0.  1.
         -5    1    3    3    0  502  0.40334698592E+02  0.21075933132E+02 -0.12653649823E+03  0.13453639155E+03  0.41800000000E+01 0.  1.
        -11    1    1    2    0    0 -0.58978464266E+02  0.31569062628E+01  0.19186089694E+02  0.62100976982E+02  0.00000000000E+00 0. -1.
         11    1    1    2    0    0  0.26369311248E+02  0.35385342624E+01  0.40441110605E+02  0.48408111173E+02  0.00000000000E+00 0.  1.
</event>
<event>
 7    1  0.2719869E-009  0.1630619E+03  0.7561462E-02  0.1185283E+00
          2   -1    0    0  501    0  0.00000000000E+00  0.00000000000E+00  0.80051258590E+03  0.80051258590E+03  0.00000000000E+00 0. -1.
         -2   -1    0    0    0  501 -0.00000000000E+00 -0.00000000000E+00 -0.36269481206E+02  0.36269481206E+02  0.00000000000E+00 0.  1.
         25    2    1    2    0    0  0.11637048047E+03  0.55374453194E+02  0.35019153905E+03  0.39355996363E+03  0.12508761795E+03 0.  0.
          5    1    3    3  502    0  0.82266328604E+02  0.90273981693E+02  0.29750345238E+03  0.32162542992E+03  0.41800000000E+01 0. -1.
         -5    1    3    3    0  502  0.34104151868E+02 -0.34899528499E+02  0.52688086666E+02  0.71934533714E+02  0.41800000000E+01 0. -1.
        -11    1    1    2    0    0 -0.95314699277E+01 -0.46798251871E+02  0.89730257012E+02  0.10164863167E+03  0.00000000000E+00 0.  1.
         11    1    1    2    0    0 -0.10683901054E+03 -0.85762013232E+01  0.32432130863E+03  0.34157347180E+03  0.00000000000E+00 0. -1.
</event>
<event>
 7    1  0.2719869E-009  0.2011254E+03  0.7561462E-02  0.1148793E+00
         -1   -1    0    0    0  501 -0.00000000000E+00  0.00000000000E+00  0.46428808634E+03  0.46428808634E+03  0.00000000000E+00 0.  1.
          1   -1    0    0  501    0  0.00000000000E+00 -0.00000000000E+00 -0.11269534283E+03  0.11269534283E+03  0.00000000000E+00 0. -1.
         25    2    1    2    0    0 -0.12356828293E+03 -0.12198882108E+03  0.54404029558E+02  0.22081265679E+03  0.12509211787E+03 0.  0.
          5    1    3    3  502    0 -0.10928715998E+03 -0.21587736964E+02  0.39274895369E+02  0.11819350037E+03  0.41800000000E+01 0. -1.
         -5    1    3    3    0  502 -0.14281122957E+02 -0.10040108411E+03  0.15129134188E+02  0.10261915642E+03  0.41800000000E+01 0. -1.
        -11    1    1    2    0    0  0.45162805004E+02  0.10865230151E+01  0.35596337772E+02  0.57514856784E+02  0.00000000000E+00 0. -1.
         11    1    1    2    0    0  0.78405477930E+02  0.12090229806E+03  0.26159237618E+03  0.29865591560E+03  0.00000000000E+00 0.  1.
</event>
<event>
 7    1  0.2719869E-009  0.1843016E+03  0.7561462E-02  0.1163704E+00
         -3   -1    0    0    0  501 -0.00000000000E+00  0.00000000000E+00  0.64986047227E+03  0.64986047227E+03  0.00000000000E+00 0.  1.
          3   -1    0    0  501    0  0.00000000000E+00 -0.00000000000E+00 -0.53850603691E+02  0.53850603691E+02  0.00000000000E+00 0. -1.
         25    2    1    2    0    0 -0.44617617450E+02 -0.14490707215E+03  0.32406764998E+03  0.37901865918E+03  0.12508601400E+03 0.  0.
          5    1    3    3  502    0  0.11033688795E+01  0.22278723289E+02  0.46707969340E+02  0.51929430327E+02  0.41800000000E+01 0.  1.
         -5    1    3    3    0  502 -0.45720986330E+02 -0.16718579544E+03  0.27735968065E+03  0.32708922886E+03  0.41800000000E+01 0.  1.
        -11    1    1    2    0    0 -0.70052745256E+01  0.10998568015E+03  0.13528214195E+03  0.17449120792E+03  0.00000000000E+00 0. -1.
         11    1    1    2    0    0  0.51622891976E+02  0.34921391998E+02  0.13666007664E+03  0.15020120886E+03  0.00000000000E+00 0.  1.
</event>
<event>
 7    1  0.2719869E-009  0.1040417E+03  0.7561462E-02  0.1272019E+00
          2   -1    0    0  501    0  0.00000000000E+00  0.00000000000E+00  0.31782414670E+03  0.31782414670E+03  0.00000000000E+00 0. -1.
         -2   -1    0    0    0  501 -0.00000000000E+00 -0.00000000000E+00 -0.60589476313E+02  0.60589476313E+02  0.00000000000E+00 0.  1.
         25    2    1    2    0    0 -0.61221284596E+02 -0.32706147509E+02  0.69954864753E+02  0.15924428765E+03  0.12508925722E+03 0.  0.
          5    1    3    3  502    0 -0.46674545440E-01  0.29371428515E+02 -0.18526467893E+02  0.34976926740E+02  0.41800000000E+01 0. -1.
         -5    1    3    3    0  502 -0.61174610051E+02 -0.62077576024E+02  0.88481332646E+02  0.12426736091E+03  0.41800000000E+01 0. -1.
        -11    1    1    2    0    0  0.61156985239E+02  0.46835933375E+02  0.18978214295E+03  0.20481953833E+03  0.00000000000E+00 0. -1.
         11    1    1    2    0    0  0.64299357646E-01 -0.14129785866E+02 -0.25023373151E+01  0.14349797039E+02  0.00000000000E+00 0.  1.
</event>
<event>
 7    1  0.2719869E-009  0.1100287E+03  0.7561462E-02  0.1260517E+00
         -2   -1    0    0    0  501 -0.00000000000E+00  0.00000000000E+00  0.40021979860E+02  0.40021979860E+02  0.00000000000E+00 0.  1.
          2   -1    0    0  501    0  0.00000000000E+00 -0.00000000000E+00 -0.36207248752E+03  0.36207248752E+03  0.00000000000E+00 0. -1.
         25    2    1    2    0    0 -0.20855934597E+02  0.69559530613E+01 -0.10437713532E+03  0.16439459455E+03  0.12509053142E+03 0.  0.
          5    1    3    3  502    0 -0.39136279682E+02 -0.50966747554E+02 -0.67128537495E+02  0.93021345345E+02  0.41800000000E+01 0.  1.
         -5    1    3    3    0  502  0.18280345084E+02  0.57922700615E+02 -0.37248597823E+02  0.71373249209E+02  0.41800000000E+01 0.  1.
        -11    1    1    2    0    0 -0.18457574821E+02 -0.39593360825E+02 -0.85966331693E+02  0.96428867433E+02  0.00000000000E+00 0. -1.
         11    1    1    2    0    0  0.39313509418E+02  0.32637407763E+02 -0.13170704065E+03  0.14127100539E+03  0.00000000000E+00 0.  1.
</event>
<event>
 7    1  0.2719869E-009  0.1156488E+03  0.7561462E-02  0.1250453E+00
          1   -1    0    0  501    0  0.00000000000E+00  0.00000000000E+00  0.79942410869E+02  0.79942410869E+02  0.00000000000E+00 0. -1.
         -1   -1    0    0    0  501 -0.00000000000E+00 -0.00000000000E+00 -0.28126301802E+03  0.28126301802E+03  0.00000000000E+00 0.  1.
         25    2    1    2    0    0  0.12455579840E+02  0.49863888114E+02 -0.99198575856E+00  0.13524226727E+03  0.12509171840E+03 0.  0.
          5    1    3    3  502    0  0.60253739871E+02  0.50740466673E+02 -0.23398482415E+02  0.82280432096E+02  0.41800000000E+01 0.  1.
         -5    1    3    3    0  502 -0.47798160031E+02 -0.87657855853E+00  0.22406496656E+02  0.52961835172E+02  0.41800000000E+01 0.  1.
        -11    1    1    2    0    0  0.29370553689E+02 -0.54934714544E+02 -0.11436760538E+03  0.13023210605E+03  0.00000000000E+00 0. -1.
         11    1    1    2    0    0 -0.41826133529E+02  0.50708264299E+01 -0.85961016012E+02  0.95731055569E+02  0.00000000000E+00 0.  1.
</event>
<event>
 7    1  0.2719869E-009  0.8253811E+02  0.7561462E-02  0.1321999E+00
          1   -1    0    0  501    0  0.00000000000E+00  0.00000000000E+00  0.19567952358E+03  0.19567952358E+03  0.00000000000E+00 0. -1.
         -1   -1    0    0    0  501 -0.00000000000E+00 -0.00000000000E+00 -0.63001721992E+02  0.63001721992E+02  0.00000000000E+00 0.  1.
         25    2    1    2    0    0  0.16879570055E+01 -0.34163539281E+02  0.93974882630E+02  0.16015096022E+03  0.12508818840E+03 0.  0.
          5    1    3    3  502    0 -0.34863319287E+02 -0.32147817634E+02  0.11008517584E+03  0.11993811551E+03  0.41800000000E+01 0. -1.
         -5    1    3    3    0  502  0.36551276292E+02 -0.20157216467E+01 -0.16110293215E+02  0.40212844712E+02  0.41800000000E+01 0. -1.
        -11    1    1    2    0    0  0.28038714937E+02  0.41426917718E+02  0.10820027347E+01  0.50035285317E+02  0.00000000000E+00 0.  1.
         11    1    1    2    0    0 -0.29726671942E+02 -0.72633784365E+01  0.37620916221E+02  0.48495000035E+02  0.00000000000E+00 0. -1.
</event>
<event>
 7    1  0.2719869E-009  0.1210035E+03  0.7561462E-02  0.1241451E+00
         -1   -1    0    0    0  501 -0.00000000000E+00  0.00000000000E+00  0.23415969697E+02  0.23415969697E+02  0.00000000000E+00 0.  1.
          1   -1    0    0  501    0  0.00000000000E+00 -0.00000000000E+00 -0.79333135478E+03  0.79333135478E+03  0.00000000000E+00 0. -1.
         25    2    1    2    0    0 -0.53180336870E+02  0.47533489855E+02 -0.54856107141E+03  0.56714583286E+03  0.12509023055E+03 0.  0.
          5    1    3    3  502    0 -0.34131770756E+02 -0.36192922867E+02 -0.30030308780E+03  0.30442457586E+03  0.41800000000E+01 0.  1.
         -5    1    3    3    0  502 -0.19048566114E+02  0.83726412722E+02 -0.24825798360E+03  0.26272125700E+03  0.41800000000E+01 0.  1.
        -11    1    1    2    0    0  0.21433652486E+02 -0.65997026901E+02 -0.18641589201E+03  0.19891177394E+03  0.00000000000E+00 0. -1.
         11    1    1    2    0    0  0.31746684384E+02  0.18463537047E+02 -0.34938421665E+02  0.50689717676E+02  0.00000000000E+00 0.  1.
</event>
<event>
 7    1  0.2719869E-009  0.8237271E+02  0.7561462E-02  0.1322450E+00
         -2   -1    0    0    0  501 -0.00000000000E+00  0.00000000000E+00  0.27900453214E+03  0.27900453214E+03  0.00000000000E+00 0.  1.
          2   -1    0    0  501    0  0.00000000000E+00 -0.00000000000E+00 -0.49541204343E+02  0.49541204343E+02  0.00000000000E+00 0. -1.
         25    2    1    2    0    0 -0.31585655389E+02 -0.76219618516E+01  0.85751617615E+02  0.15510140271E+03  0.12508939711E+03 0.  0.
          5    1    3    3  502    0  0.11183994316E+01 -0.34422603979E+02  0.10342098497E+03  0.10908500820E+03  0.41800000000E+01 0. -1.
         -5    1    3    3    0  502 -0.32704054821E+02  0.26800642128E+02 -0.17669367358E+02  0.46016394503E+02  0.41800000000E+01 0. -1.
        -11    1    1    2    0    0 -0.33727360833E+01 -0.33454767721E+02  0.94965064327E+02  0.10074204820E+03  0.00000000000E+00 0.  1.
         11    1    1    2    0    0  0.34958391473E+02  0.41076729572E+02  0.48746645855E+02  0.72702285582E+02  0.00000000000E+00 0. -1.
</event>
<event>
 6    1  0.2719869E-009  0.1032979E+03  0.7561462E-02  0.1273510E+00
          1   -1    0    0  501    0  0.00000000000E+00  0.00000000000E+00  0.18851017341E+03  0.18851017341E+03  0.00000000000E+00 0. -1.
         -1   -1    0    0    0  501 -0.00000000000E+00 -0.00000000000E+00 -0.76410025446E+02  0.76410025446E+02  0.00000000000E+00 0.  1.
          5    1    1    2  502    0 -0.64785343473E+02  0.17411923955E+02  0.45691637774E+00  0.67216047171E+02  0.41800000000E+01 0. -1.
         -5    1    1    2    0  502  0.38521515512E+02  0.24393676575E+02  0.73021264412E+02  0.86188955617E+02  0.41800000000E+01 0. -1.
        -11    1    1    2    0    0  0.55308598661E+01  0.23984976619E+02 -0.10573631323E+02  0.26789385839E+02  0.00000000000E+00 0.  1.
         11    1    1    2    0    0  0.20732968095E+02 -0.65790577148E+02  0.49195598501E+02  0.84725810231E+02  0.00000000000E+00 0. -1.
</event>
<event>
 7    1  0.2719869E-009  0.1202559E+03  0.7561462E-02  0.1242675E+00
          3   -1    0    0  501    0  0.00000000000E+00  0.00000000000E+00  0.47018420367E+02  0.47018420367E+02  0.00000000000E+00 0. -1.
         -3   -1    0    0    0  501 -0.00000000000E+00 -0.00000000000E+00 -0.64574663453E+03  0.64574663453E+03  0.00000000000E+00 0.  1.
         25    2    1    2    0    0  0.79037175286E+02 -0.58801448764E+02 -0.50288900254E+03  0.52749257754E+03  0.12508631030E+03 0.  0.
          5    1    3    3  502    0  0.87690950316E+02 -0.56725849165E+01 -0.18262833848E+03  0.20271276083E+03  0.41800000000E+01 0. -1.
         -5    1    3    3    0  502 -0.86537750298E+01 -0.53128863847E+02 -0.32026066406E+03  0.32477981671E+03  0.41800000000E+01 0. -1.
        -11    1    1    2    0    0 -0.30882817040E+02  0.21367839800E+02 -0.97264852052E+02  0.10426305391E+03  0.00000000000E+00 0. -1.
         11    1    1    2    0    0 -0.48154358246E+02  0.37433608964E+02  0.14256404382E+01  0.61009423442E+02  0.00000000000E+00 0.  1.
</event>
<event>
 7    1  0.2719869E-009  0.8760691E+02  0.7561462E-02  0.1308753E+00
          1   -1    0    0  501    0  0.00000000000E+00  0.00000000000E+00  0.91469108206E+02  0.91469108206E+02  0.00000000000E+00 0. -1.
         -1   -1    0    0    0  501 -0.00000000000E+00 -0.00000000000E+00 -0.17994227662E+03  0.17994227662E+03  0.00000000000E+00 0.  1.
         25    2    1    2    0    0 -0.43215222417E+02 -0.51987126595E+02 -0.18378664493E+02  0.14337053799E+03  0.12508844501E+03 0.  0.
          5    1    3    3  502    0 -0.23397395370E+02  0.21071178575E+02 -0.51603821345E+02  0.60595869942E+02  0.41800000000E+01 0.  1.
         -5    1    3    3    0  502 -0.19817827047E+02 -0.73058305169E+02  0.33225156852E+02  0.82774668051E+02  0.41800000000E+01 0.  1.
        -11    1    1    2    0    0  0.33934214697E+02  0.42150901267E+02 -0.89381039553E+02  0.10448540394E+03  0.00000000000E+00 0.  1.
         11    1    1    2    0    0  0.92810077198E+01  0.98362253281E+01  0.19286535635E+02  0.23555442891E+02  0.00000000000E+00 0. -1.
</event>
<event>
 7    1  0.2719869E-009  0.1080690E+03  0.7561462E-02  0.1264188E+00
         -1   -1    0    0    0  501 -0.00000000000E+00  0.00000000000E+00  0.59012508483E+02  0.59012508483E+02  0.00000000000E+00 0.  1.
          1   -1    0    0  501    0  0.00000000000E+00 -0.00000000000E+00 -0.23156683360E+03  0.23156683360E+03  0.00000000000E+00 0. -1.
         25    2    1    2    0    0 -0.12379467648E+02  0.18756709803E+02 -0.14709541868E+03  0.19439500143E+03  0.12508912424E+03 0.  0.
          5    1    3    3  502    0  0.21205457536E+02  0.63834601114E+02 -0.10177777236E+03  0.12206848518E+03  0.41800000000E+01 0. -1.
         -5    1    3    3    0  502 -0.33584925184E+02 -0.45077891311E+02 -0.45317646323E+02  0.72326516251E+02  0.41800000000E+01 0. -1.
        -11    1    1    2    0    0  0.27504545323E+02  0.30369321410E+02 -0.69884752368E+01  0.41564822657E+02  0.00000000000E+00 0.  1.
         11    1    1    2    0    0 -0.15125077675E+02 -0.49126031213E+02 -0.18470431203E+02  0.54619517997E+02  0.00000000000E+00 0. -1.
</event>
<event>
 7    1  0.2719869E-009  0.1292708E+03  0.7561462E-02  0.1228542E+00
          2   -1    0    0  501    0  0.00000000000E+00  0.00000000000E+00  0.10081211580E+04  0.10081211580E+04  0.00000000000E+00 0. -1.
         -2   -1    0    0    0  501 -0.00000000000E+00 -0.00000000000E+00 -0.24495174935E+02  0.24495174935E+02  0.00000000000E+00 0.  1.
         25    2    1    2    0    0 -0.89642897964E+02 -0.66753778018E+02  0.55496003775E+03  0.57975933764E+03  0.12509328536E+03 0.  0.
          5    1    3    3  502    0 -0.81076723228E+02 -0.57062952830E+02  0.55721392059E+03  0.56598095492E+03  0.41800000000E+01 0. -1.
         -5    1    3    3    0  502 -0.85661747364E+01 -0.96908251885E+01 -0.22538828378E+01  0.13778382717E+02  0.41800000000E+01 0. -1.
        -11    1    1    2    0    0  0.24416154889E+02 -0.23813034070E+02  0.88235084248E+02  0.94597247864E+02  0.00000000000E+00 0. -1.
         11    1    1    2    0    0  0.65226743075E+02  0.90566812089E+02  0.34043086106E+03  0.35825974743E+03  0.00000000000E+00 0.  1.
</event>
<event>
 7    1  0.2719869E-009  0.1636896E+03  0.7561462E-02  0.1184593E+00
         -2   -1    0    0    0  501 -0.00000000000E+00  0.00000000000E+00  0.28361764177E+02  0.28361764177E+02  0.00000000000E+00 0.  1.
          2   -1    0    0  501    0  0.00000000000E+00 -0.00000000000E+00 -0.12693342101E+04  0.12693342101E+04  0.00000000000E+00 0. -1.
         25    2    1    2    0    0  0.12135109502E+03 -0.65220789292E+02 -0.88807300113E+03  0.90735967894E+03  0.12509233400E+03 0.  0.
          5    1    3    3  502    0  0.14080980969E+03 -0.60556319066E+02 -0.85374958637E+03  0.86741010999E+03  0.41800000000E+01 0. -1.
         -5    1    3    3    0  502 -0.19458714670E+02 -0.46644702257E+01 -0.34323414754E+02  0.39949568953E+02  0.41800000000E+01 0. -1.
        -11    1    1    2    0    0  0.32669423049E+01  0.21179143567E+02 -0.11665044731E+02  0.24398817652E+02  0.00000000000E+00 0.  1.
         11    1    1    2    0    0 -0.12461803732E+03  0.44041645725E+02 -0.34123440007E+03  0.36593747768E+03  0.00000000000E+00 0. -1.
</event>
<event>
 7    1  0.2719869E-009  0.1158976E+03  0.7561462E-02  0.1250022E+00
         -3   -1    0    0    0  501 -0.00000000000E+00  0.00000000000E+00  0.38382241694E+03  0.38382241694E+03  0.00000000000E+00 0. -1.
          3   -1    0    0  501    0  0.00000000000E+00 -0.00000000000E+00 -0.39243352406E+02  0.39243352406E+02  0.00000000000E+00 0.  1.
         25    2    1    2    0    0 -0.29177961497E+02  0.49797303545E+02  0.15726020960E+03  0.20907076657E+03  0.12509471225E+03 0.  0.
          5    1    3    3  502    0  0.18195513487E+02  0.78896086967E+02  0.10495892170E+03  0.13262547604E+03  0.41800000000E+01 0.  1.
         -5    1    3    3    0  502 -0.47373474983E+02 -0.29098783421E+02  0.52301287898E+02  0.76445290531E+02  0.41800000000E+01 0.  1.
        -11    1    1    2    0    0 -0.20713733775E+02  0.45328930334E+01  0.13407143346E+02  0.25086996210E+02  0.00000000000E+00 0.  1.
         11    1    1    2    0    0  0.49891695272E+02 -0.54330196579E+02  0.17391171158E+03  0.18890800656E+03  0.00000000000E+00 0. -1.
</event>
<event>
 7    1  0.2719869E-009  0.1192224E+03  0.7561462E-02  0.1244385E+00
         -1   -1    0    0    0  501 -0.00000000000E+00  0.00000000000E+00  0.15057880107E+03  0.15057880107E+03  0.00000000000E+00 0.  1.
          1   -1    0    0  501    0  0.00000000000E+00 -0.00000000000E+00 -0.11933394531E+03  0.11933394531E+03  0.00000000000E+00 0. -1.
         25    2    1    2    0    0 -0.19926690860E+02 -0.71050458104E+02 -0.53510822288E+01  0.14533651017E+03  0.12509526970E+03 0.  0.
          5    1    3    3  502    0 -0.57565830620E+02 -0.68867423807E+02 -0.35769360363E+02  0.96713320993E+02  0.41800000000E+01 0.  1.
         -5    1    3    3    0  502  0.37639139760E+02 -0.21830342964E+01  0.30418278134E+02  0.48623189172E+02  0.41800000000E+01 0.  1.
        -11    1    1    2    0    0  0.48894967398E+02  0.64531609350E+02  0.48501079797E+01  0.81108384213E+02  0.00000000000E+00 0. -1.
         11    1    1    2    0    0 -0.28968276539E+02  0.65188487540E+01  0.31745830009E+02  0.43467852002E+02  0.00000000000E+00 0.  1.
</event>
<event>
 7    1  0.2719869E-009  0.1292192E+03  0.7561462E-02  0.1228619E+00
          4   -1    0    0  501    0  0.00000000000E+00  0.00000000000E+00  0.38033750837E+03  0.38033750837E+03  0.00000000000E+00 0.  1.
         -4   -1    0    0    0  501 -0.00000000000E+00 -0.00000000000E+00 -0.62565862590E+02  0.62565862590E+02  0.00000000000E+00 0. -1.
         25    2    1    2    0    0 -0.22041220243E+02  0.10429254211E+03  0.21251108354E+03  0.26864660191E+03  0.12508911368E+03 0.  0.
          5    1    3    3  502    0  0.26378275635E+02  0.48107502812E+02  0.17878654936E+03  0.18706214979E+03  0.41800000000E+01 0.  1.
         -5    1    3    3    0  502 -0.48419495879E+02  0.56185039295E+02  0.33724534176E+02  0.81584452116E+02  0.41800000000E+01 0.  1.
        -11    1    1    2    0    0  0.32408553806E+02 -0.95046122715E+01  0.59670159823E+02  0.68565151407E+02  0.00000000000E+00 0.  1.
         11    1    1    2    0    0 -0.10367333563E+02 -0.94787929835E+02  0.45590402419E+02  0.10569161764E+03  0.00000000000E+00 0. -1.
</event>
<event>
 7    1  0.2719869E-009  0.1119224E+03  0.7561462E-02  0.1257051E+00
          1   -1    0    0  501    0  0.00000000000E+00  0.00000000000E+00  0.27776671424E+03  0.27776671424E+03  0.00000000000E+00 0. -1.
         -1   -1    0    0    0  501 -0.00000000000E+00 -0.00000000000E+00 -0.59364726333E+02  0.59364726333E+02  0.00000000000E+00 0.  1.
         25    2    1    2    0    0  0.59313942890E+02  0.32006159780E+02  0.92957223253E+02  0.16979618484E+03  0.12508861238E+03 0.  0.
          5    1    3    3  502    0  0.12414958773E+02  0.59917022489E+02 -0.67820664859E+00  0.61336067282E+02  0.41800000000E+01 0.  1.
         -5    1    3    3    0  502  0.46898984117E+02 -0.27910862710E+02  0.93635429901E+02  0.10846011756E+03  0.41800000000E+01 0.  1.
        -11    1    1    2    0    0 -0.57060231965E+01 -0.50687066316E+02  0.40327997351E+02  0.65023724615E+02  0.00000000000E+00 0.  1.
         11    1    1    2    0    0 -0.53607919694E+02  0.18680906537E+02  0.85116767302E+02  0.10231153111E+03  0.00000000000E+00 0. -1.
</event>
<event>
 7    1  0.2719869E-009  0.9782968E+02  0.7561462E-02  0.1284927E+00
         -2   -1    0    0    0  501 -0.00000000000E+00  0.00000000000E+00  0.84682853756E+03  0.84682853756E+03  0.00000000000E+00 0. -1.
          2   -1    0    0  501    0  0.00000000000E+00 -0.00000000000E+00 -0.19494136737E+02  0.19494136737E+02  0.00000000000E+00 0.  1.
         25    2    1    2    0    0 -0.14160179181E+01 -0.48793561015E+02  0.62838177675E+03  0.64256823281E+03  0.12508980678E+03 0.  0.
          5    1    3    3  502    0  0.15648602325E+02 -0.74256609544E+02  0.58120272289E+03  0.58615100470E+03  0.41800000000E+01 0.  1.
         -5    1    3    3    0  502 -0.17064620243E+02  0.25463048529E+02  0.47179053858E+02  0.56417228108E+02  0.41800000000E+01 0.  1.
        -11    1    1    2    0    0  0.31380392972E+02  0.49659894594E+02  0.17729205813E+03  0.18677073665E+03  0.00000000000E+00 0. -1.
         11    1    1    2    0    0 -0.29964375054E+02 -0.86633357835E+00  0.21660565939E+02  0.36983704832E+02  0.00000000000E+00 0.  1.
</event>
<event>
 6    1  0.2719869E-009  0.1109930E+03  0.7561462E-02  0.1258742E+00
          2   -1    0    0  501    0  0.00000000000E+00  0.00000000000E+00  0.14412303966E+04  0.14412303966E+04  0.00000000000E+00 0. -1.
         -2   -1    0    0    0  501 -0.00000000000E+00 -0.00000000000E+00 -0.12950083831E+02  0.12950083831E+02  0.00000000000E+00 0.  1.
          5    1    1    2  502    0  0.83040159930E+02  0.21267787245E+02  0.42678167236E+03  0.43532522922E+03  0.41800000000E+01 0. -1.
         -5    1    1    2    0  502 -0.27353706213E+02  0.11321696176E+02  0.64173587248E+03  0.64243194852E+03  0.41800000000E+01 0. -1.
        -11    1    1    2    0    0 -0.67842757886E+02 -0.50531521909E+02  0.32156299822E+03  0.33250388919E+03  0.00000000000E+00 0. -1.
         11    1    1    2    0    0  0.12156304170E+02  0.17942038489E+02  0.38199769706E+02  0.43919413495E+02  0.00000000000E+00 0.  1.
</event>
<event>
 7    1  0.2719869E-009  0.1110112E+03  0.7561462E-02  0.1258709E+00
          1   -1    0    0  501    0  0.00000000000E+00  0.00000000000E+00  0.39662284712E+02  0.39662284712E+02  0.00000000000E+00 0. -1.
         -1   -1    0    0    0  501 -0.00000000000E+00 -0.00000000000E+00 -0.71965799050E+03  0.71965799050E+03  0.00000000000E+00 0.  1.
         25    2    1    2    0    0  0.12436180731E+02  0.75203391785E+02 -0.59235006736E+03  0.61019609689E+03  0.12510182107E+03 0.  0.
          5    1    3    3  502    0 -0.31607345017E+02 -0.78374826220E+01 -0.32726344739E+03  0.32890619755E+03  0.41800000000E+01 0.  1.
         -5    1    3    3    0  502  0.44043525748E+02  0.83040874407E+02 -0.26508661997E+03  0.28128989934E+03  0.41800000000E+01 0.  1.
        -11    1    1    2    0    0 -0.35038143360E+02 -0.39072299523E+02 -0.92377044739E+02  0.10624422090E+03  0.00000000000E+00 0.  1.
         11    1    1    2    0    0  0.22601962629E+02 -0.36131092262E+02  0.47314063071E+01  0.42879957420E+02  0.00000000000E+00 0. -1.
</event>
<event>
 7    1  0.2719869E-009  0.1150801E+03  0.7561462E-02  0.1251441E+00
          1   -1    0    0  501    0  0.00000000000E+00  0.00000000000E+00  0.52614914124E+02  0.52614914124E+02  0.00000000000E+00 0. -1.
         -1   -1    0    0    0  501 -0.00000000000E+00 -0.00000000000E+00 -0.40978111706E+03  0.40978111706E+03  0.00000000000E+00 0.  1.
         25    2    1    2    0    0 -0.58989605546E+02 -0.76488411290E+02 -0.20855438330E+03  0.26167322394E+03  0.12509074589E+03 0.  0.
          5    1    3    3  502    0 -0.58766808584E+02 -0.87385157307E+02 -0.79299553066E+02  0.13189236151E+03  0.41800000000E+01 0. -1.
         -5    1    3    3    0  502 -0.22279696161E+00  0.10896746017E+02 -0.12925483024E+03  0.12978086242E+03  0.41800000000E+01 0. -1.
        -11    1    1    2    0    0 -0.11954238380E+02  0.73380634168E+01 -0.77535247081E+02  0.78793816571E+02  0.00000000000E+00 0.  1.
         11    1    1    2    0    0  0.70943843926E+02  0.69150347873E+02 -0.71076572555E+02  0.12192899068E+03  0.00000000000E+00 0. -1.
</event>
<event>
 7    1  0.2719869E-009  0.1113480E+03  0.7561462E-02  0.1258094E+00
         -2   -1    0    0    0  501 -0.00000000000E+00  0.00000000000E+00  0.49637372577E+02  0.49637372577E+02  0.00000000000E+00 0. -1.
          2   -1    0    0  501    0  0.00000000000E+00 -0.00000000000E+00 -0.33352372613E+03  0.33352372613E+03  0.00000000000E+00 0.  1.
         25    2    1    2    0    0 -0.68028327707E+02 -0.37188427861E+02 -0.13295877093E+03  0.19831879448E+03  0.12506589039E+03 0.  0.
          5    1    3    3  502    0 -0.75420695062E+02  0.18666109188E+02 -0.11535431702E+03  0.13914307647E+03  0.41800000000E+01 0.  1.
         -5    1    3    3    0  502  0.73923673557E+01 -0.55854537048E+02 -0.17604453909E+02  0.59175718005E+02  0.41800000000E+01 0.  1.
        -11    1    1    2    0    0  0.42877622202E+02 -0.73694490935E+00 -0.22162184262E+02  0.48272103587E+02  0.00000000000E+00 0. -1.
         11    1    1    2    0    0  0.25150705505E+02  0.37925372770E+02 -0.12876539836E+03  0.13657020064E+03  0.00000000000E+00 0.  1.
</event>
<event>
 7    1  0.2719869E-009  0.5352758E+02  0.7561462E-02  0.1427193E+00
         -2   -1    0    0    0  501 -0.00000000000E+00  0.00000000000E+00  0.40000280240E+02  0.40000280240E+02  0.00000000000E+00 0. -1.
          2   -1    0    0  501    0  0.00000000000E+00 -0.00000000000E+00 -0.31636723079E+03  0.31636723079E+03  0.00000000000E+00 0.  1.
         25    2    1    2    0    0  0.73723224851E+01  0.75583161072E+01 -0.20259952227E+03  0.23833797229E+03  0.12508774251E+03 0.  0.
          5    1    3    3  502    0 -0.53079539079E+01 -0.20292329638E+01 -0.21661914092E+03  0.21673397697E+03  0.41800000000E+01 0.  1.
         -5    1    3    3    0  502  0.12680276393E+02  0.95875490711E+01  0.14019618646E+02  0.21603995315E+02  0.41800000000E+01 0.  1.
        -11    1    1    2    0    0 -0.36556038707E+01  0.37838565044E+02 -0.58925393344E+02  0.70123622446E+02  0.00000000000E+00 0.  1.
         11    1    1    2    0    0 -0.37167186144E+01 -0.45396881152E+02 -0.14842034934E+02  0.47905916300E+02  0.00000000000E+00 0. -1.
</event>
<event>
 7    1  0.2719869E-009  0.1172876E+03  0.7561462E-02  0.1247640E+00
          3   -1    0    0  501    0  0.00000000000E+00  0.00000000000E+00  0.35526315799E+03  0.35526315799E+03  0.00000000000E+00 0. -1.
         -3   -1    0    0    0  501 -0.00000000000E+00 -0.00000000000E+00 -0.78466913103E+02  0.78466913103E+02  0.00000000000E+00 0.  1.
         25    2    1    2    0    0  0.40138374440E+02  0.40644631423E+02  0.29190011098E+03  0.32267076719E+03  0.12509066328E+03 0.  0.
          5    1    3    3  502    0  0.78273017852E+02  0.12171345825E+02  0.23685188424E+03  0.24978209393E+03  0.41800000000E+01 0. -1.
         -5    1    3    3    0  502 -0.38134643412E+02  0.28473285598E+02  0.55048226746E+02  0.72888673255E+02  0.41800000000E+01 0. -1.
        -11    1    1    2    0    0 -0.56638315646E+02 -0.59685083837E+02 -0.21542538770E+02  0.85054623675E+02  0.00000000000E+00 0.  1.
         11    1    1    2    0    0  0.16499941206E+02  0.19040452415E+02  0.64386726720E+01  0.26004680228E+02  0.00000000000E+00 0. -1.
</event>
<event>
 7    1  0.2719869E-009  0.1308115E+03  0.7561462E-02  0.1226257E+00
          2   -1    0    0  501    0  0.00000000000E+00  0.00000000000E+00  0.10550361597E+04  0.10550361597E+04  0.00000000000E+00 0. -1.
         -2   -1    0    0    0  501 -0.00000000000E+00 -0.00000000000E+00 -0.21609807374E+02  0.21609807374E+02  0.00000000000E+00 0.  1.
         25    2    1    2    0    0  0.87466589959E+02  0.50404499262E+02  0.62178923678E+03  0.64223147661E+03  0.12509355171E+03 0.  0.
          5    1    3    3  502    0 -0.16777066116E+02 -0.24943577068E+02  0.85816949397E+02  0.91025673237E+02  0.41800000000E+01 0.  1.
         -5    1    3    3    0  502  0.10424365608E+03  0.75348076330E+02  0.53597228738E+03  0.55120580338E+03  0.41800000000E+01 0.  1.
        -11    1    1    2    0    0 -0.64020720080E+02 -0.27089149193E+02  0.38696334568E+03  0.39315786334E+03  0.00000000000E+00 0. -1.
         11    1    1    2    0    0 -0.23445869879E+02 -0.23315350069E+02  0.24673769909E+02  0.41256627161E+02  0.00000000000E+00 0.  1.
</event>
<event>
 7    1  0.2719869E-009  0.6287596E+02  0.7561462E-02  0.1386144E+00
          1   -1    0    0  501    0  0.00000000000E+00  0.00000000000E+00  0.82724440323E+02  0.82724440323E+02  0.00000000000E+00 0. -1.
         -1   -1    0    0    0  501 -0.00000000000E+00 -0.00000000000E+00 -0.13170539787E+03  0.13170539787E+03  0.00000000000E+00 0.  1.
         25    2    1    2    0    0 -0.54814539719E+01 -0.14748715333E+01 -0.16579939589E+02  0.12630636941E+03  0.12508470320E+03 0.  0.
          5    1    3    3  502    0 -0.11405493349E+02 -0.45512806698E+02  0.34564450839E+02  0.58426659274E+02  0.41800000000E+01 0.  1.
         -5    1    3    3    0  502  0.59240393775E+01  0.44037935165E+02 -0.51144390428E+02  0.67879710138E+02  0.41800000000E+01 0.  1.
        -11    1    1    2    0    0 -0.12385346869E+02 -0.70148125658E+01 -0.55740321985E+02  0.57529017959E+02  0.00000000000E+00 0.  1.
         11    1    1    2    0    0  0.17866800841E+02  0.84896840991E+01  0.23339304029E+02  0.30594450820E+02  0.00000000000E+00 0. -1.
</event>
<event>
 7    1  0.2719869E-009  0.2893455E+03  0.7561462E-02  0.1090691E+00
         -2   -1    0    0    0  501 -0.00000000000E+00  0.00000000000E+00  0.97753138403E+02  0.97753138403E+02  0.00000000000E+00 0.  1.
          2   -1    0    0  501    0  0.00000000000E+00 -0.00000000000E+00 -0.90936275083E+03  0.90936275083E+03  0.00000000000E+00 0. -1.
         25    2    1    2    0    0 -0.25693098945E+03 -0.94799708562E+02 -0.48923741472E+03  0.57445742900E+03  0.12509025417E+03 0.  0.
          5    1    3    3  502    0 -0.73018671929E+02 -0.91256215061E+02 -0.19858624025E+03  0.23046342541E+03  0.41800000000E+01 0.  1.
         -5    1    3    3    0  502 -0.18391231752E+03 -0.35434935004E+01 -0.29065117447E+03  0.34399400359E+03  0.41800000000E+01 0.  1.
        -11    1    1    2    0    0  0.12879624812E+03  0.72148312621E+02 -0.11203454901E+03  0.18532563967E+03  0.00000000000E+00 0. -1.
         11    1    1    2    0    0  0.12813474132E+03  0.22651395941E+02 -0.21033764870E+03  0.24733282057E+03  0.00000000000E+00 0.  1.
</event>
<event>
 7    1  0.2719869E-009  0.1370504E+03  0.7561462E-02  0.1217354E+00
         -2   -1    0    0    0  501 -0.00000000000E+00  0.00000000000E+00  0.20285990219E+03  0.20285990219E+03  0.00000000000E+00 0. -1.
          2   -1    0    0  501    0  0.00000000000E+00 -0.00000000000E+00 -0.36101951474E+03  0.36101951474E+03  0.00000000000E+00 0.  1.
         25    2    1    2    0    0  0.86542288261E+02  0.94878381011E+02 -0.30179322463E+03  0.35102257644E+03  0.12508486679E+03 0.  0.
          5    1    3    3  502    0  0.69003846888E+02  0.32241711156E+02 -0.26587567798E+03  0.27660153175E+03  0.41800000000E+01 0. -1.
         -5    1    3    3    0  502  0.17538441373E+02  0.62636669855E+02 -0.35917546648E+02  0.74421044696E+02  0.41800000000E+01 0. -1.
        -11    1    1    2    0    0 -0.49814465796E+02 -0.30175390614E+02  0.12229780994E+03  0.13545770379E+03  0.00000000000E+00 0. -1.
         11    1    1    2    0    0 -0.36727822465E+02 -0.64702990397E+02  0.21335802143E+02  0.77399136704E+02  0.00000000000E+00 0.  1.
</event>
<event>
 7    1  0.2719869E-009  0.1690553E+03  0.7561462E-02  0.1178837E+00
          1   -1    0    0  501    0  0.00000000000E+00  0.00000000000E+00  0.32045928908E+03  0.32045928908E+03  0.00000000000E+00 0. -1.
         -1   -1    0    0    0  501 -0.00000000000E+00 -0.00000000000E+00 -0.92429243785E+02  0.92429243785E+02  0.00000000000E+00 0.  1.
         25    2    1    2    0    0  0.11547779431E+03 -0.61043587140E+02  0.89390781726E+02  0.20172313480E+03  0.12506026845E+03 0.  0.
          5    1    3    3  502    0 -0.10764058642E+02 -0.51292696330E+02  0.38643460970E+02  0.65250250045E+02  0.41800000000E+01 0.  1.
         -5    1    3    3    0  502  0.12624185295E+03 -0.97508908106E+01  0.50747320756E+02  0.13647288475E+03  0.41800000000E+01 0.  1.
        -11    1    1    2    0    0 -0.19401111530E+02 -0.23775814442E+02  0.20865827466E+02  0.37108964373E+02  0.00000000000E+00 0.  1.
         11    1    1    2    0    0 -0.96076682781E+02  0.84819401582E+02  0.11777343611E+03  0.17405643370E+03  0.00000000000E+00 0. -1.
</event>
<event>
 7    1  0.2719869E-009  0.7702168E+02  0.7561462E-02  0.1337722E+00
          1   -1    0    0  501    0  0.00000000000E+00  0.00000000000E+00  0.20350832666E+03  0.20350832666E+03  0.00000000000E+00 0. -1.
         -1   -1    0    0    0  501 -0.00000000000E+00 -0.00000000000E+00 -0.63780561120E+02  0.63780561120E+02  0.00000000000E+00 0.  1.
         25    2    1    2    0    0 -0.40681311943E+01  0.11001772871E+02  0.12041207228E+03  0.17402576915E+03  0.12509321517E+03 0.  0.
          5    1    3    3  502    0  0.24331836264E+02  0.51184725825E+02  0.16819325189E+02  0.59264462485E+02  0.41800000000E+01 0.  1.
         -5    1    3    3    0  502 -0.28399967459E+02 -0.40182952954E+02  0.10359274709E+03  0.11476130667E+03  0.41800000000E+01 0.  1.
        -11    1    1    2    0    0  0.19030551293E+02  0.10424747523E+02  0.49074776502E+02  0.53657906520E+02  0.00000000000E+00 0. -1.
         11    1    1    2    0    0 -0.14962420098E+02 -0.21426520394E+02 -0.29759083233E+02  0.39605212110E+02  0.00000000000E+00 0.  1.
</event>
<event>
 7    1  0.2719869E-009  0.9870139E+02  0.7561462E-02  0.1283051E+00
         -1   -1    0    0    0  501 -0.00000000000E+00  0.00000000000E+00  0.84513425635E+02  0.84513425635E+02  0.00000000000E+00 0.  1.
          1   -1    0    0  501    0  0.00000000000E+00 -0.00000000000E+00 -0.19325689257E+03  0.19325689257E+03  0.00000000000E+00 0. -1.
         25    2    1    2    0    0 -0.40610922194E+01 -0.26070488260E+02  0.52352511253E+01  0.12794871100E+03  0.12508917604E+03 0.  0.
          5    1    3    3  502    0  0.47254518934E+02  0.11410022154E+02 -0.27853334886E+02  0.56182371163E+02  0.41800000000E+01 0. -1.
         -5    1    3    3    0  502 -0.51315611154E+02 -0.37480510414E+02  0.33088586012E+02  0.71766339834E+02  0.41800000000E+01 0. -1.
        -11    1    1    2    0    0  0.19286603847E+02 -0.25034862859E+02 -0.10309346224E+02  0.33241541268E+02  0.00000000000E+00 0. -1.
         11    1    1    2    0    0 -0.15225511628E+02  0.51105351120E+02 -0.10366937184E+03  0.11658006594E+03  0.00000000000E+00 0.  1.
</event>
<event>
 7    1  0.2719869E-009  0.1037503E+03  0.7561462E-02  0.1272601E+00
         -1   -1    0    0    0  501 -0.00000000000E+00  0.00000000000E+00  0.39704000512E+02  0.39704000512E+02  0.00000000000E+00 0.  1.
          1   -1    0    0  501    0  0.00000000000E+00 -0.00000000000E+00 -0.32859639518E+03  0.32859639518E+03  0.00000000000E+00 0. -1.
         25    2    1    2    0    0 -0.24413430679E+02 -0.86469980037E+01 -0.11844118471E+03  0.17420229615E+03  0.12508932639E+03 0.  0.
          5    1    3    3  502    0 -0.11644204773E+02  0.53151267450E+02 -0.89102833083E+02  0.10448651588E+03  0.41800000000E+01 0.  1.
         -5    1    3    3    0  502 -0.12769225906E+02 -0.61798265454E+02 -0.29338351632E+02  0.69715780278E+02  0.41800000000E+01 0.  1.
        -11    1    1    2    0    0 -0.40892128178E+01 -0.36264343078E+02 -0.45725614064E+02  0.58503470169E+02  0.00000000000E+00 0.  1.
         11    1    1    2    0    0  0.28502643497E+02  0.44911341081E+02 -0.12472559589E+03  0.13559462937E+03  0.00000000000E+00 0. -1.
</event>
<event>
 6    1  0.4412264E-009  0.1214114E+03  0.7561462E-02  0.1240787E+00
          2   -1    0    0  501    0  0.00000000000E+00  0.00000000000E+00  0.11999261430E+04  0.11999261430E+04  0.00000000000E+00 0. -1.
         -2   -1    0    0    0  501 -0.00000000000E+00 -0.00000000000E+00 -0.25658262365E+02  0.25658262365E+02  0.00000000000E+00 0.  1.
          5    1    1    2  502    0  0.30375201682E+02  0.13839335021E+02  0.40089252414E+03  0.40230146456E+03  0.41800000000E+01 0.  1.
         -5    1    1    2    0  502 -0.43551928109E+02 -0.10288943811E+03  0.58335802457E+03  0.59397564273E+03  0.41800000000E+01 0.  1.
        -11    1    1    2    0    0 -0.10973389512E+02  0.52042718734E+02  0.25547872107E+02  0.59004691507E+02  0.00000000000E+00 0.  1.
         11    1    1    2    0    0  0.24150115939E+02  0.37007384351E+02  0.16446945980E+03  0.17030260657E+03  0.00000000000E+00 0. -1.
</event>
<event>
 7    1  0.2719869E-009  0.7300349E+02  0.7561462E-02  0.1350167E+00
         -1   -1    0    0    0  501 -0.00000000000E+00  0.00000000000E+00  0.22823970627E+03  0.22823970627E+03  0.00000000000E+00 0.  1.
          1   -1    0    0  501    0  0.00000000000E+00 -0.00000000000E+00 -0.60036638019E+02  0.60036638019E+02  0.00000000000E+00 0. -1.
         25    2    1    2    0    0  0.94556635313E+01 -0.13078922816E+02  0.44707368745E+02  0.13381537267E+03  0.12508931749E+03 0.  0.
          5    1    3    3  502    0  0.71671366005E+01 -0.48824488860E+02  0.72837681910E+02  0.88079503095E+02  0.41800000000E+01 0. -1.
         -5    1    3    3    0  502  0.22885269308E+01  0.35745566044E+02 -0.28130313165E+02  0.45735869579E+02  0.41800000000E+01 0. -1.
        -11    1    1    2    0    0 -0.18656025476E+02  0.33319703362E+02  0.10929920973E+02  0.39720436694E+02  0.00000000000E+00 0. -1.
         11    1    1    2    0    0  0.92003619442E+01 -0.20240780546E+02  0.11256577853E+03  0.11474053492E+03  0.00000000000E+00 0.  1.
</event>
<event>
 7    1  0.2719869E-009  0.1039388E+03  0.7561462E-02  0.1272225E+00
         -2   -1    0    0    0  501 -0.00000000000E+00  0.00000000000E+00  0.38082634307E+02  0.38082634307E+02  0.00000000000E+00 0.  1.
          2   -1    0    0  501    0  0.00000000000E+00 -0.00000000000E+00 -0.38861689445E+03  0.38861689445E+03  0.00000000000E+00 0. -1.
         25    2    1    2    0    0  0.52147909782E+02 -0.15898622278E+02 -0.20633438141E+03  0.24737175639E+03  0.12508692266E+03 0.  0.
          5    1    3    3  502    0 -0.40279671108E+00 -0.57932088396E+02 -0.14509296365E+03  0.15628733030E+03  0.41800000000E+01 0. -1.
         -5    1    3    3    0  502  0.52550706493E+02  0.42033466118E+02 -0.61241417762E+02  0.91084426091E+02  0.41800000000E+01 0. -1.
        -11    1    1    2    0    0  0.13832413033E+02  0.78402494520E+01 -0.95781574087E+02  0.97092301942E+02  0.00000000000E+00 0.  1.
         11    1    1    2    0    0 -0.65980322815E+02  0.80583728258E+01 -0.48418304640E+02  0.82235470422E+02  0.00000000000E+00 0. -1.
</event>
<event>
 7    1  0.2719869E-009  0.2883538E+03  0.7561462E-02  0.1091212E+00
          2   -1    0    0  501    0  0.00000000000E+00  0.00000000000E+00  0.13829442352E+04  0.13829442352E+04  0.00000000000E+00 0. -1.
         -2   -1    0    0    0  501 -0.00000000000E+00 -0.00000000000E+00 -0.62600378400E+02  0.62600378400E+02  0.00000000000E+00 0.  1.
         25    2    1    2    0    0  0.94709634553E+02 -0.25615654078E+03  0.66362193892E+03  0.72844131065E+03  0.12508627815E+03 0.  0.
          5    1    3    3  502    0  0.67839096577E+02 -0.36642087137E+02  0.21045725094E+03  0.22417518250E+03  0.41800000000E+01 0. -1.
         -5    1    3    3    0  502  0.26870537976E+02 -0.21951445364E+03  0.45316468798E+03  0.50426612815E+03  0.41800000000E+01 0. -1.
        -11    1    1    2    0    0 -0.20314026829E+02  0.13204524077E+03  0.22385096935E+03  0.26068728733E+03  0.00000000000E+00 0.  1.
         11    1    1    2    0    0 -0.74395607724E+02  0.12411130001E+03  0.43287094856E+03  0.45641601566E+03  0.00000000000E+00 0. -1.
</event>
<event>
 7    1  0.2719869E-009  0.1533293E+03  0.7561462E-02  0.1196441E+00
          2   -1    0    0  501    0  0.00000000000E+00  0.00000000000E+00  0.33114321502E+03  0.33114321502E+03  0.00000000000E+00 0.  1.
         -2   -1    0    0    0  501 -0.00000000000E+00 -0.00000000000E+00 -0.12817080260E+03  0.12817080260E+03  0.00000000000E+00 0. -1.
         25    2    1    2    0    0 -0.14124992533E+03  0.32853858149E+02 -0.31427162853E+01  0.19154377775E+03  0.12509286441E+03 0.  0.
          5    1    3    3  502    0 -0.14268570865E+03  0.39519542968E+02  0.35310837237E+02  0.15226730889E+03  0.41800000000E+01 0.  1.
         -5    1    3    3    0  502  0.14357833146E+01 -0.66656848195E+01 -0.38453553522E+02  0.39276468863E+02  0.41800000000E+01 0.  1.
        -11    1    1    2    0    0  0.72354896440E+02  0.38975970528E+01  0.36694839061E+02  0.81221508946E+02  0.00000000000E+00 0. -1.
         11    1    1    2    0    0  0.68895028893E+02 -0.36751455202E+02  0.16942028964E+03  0.18654873092E+03  0.00000000000E+00 0.  1.
</event>
<event>
 7    1  0.2719869E-009  0.9490288E+02  0.7561462E-02  0.1291395E+00
         -2   -1    0    0    0  501 -0.00000000000E+00  0.00000000000E+00  0.78662532746E+02  0.78662532746E+02  0.00000000000E+00 0.  1.
          2   -1    0    0  501    0  0.00000000000E+00 -0.00000000000E+00 -0.16270259999E+03  0.16270259999E+03  0.00000000000E+00 0. -1.
         25    2    1    2    0    0 -0.13714092523E+02  0.28676706005E+02 -0.56639968312E+02  0.14094803342E+03  0.12509129592E+03 0.  0.
          5    1    3    3  502    0 -0.53311462723E+02  0.10913464763E+02  0.15429455967E+02  0.56716455127E+02  0.41800000000E+01 0.  1.
         -5    1    3    3    0  502  0.39597370200E+02  0.17763241242E+02 -0.72069424279E+02  0.84231578295E+02  0.41800000000E+01 0.  1.
        -11    1    1    2    0    0 -0.27736050532E+02 -0.39985387128E+02 -0.30348203735E+02  0.57350964707E+02  0.00000000000E+00 0. -1.
         11    1    1    2    0    0  0.41450143056E+02  0.11308681123E+02  0.29481048020E+01  0.43066134607E+02  0.00000000000E+00 0.  1.
</event>
<event>
 7    1  0.2719869E-009  0.9728799E+02  0.7561462E-02  0.1286105E+00
         -3   -1    0    0    0  501 -0.00000000000E+00  0.00000000000E+00  0.36939516325E+02  0.36939516325E+02  0.00000000000E+00 0.  1.
          3   -1    0    0  501    0  0.00000000000E+00 -0.00000000000E+00 -0.33761501468E+03  0.33761501468E+03  0.00000000000E+00 0. -1.
         25    2    1    2    0    0  0.19363888540E+02  0.25197280881E+02 -0.17040058066E+03  0.21374726255E+03  0.12506666708E+03 0.  0.
          5    1    3    3  502    0  0.34308459209E+02 -0.39209730466E+02 -0.34698807910E+02  0.62737174043E+02  0.41800000000E+01 0. -1.
         -5    1    3    3    0  502 -0.14944570669E+02  0.64407011347E+02 -0.13570177275E+03  0.15101008851E+03  0.41800000000E+01 0. -1.
        -11    1    1    2    0    0 -0.27470272987E+02  0.17517721140E+02 -0.10625104526E+03  0.11113402301E+03  0.00000000000E+00 0. -1.
         11    1    1    2    0    0  0.81063844472E+01 -0.42715002022E+02 -0.24023872441E+02  0.49673245450E+02  0.00000000000E+00 0.  1.
</event>
<event>
 7    1  0.2719869E-009  0.1062983E+03  0.7561462E-02  0.1267583E+00
         -1   -1    0    0    0  501 -0.00000000000E+00  0.00000000000E+00  0.94199837311E+02  0.94199837311E+02  0.00000000000E+00 0.  1.
          1   -1    0    0  501    0  0.00000000000E+00 -0.00000000000E+00 -0.14034449209E+03  0.14034449209E+03  0.00000000000E+00 0. -1.
         25    2    1    2    0    0  0.77962372046E+01 -0.44662306836E+01  0.12272961266E+02  0.12600999896E+03  0.12508863149E+03 0.  0.
          5    1    3    3  502    0 -0.35759476226E+02  0.43638164031E+02 -0.96420478314E+01  0.57388770560E+02  0.41800000000E+01 0.  1.
         -5    1    3    3    0  502  0.43555713431E+02 -0.48104394715E+02  0.21915009097E+02  0.68621228400E+02  0.41800000000E+01 0.  1.
        -11    1    1    2    0    0  0.38563671971E+02  0.18202478725E+02 -0.21877630468E+02  0.47928256201E+02  0.00000000000E+00 0. -1.
         11    1    1    2    0    0 -0.46359909175E+02 -0.13736248041E+02 -0.36539985580E+02  0.60606074243E+02  0.00000000000E+00 0.  1.
</event>
<event>
 7    1  0.2719869E-009  0.1159182E+03  0.7561462E-02  0.1249987E+00
         -2   -1    0    0    0  501 -0.00000000000E+00  0.00000000000E+00  0.20769394879E+03  0.20769394879E+03  0.00000000000E+00 0.  1.
          2   -1    0    0  501    0  0.00000000000E+00 -0.00000000000E+00 -0.73578885800E+02  0.73578885800E+02  0.00000000000E+00 0. -1.
         25    2    1    2    0    0 -0.44789155313E+02 -0.39102052130E+02  0.77285416760E+02  0.15860482938E+03  0.12508963724E+03 0.  0.
          5    1    3    3  502    0  0.10266165247E+02 -0.66454106957E+02  0.68993740304E+02  0.96432106072E+02  0.41800000000E+01 0.  1.
         -5    1    3    3    0  502 -0.55055320560E+02  0.27352054827E+02  0.82916764568E+01  0.62172723309E+02  0.41800000000E+01 0.  1.
        -11    1    1    2    0    0  0.41976525468E+02  0.64684067672E+02  0.58630440886E+02  0.96868910902E+02  0.00000000000E+00 0. -1.
         11    1    1    2    0    0  0.28126298455E+01 -0.25582015542E+02 -0.18007946527E+01  0.25799094310E+02  0.00000000000E+00 0.  1.
</event>
<event>
 7    1  0.2719869E-009  0.1418681E+03  0.7561462E-02  0.1210837E+00
         -1   -1    0    0    0  501 -0.00000000000E+00  0.00000000000E+00  0.42798757448E+03  0.42798757448E+03  0.00000000000E+00 0.  1.
          1   -1    0    0  501    0  0.00000000000E+00 -0.00000000000E+00 -0.93241584547E+02  0.93241584547E+02  0.00000000000E+00 0. -1.
         25    2    1    2    0    0  0.21280925759E+02 -0.11700483917E+03  0.32827952121E+03  0.37088871493E+03  0.12509190471E+03 0.  0.
          5    1    3    3  502    0 -0.13063393837E+02 -0.87257030105E+02  0.30896140280E+03  0.32133948151E+03  0.41800000000E+01 0.  1.
         -5    1    3    3    0  502  0.34344319596E+02 -0.29747809069E+02  0.19318118411E+02  0.49549233413E+02  0.41800000000E+01 0.  1.
        -11    1    1    2    0    0  0.34086014902E+02  0.67008544288E+02 -0.23833660337E+01  0.75217563462E+02  0.00000000000E+00 0. -1.
         11    1    1    2    0    0 -0.55366940661E+02  0.49996294886E+02  0.88498347621E+01  0.75122880641E+02  0.00000000000E+00 0.  1.
</event>
<event>
 7    1  0.2719869E-009  0.1058150E+03  0.7561462E-02  0.1268522E+00
          3   -1    0    0  501    0  0.00000000000E+00  0.00000000000E+00  0.55587598526E+03  0.55587598526E+03  0.00000000000E+00 0. -1.
         -3   -1    0    0    0  501 -0.00000000000E+00 -0.00000000000E+00 -0.21728544196E+02  0.21728544196E+02  0.00000000000E+00 0.  1.
         25    2    1    2    0    0  0.18493429287E+02  0.32209422205E+01  0.29004997848E+03  0.31643383238E+03  0.12509595861E+03 0.  0.
          5    1    3    3  502    0  0.32224857334E+01 -0.59804632781E+02  0.16349776365E+03  0.17417224129E+03  0.41800000000E+01 0. -1.
         -5    1    3    3    0  502  0.15270943553E+02  0.63025575002E+02  0.12655221483E+03  0.14226159109E+03  0.41800000000E+01 0. -1.
        -11    1    1    2    0    0 -0.48990888943E+02 -0.18662564315E+02  0.98152557515E+02  0.11127588711E+03  0.00000000000E+00 0.  1.
         11    1    1    2    0    0  0.30497459657E+02  0.15441622094E+02  0.14594490507E+03  0.14989480996E+03  0.00000000000E+00 0. -1.
</event>
<event>
 7    1  0.2719869E-009  0.1007672E+03  0.7561462E-02  0.1278691E+00
         -1   -1    0    0    0  501 -0.00000000000E+00  0.00000000000E+00  0.98047910238E+02  0.98047910238E+02  0.00000000000E+00 0.  1.
          1   -1    0    0  501    0  0.00000000000E+00 -0.00000000000E+00 -0.12809978891E+03  0.12809978891E+03  0.00000000000E+00 0. -1.
         25    2    1    2    0    0 -0.24933634850E+02  0.78309584954E+00 -0.26875786512E+02  0.13035429506E+03  0.12509050705E+03 0.  0.
          5    1    3    3  502    0 -0.30723880205E+02 -0.48787942771E+02 -0.48830140393E+02  0.75670834444E+02  0.41800000000E+01 0.  1.
         -5    1    3    3    0  502  0.57902453549E+01  0.49571038620E+02  0.21954353881E+02  0.54683460621E+02  0.41800000000E+01 0.  1.
        -11    1    1    2    0    0 -0.32207365462E+02 -0.13799933122E+02  0.84562006367E+01  0.36045247584E+02  0.00000000000E+00 0.  1.
         11    1    1    2    0    0  0.57141000312E+02  0.13016837273E+02 -0.11632292796E+02  0.59748156498E+02  0.00000000000E+00 0. -1.
</event>
<event>
 7    1  0.3065195E-009  0.1495288E+03  0.7561462E-02  0.1201053E+00
          2   -1    0    0  501    0  0.00000000000E+00  0.00000000000E+00  0.51347330017E+03  0.51347330017E+03  0.00000000000E+00 0.  1.
         -2   -1    0    0    0  501 -0.00000000000E+00 -0.00000000000E+00 -0.56724184969E+02  0.56724184969E+02  0.00000000000E+00 0. -1.
         25    2    1    2    0    0  0.11405965754E+03 -0.64253381209E+02  0.21946746362E+03  0.28452022409E+03  0.12509071849E+03 0.  0.
          5    1    3    3  502    0  0.12446670069E+03 -0.69167925650E+02  0.12578454032E+03  0.19004048122E+03  0.41800000000E+01 0.  1.
         -5    1    3    3    0  502 -0.10407043152E+02  0.49145444411E+01  0.93682923296E+02  0.94479742863E+02  0.41800000000E+01 0.  1.
        -11    1    1    2    0    0 -0.58642533490E+02  0.66791220673E+02  0.82557210292E+02  0.12130831325E+03  0.00000000000E+00 0. -1.
         11    1    1    2    0    0 -0.55417124052E+02 -0.25378394639E+01  0.15472444130E+03  0.16436894780E+03  0.00000000000E+00 0.  1.
</event>
<event>
 7    1  0.2719869E-009  0.1097654E+03  0.7561462E-02  0.1261005E+00
          1   -1    0    0  501    0  0.00000000000E+00  0.00000000000E+00  0.71034542246E+03  0.71034542246E+03  0.00000000000E+00 0. -1.
         -1   -1    0    0    0  501 -0.00000000000E+00 -0.00000000000E+00 -0.21016781584E+02  0.21016781584E+02  0.00000000000E+00 0.  1.
         25    2    1    2    0    0  0.51566810529E+02 -0.22542696252E+02  0.40087512782E+03  0.42369244643E+03  0.12508841655E+03 0.  0.
          5    1    3    3  502    0 -0.34666263441E+02 -0.20414472510E+02  0.62311015592E+02  0.74287519631E+02  0.41800000000E+01 0.  1.
         -5    1    3    3    0  502  0.86233073970E+02 -0.21282237415E+01  0.33856411222E+03  0.34940492679E+03  0.41800000000E+01 0.  1.
        -11    1    1    2    0    0 -0.46066108415E+01  0.41737840348E+02  0.21060131560E+03  0.21474678650E+03  0.00000000000E+00 0. -1.
         11    1    1    2    0    0 -0.46960199688E+02 -0.19195144096E+02  0.77852197456E+02  0.92922971112E+02  0.00000000000E+00 0.  1.
</event>
<event>
 7    1  0.2719869E-009  0.9972845E+02  0.7561462E-02  0.1280868E+00
          1   -1    0    0  501    0  0.00000000000E+00  0.00000000000E+00  0.22619220671E+02  0.22619220671E+02  0.00000000000E+00 0. -1.
         -1   -1    0    0    0  501 -0.00000000000E+00 -0.00000000000E+00 -0.70505871499E+03  0.70505871499E+03  0.00000000000E+00 0.  1.
         25    2    1    2    0    0 -0.30799671941E+02 -0.48310527567E+02 -0.46103953898E+03  0.48113268793E+03  0.12509468424E+03 0.  0.
          5    1    3    3  502    0 -0.69374265888E+02 -0.69826072281E+01 -0.34483847188E+03  0.35184171108E+03  0.41800000000E+01 0. -1.
         -5    1    3    3    0  502  0.38574593947E+02 -0.41327920339E+02 -0.11620106710E+03  0.12929097684E+03  0.41800000000E+01 0. -1.
        -11    1    1    2    0    0  0.86923171545E+01  0.49997834614E+02 -0.21834413094E+03  0.22416400104E+03  0.00000000000E+00 0.  1.
         11    1    1    2    0    0  0.22107354786E+02 -0.16873070472E+01 -0.30558243922E+01  0.22381246691E+02  0.00000000000E+00 0. -1.
</event>
<event>
 7    1  0.2719869E-009  0.1427253E+03  0.7561462E-02  0.1209708E+00
          2   -1    0    0  501    0  0.00000000000E+00  0.00000000000E+00  0.70723599750E+03  0.70723599750E+03  0.00000000000E+00 0. -1.
         -2   -1    0    0    0  501 -0.00000000000E+00 -0.00000000000E+00 -0.36837514782E+02  0.36837514782E+02  0.00000000000E+00 0.  1.
         25    2    1    2    0    0  0.57526032021E+02  0.92140548422E+02  0.27118513479E+03  0.31778490478E+03  0.12508694318E+03 0.  0.
          5    1    3    3  502    0  0.86187279049E+02  0.40470591579E+02  0.10726212387E+03  0.14348780948E+03  0.41800000000E+01 0.  1.
         -5    1    3    3    0  502 -0.28661247029E+02  0.51669956842E+02  0.16392301092E+03  0.17429709530E+03  0.41800000000E+01 0.  1.
        -11    1    1    2    0    0 -0.35981004679E+02  0.30797345588E+00  0.36090437811E+02  0.50963195021E+02  0.00000000000E+00 0. -1.
         11    1    1    2    0    0 -0.21545027342E+02 -0.92448521878E+02  0.36312291012E+03  0.37532541248E+03  0.00000000000E+00 0.  1.
</event>
<event>
 7    1  0.2719869E-009  0.7803844E+02  0.7561462E-02  0.1334712E+00
         -1   -1    0    0    0  501 -0.00000000000E+00  0.00000000000E+00  0.10958963430E+02  0.10958963430E+02  0.00000000000E+00 0.  1.
          1   -1    0    0  501    0  0.00000000000E+00 -0.00000000000E+00 -0.90751028841E+03  0.90751028841E+03  0.00000000000E+00 0. -1.
         25    2    1    2    0    0 -0.15044358675E+02 -0.16957082426E+01 -0.86179923880E+03  0.87096160101E+03  0.12508786630E+03 0.  0.
          5    1    3    3  502    0  0.44019844948E+02 -0.34777128690E+02 -0.46732212682E+03  0.47069590825E+03  0.41800000000E+01 0.  1.
         -5    1    3    3    0  502 -0.59064203623E+02  0.33081420448E+02 -0.39447711198E+03  0.40026569277E+03  0.41800000000E+01 0.  1.
        -11    1    1    2    0    0 -0.14282723770E+01  0.12314067337E+02 -0.17176859027E+02  0.21183028641E+02  0.00000000000E+00 0.  1.
         11    1    1    2    0    0  0.16472631052E+02 -0.10618359095E+02 -0.17575227159E+02  0.26324622188E+02  0.00000000000E+00 0. -1.
</event>
<event>
 7    1  0.2719869E-009  0.1066128E+03  0.7561462E-02  0.1266974E+00
          2   -1    0    0  501    0  0.00000000000E+00  0.00000000000E+00  0.31262676812E+02  0.31262676812E+02  0.00000000000E+00 0. -1.
         -2   -1    0    0    0  501 -0.00000000000E+00 -0.00000000000E+00 -0.71814626891E+03  0.71814626891E+03  0.00000000000E+00 0.  1.
         25    2    1    2    0    0  0.10389300950E+02  0.56812765924E+02 -0.59172994372E+03  0.60755846084E+03  0.12508928448E+03 0.  0.
          5    1    3    3  502    0  0.13317497708E+02  0.85805104449E+02 -0.54794013892E+03  0.55479342095E+03  0.41800000000E+01 0. -1.
         -5    1    3    3    0  502 -0.29281967585E+01 -0.28992338525E+02 -0.43789804808E+02  0.52765039890E+02  0.41800000000E+01 0. -1.
        -11    1    1    2    0    0 -0.44339577909E+02 -0.35146642957E+02 -0.27013120347E+02  0.62697634335E+02  0.00000000000E+00 0.  1.
         11    1    1    2    0    0  0.33950276959E+02 -0.21666122967E+02 -0.68140528030E+02  0.79152850550E+02  0.00000000000E+00 0. -1.
</event>
<event>
 7    1  0.2719869E-009  0.2404223E+03  0.7561462E-02  0.1119512E+00
         -2   -1    0    0    0  501 -0.00000000000E+00  0.00000000000E+00  0.71825913714E+02  0.71825913714E+02  0.00000000000E+00 0.  1.
          2   -1    0    0  501    0  0.00000000000E+00 -0.00000000000E+00 -0.90126391794E+03  0.90126391794E+03  0.00000000000E+00 0. -1.
         25    2    1    2    0    0 -0.12200609576E+03  0.19196842878E+03 -0.48048211666E+03  0.54612116857E+03  0.12509157157E+03 0.  0.
          5    1    3    3  502    0 -0.23041599377E+02  0.93615443754E+02 -0.92021944105E+02  0.13334270587E+03  0.41800000000E+01 0.  1.
         -5    1    3    3    0  502 -0.98964496387E+02  0.98352985031E+02 -0.38846017256E+03  0.41277846271E+03  0.41800000000E+01 0.  1.
        -11    1    1    2    0    0  0.27611566217E+02 -0.12748204714E+03 -0.16418518122E+03  0.20969226181E+03  0.00000000000E+00 0.  1.
         11    1    1    2    0    0  0.94394529547E+02 -0.64486381645E+02 -0.18477070634E+03  0.21727640127E+03  0.00000000000E+00 0. -1.
</event>
<event>
 7    1  0.3783460E-009  0.7648541E+02  0.7561462E-02  0.1339332E+00
          1   -1    0    0  501    0  0.00000000000E+00  0.00000000000E+00  0.84947621318E+03  0.84947621318E+03  0.00000000000E+00 0. -1.
         -1   -1    0    0    0  501 -0.00000000000E+00 -0.00000000000E+00 -0.22994338333E+02  0.22994338333E+02  0.00000000000E+00 0.  1.
         25    2    1    2    0    0  0.29519081391E+02 -0.56958170863E+02  0.64078224786E+03  0.65602256914E+03  0.12509241644E+03 0.  0.
          5    1    3    3  502    0  0.79171785933E+01 -0.64784459187E+02  0.62362363241E+03  0.62704355125E+03  0.41800000000E+01 0.  1.
         -5    1    3    3    0  502  0.21601902797E+02  0.78262883233E+01  0.17158615453E+02  0.28979017886E+02  0.41800000000E+01 0.  1.
        -11    1    1    2    0    0 -0.78475108302E+01  0.12509730256E+02 -0.78200593077E+01  0.16710179678E+02  0.00000000000E+00 0.  1.
         11    1    1    2    0    0 -0.21671570560E+02  0.44448440608E+02  0.19351968629E+03  0.19973780270E+03  0.00000000000E+00 0. -1.
</event>
<event>
 7    1  0.2719869E-009  0.1226718E+03  0.7561462E-02  0.1238753E+00
         -2   -1    0    0    0  501 -0.00000000000E+00  0.00000000000E+00  0.75033047111E+02  0.75033047111E+02  0.00000000000E+00 0.  1.
          2   -1    0    0  501    0  0.00000000000E+00 -0.00000000000E+00 -0.34580716278E+03  0.34580716278E+03  0.00000000000E+00 0. -1.
         25    2    1    2    0    0 -0.20320137340E+01  0.16550042706E+02 -0.34867990659E+02  0.13092336164E+03  0.12508843614E+03 0.  0.
          5    1    3    3  502    0 -0.59190499221E+02  0.22987174887E+02 -0.20251774118E+00  0.63635201114E+02  0.41800000000E+01 0.  1.
         -5    1    3    3    0  502  0.57158485487E+02 -0.64371321811E+01 -0.34665472918E+02  0.67288160523E+02  0.41800000000E+01 0.  1.
        -11    1    1    2    0    0 -0.38139222211E+02  0.39611291429E+02 -0.12920927717E+02  0.56485441068E+02  0.00000000000E+00 0.  1.
         11    1    1    2    0    0  0.40171235945E+02 -0.56161334136E+02 -0.22298519729E+03  0.23343140719E+03  0.00000000000E+00 0. -1.
</event>
<event>
 7    1  0.2719869E-009  0.9711047E+02  0.7561462E-02  0.1286492E+00
         -3   -1    0    0    0  501 -0.00000000000E+00  0.00000000000E+00  0.20888489734E+03  0.20888489734E+03  0.00000000000E+00 0.  1.
          3   -1    0    0  501    0  0.00000000000E+00 -0.00000000000E+00 -0.67167759947E+02  0.67167759947E+02  0.00000000000E+00 0. -1.
         25    2    1    2    0    0  0.22626933582E+02  0.32474548313E+02  0.46469541459E+02  0.13919155294E+03  0.12509314815E+03 0.  0.
          5    1    3    3  502    0  0.36018806319E+01 -0.30425101260E+02 -0.26629990408E+02  0.40807954126E+02  0.41800000000E+01 0. -1.
         -5    1    3    3    0  502  0.19025052950E+02  0.62899649574E+02  0.73099531867E+02  0.98383598813E+02  0.41800000000E+01 0. -1.
        -11    1    1    2    0    0 -0.50638756994E+02  0.47555740459E+01  0.40827090819E+02  0.65220783030E+02  0.00000000000E+00 0.  1.
         11    1    1    2    0    0  0.28011823412E+02 -0.37230122359E+02  0.54420505120E+02  0.71640321323E+02  0.00000000000E+00 0. -1.
</event>
<event>
 7    1  0.2719869E-009  0.1059682E+03  0.7561462E-02  0.1268224E+00
         -4   -1    0    0    0  501 -0.00000000000E+00  0.00000000000E+00  0.11222696988E+03  0.11222696988E+03  0.00000000000E+00 0.  1.
          4   -1    0    0  501    0  0.00000000000E+00 -0.00000000000E+00 -0.13285093355E+03  0.13285093355E+03  0.00000000000E+00 0. -1.
         25    2    1    2    0    0 -0.50360038650E+02 -0.25147422011E+02 -0.21407246742E+02  0.13882959662E+03  0.12508741086E+03 0.  0.
          5    1    3    3  502    0 -0.91657392364E+02 -0.22413223364E+02 -0.22964241220E+02  0.97202154972E+02  0.41800000000E+01 0.  1.
         -5    1    3    3    0  502  0.41297353713E+02 -0.27341986468E+01  0.15569944782E+01  0.41627441643E+02  0.41800000000E+01 0.  1.
        -11    1    1    2    0    0  0.14699691987E+02  0.35774919311E+02  0.37572203000E+02  0.53922131212E+02  0.00000000000E+00 0.  1.
         11    1    1    2    0    0  0.35660346664E+02 -0.10627497300E+02 -0.36788919938E+02  0.52326175603E+02  0.00000000000E+00 0. -1.
</event>
<event>
 7    1  0.2719869E-009  0.1088065E+03  0.7561462E-02  0.1262796E+00
          2   -1    0    0  501    0  0.00000000000E+00  0.00000000000E+00  0.87559662602E+03  0.87559662602E+03  0.00000000000E+00 0. -1.
         -2   -1    0    0    0  501 -0.00000000000E+00 -0.00000000000E+00 -0.17279456323E+02  0.17279456323E+02  0.00000000000E+00 0.  1.
         25    2    1    2    0    0 -0.23505936895E+02 -0.52092079095E+02  0.50588390767E+03  0.52424422113E+03  0.12508941435E+03 0.  0.
          5    1    3    3  502    0 -0.59487052862E+02 -0.25486816210E+02  0.12599248095E+03  0.14170344003E+03  0.41800000000E+01 0. -1.
         -5    1    3    3    0  502  0.35981115967E+02 -0.26605262885E+02  0.37989142671E+03  0.38254078111E+03  0.41800000000E+01 0. -1.
        -11    1    1    2    0    0 -0.88334166516E+01  0.70199939919E+02  0.24310630343E+03  0.25319307965E+03  0.00000000000E+00 0.  1.
         11    1    1    2    0    0  0.32339353546E+02 -0.18107860825E+02  0.10932695860E+03  0.11543878156E+03  0.00000000000E+00 0. -1.
</event>
<event>
 7    1  0.2719869E-009  0.1159512E+03  0.7561462E-02  0.1249930E+00
         -3   -1    0    0    0  501 -0.00000000000E+00  0.00000000000E+00  0.21773223840E+03  0.21773223840E+03  0.00000000000E+00 0.  1.
          3   -1    0    0  501    0  0.00000000000E+00 -0.00000000000E+00 -0.12154796084E+03  0.12154796084E+03  0.00000000000E+00 0. -1.
         25    2    1    2    0    0  0.49445077542E+02 -0.91743450810E+02 -0.12232666495E+02  0.16327569461E+03  0.12509051867E+03 0.  0.
          5    1    3    3  502    0 -0.93746509902E+01 -0.49401603644E+02  0.47475308828E+02  0.69280443649E+02  0.41800000000E+01 0.  1.
         -5    1    3    3    0  502  0.58819728532E+02 -0.42341847166E+02 -0.59707975323E+02  0.93995250961E+02  0.41800000000E+01 0.  1.
        -11    1    1    2    0    0 -0.27537651659E+02  0.20543330650E+02 -0.10285587410E+02  0.35862849879E+02  0.00000000000E+00 0. -1.
         11    1    1    2    0    0 -0.21907425883E+02  0.71200120160E+02  0.11870253147E+03  0.14014165475E+03  0.00000000000E+00 0.  1.
</event>
<event>
 7    1  0.2719869E-009  0.1032310E+03  0.7561462E-02  0.1273645E+00
         -1   -1    0    0    0  501 -0.00000000000E+00  0.00000000000E+00  0.48112142214E+03  0.48112142214E+03  0.00000000000E+00 0.  1.
          1   -1    0    0  501    0  0.00000000000E+00 -0.00000000000E+00 -0.40595318794E+02  0.40595318794E+02  0.00000000000E+00 0. -1.
         25    2    1    2    0    0  0.81019662683E+02 -0.20815238284E+02  0.19354054783E+03  0.24515956072E+03  0.12509119343E+03 0.  0.
          5    1    3    3  502    0  0.26303025484E+02 -0.44211677925E+02  0.17535580616E+03  0.18279401732E+03  0.41800000000E+01 0.  1.
         -5    1    3    3    0  502  0.54716637199E+02  0.23396439641E+02  0.18184741669E+02  0.62365543402E+02  0.41800000000E+01 0.  1.
        -11    1    1    2    0    0 -0.27289452286E+02  0.30140529363E+02  0.20145009328E+03  0.20551230084E+03  0.00000000000E+00 0.  1.
         11    1    1    2    0    0 -0.53730210397E+02 -0.93252910793E+01  0.45535462240E+02  0.71044879368E+02  0.00000000000E+00 0. -1.
</event>
<event>
 7    1  0.2719869E-009  0.1051146E+03  0.7561462E-02  0.1269894E+00
          2   -1    0    0  501    0  0.00000000000E+00  0.00000000000E+00  0.75327597265E+03  0.75327597265E+03  0.00000000000E+00 0. -1.
         -2   -1    0    0    0  501 -0.00000000000E+00 -0.00000000000E+00 -0.19098323658E+02  0.19098323658E+02  0.00000000000E+00 0.  1.
         25    2    1    2    0    0  0.45506587503E+01 -0.51780530042E+02  0.42642269355E+03  0.44742171503E+03  0.12509174918E+03 0.  0.
          5    1    3    3  502    0  0.67982348756E+00 -0.84565597704E+02  0.38544046525E+03  0.39463100122E+03  0.41800000000E+01 0.  1.
         -5    1    3    3    0  502  0.38708352627E+01  0.32785067662E+02  0.40982228309E+02  0.52790713808E+02  0.41800000000E+01 0.  1.
        -11    1    1    2    0    0  0.35036460088E+02  0.34216370358E+02  0.85629132675E+02  0.98644117405E+02  0.00000000000E+00 0.  1.
         11    1    1    2    0    0 -0.39587118838E+02  0.17564159684E+02  0.22212582276E+03  0.22630846387E+03  0.00000000000E+00 0. -1.
</event>
<event>
 7    1  0.2719869E-009  0.1486257E+03  0.7561462E-02  0.1202172E+00
         -1   -1    0    0    0  501 -0.00000000000E+00  0.00000000000E+00  0.89067852226E+02  0.89067852226E+02  0.00000000000E+00 0.  1.
          1   -1    0    0  501    0  0.00000000000E+00 -0.00000000000E+00 -0.44505549747E+03  0.44505549747E+03  0.00000000000E+00 0. -1.
         25    2    1    2    0    0 -0.15931448693E+02 -0.13545944613E+03 -0.30983426496E+03  0.36089850236E+03  0.12508950659E+03 0.  0.
          5    1    3    3  502    0 -0.40343559770E+02 -0.99335990043E+02 -0.10043952278E+03  0.14697214658E+03  0.41800000000E+01 0. -1.
         -5    1    3    3    0  502  0.24412111076E+02 -0.36123456090E+02 -0.20939474217E+03  0.21392635578E+03  0.41800000000E+01 0. -1.
        -11    1    1    2    0    0  0.35133046175E+02  0.97054792442E+02  0.86779986263E+01  0.10358219601E+03  0.00000000000E+00 0.  1.
         11    1    1    2    0    0 -0.19201597482E+02  0.38404653691E+02 -0.54831378918E+02  0.69642651335E+02  0.00000000000E+00 0. -1.
</event>
<event>
 7    1  0.2719869E-009  0.1056840E+03  0.7561462E-02  0.1268778E+00
          2   -1    0    0  501    0  0.00000000000E+00  0.00000000000E+00  0.86122100406E+03  0.86122100406E+03  0.00000000000E+00 0. -1.
         -2   -1    0    0    0  501 -0.00000000000E+00 -0.00000000000E+00 -0.14477341463E+02  0.14477341463E+02  0.00000000000E+00 0.  1.
         25    2    1    2    0    0 -0.53766174593E+01 -0.14618668325E+01  0.57805339417E+03  0.59145926538E+03  0.12508913229E+03 0.  0.
          5    1    3    3  502    0 -0.58432765170E+02  0.22892167040E+02  0.22664831508E+03  0.23521345728E+03  0.41800000000E+01 0. -1.
         -5    1    3    3    0  502  0.53056147710E+02 -0.24354033872E+02  0.35140507909E+03  0.35624580810E+03  0.41800000000E+01 0. -1.
        -11    1    1    2    0    0  0.44799896489E+02  0.16511152040E+02  0.17661041341E+03  0.18295050422E+03  0.00000000000E+00 0. -1.
         11    1    1    2    0    0 -0.39423279030E+02 -0.15049285208E+02  0.92079855012E+02  0.10128857593E+03  0.00000000000E+00 0.  1.
</event>
<event>
 7    1  0.2719869E-009  0.8424217E+02  0.7561462E-02  0.1317426E+00
          2   -1    0    0  501    0  0.00000000000E+00  0.00000000000E+00  0.24214994942E+03  0.24214994942E+03  0.00000000000E+00 0. -1.
         -2   -1    0    0    0  501 -0.00000000000E+00 -0.00000000000E+00 -0.72969820973E+02  0.72969820973E+02  0.00000000000E+00 0.  1.
         25    2    1    2    0    0 -0.31689027728E+02  0.65988441729E+02  0.13981886859E+03  0.20137213010E+03  0.12507097923E+03 0.  0.
          5    1    3    3  502    0 -0.71642047249E+01  0.26342677346E+02 -0.20478151643E+02  0.34381529544E+02  0.41800000000E+01 0. -1.
         -5    1    3    3    0  502 -0.24524823003E+02  0.39645764383E+02  0.16029702023E+03  0.16699060055E+03  0.41800000000E+01 0. -1.
        -11    1    1    2    0    0 -0.13809144537E+02 -0.38506077789E+02 -0.15944759850E+02  0.43904964027E+02  0.00000000000E+00 0.  1.
         11    1    1    2    0    0  0.45498172265E+02 -0.27482363940E+02  0.45306019710E+02  0.69842676274E+02  0.00000000000E+00 0. -1.
</event>
<event>
 7    1  0.2719869E-009  0.9129984E+02  0.7561462E-02  0.1299734E+00
          1   -1    0    0  501    0  0.00000000000E+00  0.00000000000E+00  0.42328087702E+03  0.42328087702E+03  0.00000000000E+00 0. -1.
         -1   -1    0    0    0  501 -0.00000000000E+00 -0.00000000000E+00 -0.35381904951E+02  0.35381904951E+02  0.00000000000E+00 0.  1.
         25    2    1    2    0    0 -0.63808049039E+02  0.84809407419E+01  0.23367544734E+03  0.27275285524E+03  0.12508601790E+03 0.  0.
          5    1    3    3  502    0 -0.14324474817E+01  0.32480742138E+02  0.18999463497E+03  0.19280167072E+03  0.41800000000E+01 0.  1.
         -5    1    3    3    0  502 -0.62375601558E+02 -0.23999801396E+02  0.43680812371E+02  0.79951184520E+02  0.41800000000E+01 0.  1.
        -11    1    1    2    0    0  0.27506739847E+02  0.22182712825E+02  0.14270225429E+02  0.38109484634E+02  0.00000000000E+00 0.  1.
         11    1    1    2    0    0  0.36301309193E+02 -0.30663653567E+02  0.13995329930E+03  0.14780044209E+03  0.00000000000E+00 0. -1.
</event>
<event>
 7    1  0.2719869E-009  0.1999136E+03  0.7561462E-02  0.1149812E+00
          1   -1    0    0  501    0  0.00000000000E+00  0.00000000000E+00  0.58390429055E+03  0.58390429055E+03  0.00000000000E+00 0. -1.
         -1   -1    0    0    0  501 -0.00000000000E+00 -0.00000000000E+00 -0.76791048097E+02  0.76791048097E+02  0.00000000000E+00 0.  1.
         25    2    1    2    0    0  0.13546539591E+03  0.11745865891E+03  0.30764424821E+03  0.37741240068E+03  0.12509087372E+03 0.  0.
          5    1    3    3  502    0  0.11694819118E+02 -0.14118498096E+02  0.10175981679E+03  0.10348252749E+03  0.41800000000E+01 0.  1.
         -5    1    3    3    0  502  0.12377057679E+03  0.13157715701E+03  0.20588443142E+03  0.27392987320E+03  0.41800000000E+01 0.  1.
        -11    1    1    2    0    0 -0.11047046962E+03 -0.13143616607E+03  0.17934423321E+03  0.24828118010E+03  0.00000000000E+00 0. -1.
         11    1    1    2    0    0 -0.24994926295E+02  0.13977507154E+02  0.20124761032E+02  0.35001757860E+02  0.00000000000E+00 0.  1.
</event>
<event>
 7    1  0.2719869E-009  0.1935155E+03  0.7561462E-02  0.1155328E+00
         -2   -1    0    0    0  501 -0.00000000000E+00  0.00000000000E+00  0.16326157182E+03  0.16326157182E+03  0.00000000000E+00 0.  1.
          2   -1    0    0  501    0  0.00000000000E+00 -0.00000000000E+00 -0.28843144762E+03  0.28843144762E+03  0.00000000000E+00 0. -1.
         25    2    1    2    0    0 -0.16981788100E+03 -0.77750427669E+02 -0.84794211883E+02  0.24025161851E+03  0.12509012798E+03 0.  0.
          5    1    3    3  502    0 -0.13619295818E+03 -0.84427249021E+02 -0.11262010500E+03  0.19590110435E+03  0.41800000000E+01 0.  1.
         -5    1    3    3    0  502 -0.33624922820E+02  0.66768213523E+01  0.27825893122E+02  0.44350514157E+02  0.41800000000E+01 0.  1.
        -11    1    1    2    0    0  0.83227935754E+02  0.62957801424E+02 -0.61447808090E+02  0.12110494279E+03  0.00000000000E+00 0. -1.
         11    1    1    2    0    0  0.86589945247E+02  0.14792626245E+02  0.21072144165E+02  0.90336458138E+02  0.00000000000E+00 0.  1.
</event>
<event>
 7    1  0.2719869E-009  0.1886802E+03  0.7561462E-02  0.1159657E+00
          3   -1    0    0  501    0  0.00000000000E+00  0.00000000000E+00  0.39444638711E+02  0.39444638711E+02  0.00000000000E+00 0. -1.
         -3   -1    0    0    0  501 -0.00000000000E+00 -0.00000000000E+00 -0.11050955446E+04  0.11050955446E+04  0.00000000000E+00 0.  1.
         25    2    1    2    0    0  0.16428057196E+03 -0.54063697359E+02 -0.41165818970E+03  0.46370445623E+03  0.12509343661E+03 0.  0.
          5    1    3    3  502    0 -0.36323656292E+01  0.14451561934E+02 -0.19055775985E+01  0.15593118622E+02  0.41800000000E+01 0. -1.
         -5    1    3    3    0  502  0.16791293759E+03 -0.68515259292E+02 -0.40975261211E+03  0.44811133761E+03  0.41800000000E+01 0. -1.
        -11    1    1    2    0    0 -0.11607755515E+03  0.62051327413E+02 -0.55561701461E+03  0.57099442464E+03  0.00000000000E+00 0.  1.
         11    1    1    2    0    0 -0.48203016810E+02 -0.79876300545E+01 -0.98375701620E+02  0.10984130249E+03  0.00000000000E+00 0. -1.
</event>
<event>
 7    1  0.2719869E-009  0.1063388E+03  0.7561462E-02  0.1267504E+00
         -3   -1    0    0    0  501 -0.00000000000E+00  0.00000000000E+00  0.26501129048E+02  0.26501129048E+02  0.00000000000E+00 0.  1.
          3   -1    0    0  501    0  0.00000000000E+00 -0.00000000000E+00 -0.52474638066E+03  0.52474638066E+03  0.00000000000E+00 0. -1.
         25    2    1    2    0    0 -0.15156270279E+02 -0.38899804409E+02 -0.33266265991E+03  0.35785582372E+03  0.12511370014E+03 0.  0.
          5    1    3    3  502    0  0.27660278656E+02 -0.59493698372E+02 -0.27633487557E+03  0.28404757879E+03  0.41800000000E+01 0. -1.
         -5    1    3    3    0  502 -0.42816548935E+02  0.20593893963E+02 -0.56327784341E+02  0.73808244932E+02  0.41800000000E+01 0. -1.
        -11    1    1    2    0    0 -0.78274681058E+01 -0.27700550242E+02 -0.58685223992E+02  0.65364709558E+02  0.00000000000E+00 0.  1.
         11    1    1    2    0    0  0.22983738384E+02  0.66600354650E+02 -0.10689736771E+03  0.12802697643E+03  0.00000000000E+00 0. -1.
</event>
<event>
 7    1  0.2719869E-009  0.1116601E+03  0.7561462E-02  0.1257526E+00
          2   -1    0    0  501    0  0.00000000000E+00  0.00000000000E+00  0.11534032608E+03  0.11534032608E+03  0.00000000000E+00 0. -1.
         -2   -1    0    0    0  501 -0.00000000000E+00 -0.00000000000E+00 -0.11407311186E+03  0.11407311186E+03  0.00000000000E+00 0.  1.
         25    2    1    2    0    0  0.21959258129E+02 -0.28118921045E+02 -0.21773857084E+00  0.13008087451E+03  0.12509238092E+03 0.  0.
          5    1    3    3  502    0 -0.43063898946E+02  0.16034323796E+02  0.17593950954E+02  0.49382369751E+02  0.41800000000E+01 0. -1.
         -5    1    3    3    0  502  0.65023157075E+02 -0.44153244842E+02 -0.17811689525E+02  0.80698504756E+02  0.41800000000E+01 0. -1.
        -11    1    1    2    0    0 -0.51030826852E+02  0.42152159648E+02 -0.51052957109E+01  0.66385343989E+02  0.00000000000E+00 0.  1.
         11    1    1    2    0    0  0.29071568724E+02 -0.14033238602E+02  0.65902484963E+01  0.32947219442E+02  0.00000000000E+00 0. -1.
</event>
<event>
 7    1  0.2719869E-009  0.1037261E+03  0.7561462E-02  0.1272650E+00
         -1   -1    0    0    0  501 -0.00000000000E+00  0.00000000000E+00  0.75863242948E+02  0.75863242948E+02  0.00000000000E+00 0.  1.
          1   -1    0    0  501    0  0.00000000000E+00 -0.00000000000E+00 -0.30171906499E+03  0.30171906499E+03  0.00000000000E+00 0. -1.
         25    2    1    2    0    0 -0.10186467329E+02  0.49731031574E+02 -0.23711895797E+03  0.27285532986E+03  0.12509073182E+03 0.  0.
          5    1    3    3  502    0  0.20963290337E+02 -0.23334218307E+02 -0.15626560549E+03  0.15943762776E+03  0.41800000000E+01 0. -1.
         -5    1    3    3    0  502 -0.31149757665E+02  0.73065249881E+02 -0.80853352472E+02  0.11341770210E+03  0.41800000000E+01 0. -1.
        -11    1    1    2    0    0  0.34909560341E+02  0.58880272058E+01  0.23699701167E+02  0.42603076215E+02  0.00000000000E+00 0.  1.
         11    1    1    2    0    0 -0.24723093012E+02 -0.55619058780E+02 -0.12436565241E+02  0.62123901863E+02  0.00000000000E+00 0. -1.
</event>
<event>
 7    1  0.2719869E-009  0.1456601E+03  0.7561462E-02  0.1205909E+00
         -1   -1    0    0    0  501 -0.00000000000E+00  0.00000000000E+00  0.25496288622E+02  0.25496288622E+02  0.00000000000E+00 0.  1.
          1   -1    0    0  501    0  0.00000000000E+00 -0.00000000000E+00 -0.11927306446E+04  0.11927306446E+04  0.00000000000E+00 0. -1.
         25    2    1    2    0    0  0.25115342097E+02  0.13938241653E+03 -0.59618737039E+03  0.62541607812E+03  0.12509057403E+03 0.  0.
          5    1    3    3  502    0 -0.56534291202E+01  0.67834892265E+02 -0.88276152429E+02  0.11155126784E+03  0.41800000000E+01 0.  1.
         -5    1    3    3    0  502  0.30768771218E+02  0.71547524262E+02 -0.50791121796E+03  0.51386481028E+03  0.41800000000E+01 0.  1.
        -11    1    1    2    0    0  0.65834795772E+01 -0.46967658078E+02 -0.87839214651E+02  0.99825000572E+02  0.00000000000E+00 0.  1.
         11    1    1    2    0    0 -0.31698821675E+02 -0.92414758449E+02 -0.48320777094E+03  0.49298585453E+03  0.00000000000E+00 0. -1.
</event>
<event>
 7    1  0.2719869E-009  0.1594620E+03  0.7561462E-02  0.1189305E+00
         -4   -1    0    0    0  501 -0.00000000000E+00  0.00000000000E+00  0.33737196263E+03  0.33737196263E+03  0.00000000000E+00 0.  1.
          4   -1    0    0  501    0  0.00000000000E+00 -0.00000000000E+00 -0.88656024574E+02  0.88656024574E+02  0.00000000000E+00 0. -1.
         25    2    1    2    0    0  0.12712361664E+03 -0.37880246322E+02  0.15584833053E+03  0.23985844957E+03  0.12509215297E+03 0.  0.
          5    1    3    3  502    0  0.14585374995E+03 -0.52066038163E+02  0.11650479989E+03  0.19384279585E+03  0.41800000000E+01 0.  1.
         -5    1    3    3    0  502 -0.18730133317E+02  0.14185791841E+02  0.39343530638E+02  0.46015653720E+02  0.41800000000E+01 0.  1.
        -11    1    1    2    0    0 -0.16611340772E+02  0.23372299657E+02  0.65347708019E+02  0.71361922458E+02  0.00000000000E+00 0.  1.
         11    1    1    2    0    0 -0.11051227586E+03  0.14507946665E+02  0.27519899508E+02  0.11480761517E+03  0.00000000000E+00 0. -1.
</event>
<event>
 7    1  0.2719869E-009  0.1187745E+03  0.7561462E-02  0.1245133E+00
         -2   -1    0    0    0  501 -0.00000000000E+00  0.00000000000E+00  0.23404165460E+02  0.23404165460E+02  0.00000000000E+00 0.  1.
          2   -1    0    0  501    0  0.00000000000E+00 -0.00000000000E+00 -0.63980399099E+03  0.63980399099E+03  0.00000000000E+00 0. -1.
         25    2    1    2    0    0  0.37103434982E+02 -0.36275957304E+02 -0.41259674058E+03  0.43425313257E+03  0.12508838015E+03 0.  0.
          5    1    3    3  502    0 -0.36497645132E+02 -0.47431591805E+02 -0.15981026108E+03  0.17070039821E+03  0.41800000000E+01 0.  1.
         -5    1    3    3    0  502  0.73601080114E+02  0.11155634501E+02 -0.25278647950E+03  0.26355273437E+03  0.41800000000E+01 0.  1.
        -11    1    1    2    0    0  0.26081726839E+02 -0.62657705896E+01 -0.38240307959E+02  0.46710143532E+02  0.00000000000E+00 0.  1.
         11    1    1    2    0    0 -0.63185161821E+02  0.42541727894E+02 -0.16556277699E+03  0.18224488035E+03  0.00000000000E+00 0. -1.
</event>
<event>
 7    1  0.2719869E-009  0.1300598E+03  0.7561462E-02  0.1227367E+00
          4   -1    0    0  501    0  0.00000000000E+00  0.00000000000E+00  0.30358395189E+02  0.30358395189E+02  0.00000000000E+00 0.  1.
         -4   -1    0    0    0  501 -0.00000000000E+00 -0.00000000000E+00 -0.11048025823E+04  0.11048025823E+04  0.00000000000E+00 0. -1.
         25    2    1    2    0    0 -0.80821981983E+02  0.76510792039E+02 -0.85660399678E+03  0.87281145825E+03  0.12507333961E+03 0.  0.
          5    1    3    3  502    0 -0.72619182277E+02  0.39081003413E+02 -0.21910328870E+03  0.23414652246E+03  0.41800000000E+01 0. -1.
         -5    1    3    3    0  502 -0.82027997061E+01  0.37429788626E+02 -0.63750070809E+03  0.63866493579E+03  0.41800000000E+01 0. -1.
        -11    1    1    2    0    0  0.91651355191E+02 -0.85185177937E+02 -0.16135983460E+03  0.20418981775E+03  0.00000000000E+00 0.  1.
         11    1    1    2    0    0 -0.10829373208E+02  0.86743858981E+01 -0.56480355770E+02  0.58159701535E+02  0.00000000000E+00 0. -1.
</event>
<event>
 7    1  0.2719869E-009  0.2462953E+03  0.7561462E-02  0.1115669E+00
          2   -1    0    0  501    0  0.00000000000E+00  0.00000000000E+00  0.32416448041E+03  0.32416448041E+03  0.00000000000E+00 0. -1.
         -2   -1    0    0    0  501 -0.00000000000E+00 -0.00000000000E+00 -0.22140396405E+03  0.22140396405E+03  0.00000000000E+00 0.  1.
         25    2    1    2    0    0  0.11606140150E+03 -0.18812385956E+03 -0.50158058068E+02  0.25889077842E+03  0.12509104249E+03 0.  0.
          5    1    3    3  502    0 -0.54443289082E+01 -0.10396526117E+03 -0.51100827678E+01  0.10431683274E+03  0.41800000000E+01 0. -1.
         -5    1    3    3    0  502  0.12150573041E+03 -0.84158598387E+02 -0.45047975300E+02  0.15457394568E+03  0.41800000000E+01 0. -1.
        -11    1    1    2    0    0 -0.10439916977E+03  0.79335739991E+02  0.65171005983E+02  0.14642611212E+03  0.00000000000E+00 0. -1.
         11    1    1    2    0    0 -0.11662231729E+02  0.10878811957E+03  0.87747568450E+02  0.14025155392E+03  0.00000000000E+00 0.  1.
</event>
<event>
 7    1  0.2719869E-009  0.1256517E+03  0.7561462E-02  0.1234054E+00
          2   -1    0    0  501    0  0.00000000000E+00  0.00000000000E+00  0.51376156038E+03  0.51376156038E+03  0.00000000000E+00 0.  1.
         -2   -1    0    0    0  501 -0.00000000000E+00 -0.00000000000E+00 -0.36450114953E+02  0.36450114953E+02  0.00000000000E+00 0. -1.
         25    2    1    2    0    0 -0.56669145445E+02 -0.31416322173E+02  0.34703546646E+03  0.37454028770E+03  0.12509370403E+03 0.  0.
          5    1    3    3  502    0  0.31146210265E+02  0.16135351177E+02  0.14354456223E+03  0.14782743222E+03  0.41800000000E+01 0. -1.
         -5    1    3    3    0  502 -0.87815355709E+02 -0.47551673350E+02  0.20349090423E+03  0.22671285548E+03  0.41800000000E+01 0. -1.
        -11    1    1    2    0    0 -0.14638903037E+02 -0.22352068648E+02  0.18039170320E+02  0.32238550228E+02  0.00000000000E+00 0.  1.
         11    1    1    2    0    0  0.71308048482E+02  0.53768390821E+02  0.11223680865E+03  0.14343283740E+03  0.00000000000E+00 0. -1.
</event>
<event>
 7    1  0.2719869E-009  0.1091943E+03  0.7561462E-02  0.1262069E+00
          3   -1    0    0  501    0  0.00000000000E+00  0.00000000000E+00  0.16530816364E+02  0.16530816364E+02  0.00000000000E+00 0. -1.
         -3   -1    0    0    0  501 -0.00000000000E+00 -0.00000000000E+00 -0.75145546405E+03  0.75145546405E+03  0.00000000000E+00 0.  1.
         25    2    1    2    0    0  0.83256329533E+01  0.25456084698E+02 -0.40447700813E+03  0.42422493154E+03  0.12509122278E+03 0.  0.
          5    1    3    3  502    0  0.21279913395E+02  0.74151172347E+02 -0.23591889971E+03  0.24824671341E+03  0.41800000000E+01 0. -1.
         -5    1    3    3    0  502 -0.12954280442E+02 -0.48695087649E+02 -0.16855810842E+03  0.17597821813E+03  0.41800000000E+01 0. -1.
        -11    1    1    2    0    0 -0.46747749106E+02 -0.22918781814E+02 -0.13789289055E+03  0.14739427354E+03  0.00000000000E+00 0. -1.
         11    1    1    2    0    0  0.38422116153E+02 -0.25373028844E+01 -0.19255474900E+03  0.19636707534E+03  0.00000000000E+00 0.  1.
</event>
<event>
 7    1  0.2719869E-009  0.8287992E+02  0.7561462E-02  0.1321072E+00
         -1   -1    0    0    0  501 -0.00000000000E+00  0.00000000000E+00  0.38809959721E+02  0.38809959721E+02  0.00000000000E+00 0.  1.
          1   -1    0    0  501    0  0.00000000000E+00 -0.00000000000E+00 -0.36512183124E+03  0.36512183124E+03  0.00000000000E+00 0. -1.
         25    2    1    2    0    0 -0.34142379019E+02  0.16092938442E+02 -0.24046803086E+03  0.27367345774E+03  0.12509037890E+03 0.  0.
          5    1    3    3  502    0 -0.29140578965E+02 -0.31141125181E+02 -0.18559111825E+02  0.46699636526E+02  0.41800000000E+01 0. -1.
         -5    1    3    3    0  502 -0.50018000538E+01  0.47234063623E+02 -0.22190891904E+03  0.22697382122E+03  0.41800000000E+01 0. -1.
        -11    1    1    2    0    0  0.88945592981E+01  0.25256255802E+02  0.50594384803E+01  0.27250496509E+02  0.00000000000E+00 0. -1.
         11    1    1    2    0    0  0.25247819720E+02 -0.41349194244E+02 -0.90903279135E+02  0.10300783671E+03  0.00000000000E+00 0.  1.
</event>
<event>
 7    1  0.2719869E-009  0.1013980E+03  0.7561462E-02  0.1277383E+00
          1   -1    0    0  501    0  0.00000000000E+00  0.00000000000E+00  0.73597239635E+02  0.73597239635E+02  0.00000000000E+00 0. -1.
         -1   -1    0    0    0  501 -0.00000000000E+00 -0.00000000000E+00 -0.27676370144E+03  0.27676370144E+03  0.00000000000E+00 0.  1.
         25    2    1    2    0    0 -0.80956642307E+01  0.71987856710E+02 -0.19124520724E+03  0.23972722321E+03  0.12508645397E+03 0.  0.
          5    1    3    3  502    0 -0.49707222690E+02  0.73120497510E+02 -0.17249795873E+03  0.19388252451E+03  0.41800000000E+01 0.  1.
         -5    1    3    3    0  502  0.41611558460E+02 -0.11326407994E+01 -0.18747248501E+02  0.45844698701E+02  0.41800000000E+01 0.  1.
        -11    1    1    2    0    0  0.44314685823E+01 -0.42340216366E+02 -0.47758663702E+02  0.63978291586E+02  0.00000000000E+00 0.  1.
         11    1    1    2    0    0  0.36641956483E+01 -0.29647640344E+02  0.35837409133E+02  0.46655426277E+02  0.00000000000E+00 0. -1.
</event>
<event>
 7    1  0.2719869E-009  0.1133669E+03  0.7561462E-02  0.1254459E+00
         -1   -1    0    0    0  501 -0.00000000000E+00  0.00000000000E+00  0.13989998071E+03  0.13989998071E+03  0.00000000000E+00 0.  1.
          1   -1    0    0  501    0  0.00000000000E+00 -0.00000000000E+00 -0.16363454926E+03  0.16363454926E+03  0.00000000000E+00 0. -1.
         25    2    1    2    0    0  0.75950728312E+02  0.26019408451E+01 -0.88438019677E+02  0.17099706311E+03  0.12507369444E+03 0.  0.
          5    1    3    3  502    0 -0.24529664269E+02  0.31838749020E+02 -0.15084528163E+02  0.43132653039E+02  0.41800000000E+01 0.  1.
         -5    1    3    3    0  502  0.10048039258E+03 -0.29236808175E+02 -0.73353491514E+02  0.12786441007E+03  0.41800000000E+01 0.  1.
        -11    1    1    2    0    0 -0.40645988872E+02  0.13447004742E+02  0.80090406553E+02  0.90815150552E+02  0.00000000000E+00 0.  1.
         11    1    1    2    0    0 -0.35304739440E+02 -0.16048945587E+02 -0.15386955423E+02  0.41722316314E+02  0.00000000000E+00 0. -1.
</event>
<event>
 7    1  0.2719869E-009  0.2008697E+03  0.7561462E-02  0.1149007E+00
          1   -1    0    0  501    0  0.00000000000E+00  0.00000000000E+00  0.53548586601E+02  0.53548586601E+02  0.00000000000E+00 0. -1.
         -1   -1    0    0    0  501 -0.00000000000E+00 -0.00000000000E+00 -0.14001938057E+04  0.14001938057E+04  0.00000000000E+00 0.  1.
         25    2    1    2    0    0 -0.50332139347E+02  0.18378336826E+03 -0.25555304645E+03  0.34243552466E+03  0.12508028743E+03 0.  0.
          5    1    3    3  502    0 -0.20719851878E+01  0.98451821430E+02 -0.41458860387E+02  0.10692690854E+03  0.41800000000E+01 0. -1.
         -5    1    3    3    0  502 -0.48260154159E+02  0.85331546828E+02 -0.21409418606E+03  0.23550861612E+03  0.41800000000E+01 0. -1.
        -11    1    1    2    0    0  0.70510673221E+02 -0.13619160064E+03 -0.91576996316E+03  0.92852276900E+03  0.00000000000E+00 0.  1.
         11    1    1    2    0    0 -0.20178533874E+02 -0.47591767616E+02 -0.17532220951E+03  0.18278409866E+03  0.00000000000E+00 0. -1.
</event>
<event>
 7    1  0.2719869E-009  0.1799713E+03  0.7561462E-02  0.1167831E+00
         -1   -1    0    0    0  501 -0.00000000000E+00  0.00000000000E+00  0.23935905378E+03  0.23935905378E+03  0.00000000000E+00 0.  1.
          1   -1    0    0  501    0  0.00000000000E+00 -0.00000000000E+00 -0.14704879454E+03  0.14704879454E+03  0.00000000000E+00 0. -1.
         25    2    1    2    0    0  0.67643041295E+02 -0.12670092829E+03  0.10210656779E+03  0.21610955127E+03  0.12509548633E+03 0.  0.
          5    1    3    3  502    0  0.18588640070E+02  0.24709110465E+02  0.18618011400E+02  0.36334287225E+02  0.41800000000E+01 0.  1.
         -5    1    3    3    0  502  0.49054401225E+02 -0.15141003875E+03  0.83488556394E+02  0.17977526405E+03  0.41800000000E+01 0.  1.
        -11    1    1    2    0    0  0.22045501097E+02  0.34161686516E+02  0.31506548255E+01  0.40779303207E+02  0.00000000000E+00 0.  1.
         11    1    1    2    0    0 -0.89688542392E+02  0.92539241773E+02 -0.12946963381E+02  0.12951899384E+03  0.00000000000E+00 0. -1.
</event>
<event>
 7    1  0.2719869E-009  0.9313458E+02  0.7561462E-02  0.1295434E+00
          1   -1    0    0  501    0  0.00000000000E+00  0.00000000000E+00  0.77599185859E+03  0.77599185859E+03  0.00000000000E+00 0. -1.
         -1   -1    0    0    0  501 -0.00000000000E+00 -0.00000000000E+00 -0.19888668264E+02  0.19888668264E+02  0.00000000000E+00 0.  1.
         25    2    1    2    0    0  0.35819242309E+01 -0.70017094281E+01  0.62104215401E+03  0.63356388116E+03  0.12509188759E+03 0.  0.
          5    1    3    3  502    0 -0.14668506387E+02 -0.58152386012E+02  0.19509184005E+03  0.20414495716E+03  0.41800000000E+01 0.  1.
         -5    1    3    3    0  502  0.18250430618E+02  0.51150676584E+02  0.42595031396E+03  0.42941892401E+03  0.41800000000E+01 0.  1.
        -11    1    1    2    0    0  0.26827305801E+02  0.24724798333E+02  0.11739817900E+03  0.12293637550E+03  0.00000000000E+00 0. -1.
         11    1    1    2    0    0 -0.30409230032E+02 -0.17723088905E+02  0.17662857315E+02  0.39380270187E+02  0.00000000000E+00 0.  1.
</event>
<event>
 7    1  0.2719869E-009  0.6629014E+02  0.7561462E-02  0.1373183E+00
         -1   -1    0    0    0  501 -0.00000000000E+00  0.00000000000E+00  0.37171089854E+03  0.37171089854E+03  0.00000000000E+00 0.  1.
          1   -1    0    0  501    0  0.00000000000E+00 -0.00000000000E+00 -0.35704447835E+02  0.35704447835E+02  0.00000000000E+00 0. -1.
         25    2    1    2    0    0  0.28069530335E+02  0.23849365133E+02  0.16769609969E+03  0.21242760698E+03  0.12508723198E+03 0.  0.
          5    1    3    3  502    0  0.31397985417E+02  0.24580623500E+02 -0.43210120274E+01  0.40325972832E+02  0.41800000000E+01 0. -1.
         -5    1    3    3    0  502 -0.33284550817E+01 -0.73125836715E+00  0.17201711172E+03  0.17210163415E+03  0.41800000000E+01 0. -1.
        -11    1    1    2    0    0 -0.55854444765E+02 -0.13674501733E+02  0.61677675225E+02  0.84325836010E+02  0.00000000000E+00 0. -1.
         11    1    1    2    0    0  0.27784914430E+02 -0.10174863400E+02  0.10663267579E+03  0.11066190338E+03  0.00000000000E+00 0.  1.
</event>
<event>
 7    1  0.2719869E-009  0.1272476E+03  0.7561462E-02  0.1231598E+00
         -1   -1    0    0    0  501 -0.00000000000E+00  0.00000000000E+00  0.71326859407E+03  0.71326859407E+03  0.00000000000E+00 0.  1.
          1   -1    0    0  501    0  0.00000000000E+00 -0.00000000000E+00 -0.53510921252E+02  0.53510921252E+02  0.00000000000E+00 0. -1.
         25    2    1    2    0    0  0.46235460897E+01  0.72994955660E+02  0.92057924051E+02  0.17167349380E+03  0.12508991311E+03 0.  0.
          5    1    3    3  502    0 -0.25292160527E+01  0.62183539415E+02 -0.14672358585E+02  0.64077609307E+02  0.41800000000E+01 0.  1.
         -5    1    3    3    0  502  0.71527621424E+01  0.10811416245E+02  0.10673028264E+03  0.10759588449E+03  0.41800000000E+01 0.  1.
        -11    1    1    2    0    0  0.75507693305E+02 -0.61832580862E+02  0.30627784482E+03  0.32145108187E+03  0.00000000000E+00 0. -1.
         11    1    1    2    0    0 -0.80131239395E+02 -0.11162374798E+02  0.26142190394E+03  0.27365493965E+03  0.00000000000E+00 0.  1.
</event>
<event>
 7    1  0.2719869E-009  0.1351641E+03  0.7561462E-02  0.1219988E+00
         -2   -1    0    0    0  501 -0.00000000000E+00  0.00000000000E+00  0.20039186389E+02  0.20039186389E+02  0.00000000000E+00 0.  1.
          2   -1    0    0  501    0  0.00000000000E+00 -0.00000000000E+00 -0.10861172261E+04  0.10861172261E+04  0.00000000000E+00 0. -1.
         25    2    1    2    0    0 -0.37267819620E+02  0.81721362283E+02 -0.64606406546E+03  0.66416576064E+03  0.12510039767E+03 0.  0.
          5    1    3    3  502    0 -0.83407068009E+02  0.58565803435E+02 -0.44462935218E+03  0.45617915948E+03  0.41800000000E+01 0. -1.
         -5    1    3    3    0  502  0.46139248389E+02  0.23155558848E+02 -0.20143471328E+03  0.20798660116E+03  0.41800000000E+01 0. -1.
        -11    1    1    2    0    0 -0.17299005393E+02 -0.51131520496E+02 -0.31628914481E+03  0.32086213722E+03  0.00000000000E+00 0.  1.
         11    1    1    2    0    0  0.54566825012E+02 -0.30589841788E+02 -0.10372482941E+03  0.12112851460E+03  0.00000000000E+00 0. -1.
</event>
<event>
 7    1  0.2719869E-009  0.1184174E+03  0.7561462E-02  0.1245731E+00
         -1   -1    0    0    0  501 -0.00000000000E+00  0.00000000000E+00  0.89330195969E+01  0.89330195969E+01  0.00000000000E+00 0.  1.
          1   -1    0    0  501    0  0.00000000000E+00 -0.00000000000E+00 -0.17442405379E+04  0.17442405379E+04  0.00000000000E+00 0. -1.
         25    2    1    2    0    0  0.32240864471E+02 -0.35796568262E+02 -0.12112533435E+04  0.12186481741E+04  0.12509133635E+03 0.  0.
          5    1    3    3  502    0  0.79026541246E+02 -0.32623690111E+02 -0.69462844315E+03  0.69988259430E+03  0.41800000000E+01 0.  1.
         -5    1    3    3    0  502 -0.46785676775E+02 -0.31728781506E+01 -0.51662490034E+03  0.51876557977E+03  0.41800000000E+01 0.  1.
        -11    1    1    2    0    0  0.22927865244E+02  0.42792164156E+02 -0.28352359339E+03  0.28764993365E+03  0.00000000000E+00 0.  1.
         11    1    1    2    0    0 -0.55168729715E+02 -0.69955958941E+01 -0.24053058141E+03  0.24687544976E+03  0.00000000000E+00 0. -1.
</event>
<event>
 7    1  0.2719869E-009  0.1136588E+03  0.7561462E-02  0.1253940E+00
          2   -1    0    0  501    0  0.00000000000E+00  0.00000000000E+00  0.95863710629E+02  0.95863710629E+02  0.00000000000E+00 0. -1.
         -2   -1    0    0    0  501 -0.00000000000E+00 -0.00000000000E+00 -0.23320033134E+03  0.23320033134E+03  0.00000000000E+00 0.  1.
         25    2    1    2    0    0  0.44008909815E+02  0.75825220888E+02  0.85474993000E+01  0.15299366053E+03  0.12509097551E+03 0.  0.
          5    1    3    3  502    0 -0.18422874718E+02 -0.11722582163E+02 -0.31171561271E+02  0.38287855484E+02  0.41800000000E+01 0. -1.
         -5    1    3    3    0  502  0.62431784533E+02  0.87547803051E+02  0.39719060571E+02  0.11470580505E+03  0.41800000000E+01 0. -1.
        -11    1    1    2    0    0 -0.52551827915E+02 -0.62642106858E+02 -0.11150086613E+03  0.13826847549E+03  0.00000000000E+00 0. -1.
         11    1    1    2    0    0  0.85429180996E+01 -0.13183114031E+02 -0.34383253885E+02  0.37801905943E+02  0.00000000000E+00 0.  1.
</event>
<event>
 7    1  0.3707013E-009  0.1022767E+03  0.7561462E-02  0.1275580E+00
         -1   -1    0    0    0  501 -0.00000000000E+00  0.00000000000E+00  0.83845482892E+02  0.83845482892E+02  0.00000000000E+00 0.  1.
          1   -1    0    0  501    0  0.00000000000E+00 -0.00000000000E+00 -0.18652715992E+03  0.18652715992E+03  0.00000000000E+00 0. -1.
         25    2    1    2    0    0 -0.30853723155E+02  0.44643800575E+02 -0.24685581019E+02  0.13857043749E+03  0.12508943630E+03 0.  0.
          5    1    3    3  502    0 -0.78282331059E+02  0.35652566265E+02 -0.49844531650E+01  0.86264395962E+02  0.41800000000E+01 0. -1.
         -5    1    3    3    0  502  0.47428607904E+02  0.89912343100E+01 -0.19701127854E+02  0.52306041533E+02  0.41800000000E+01 0. -1.
        -11    1    1    2    0    0  0.18157539399E+02 -0.52156436891E+02 -0.29344720812E+01  0.55304622525E+02  0.00000000000E+00 0.  1.
         11    1    1    2    0    0  0.12696183757E+02  0.75126363158E+01 -0.75061623932E+02  0.76497582796E+02  0.00000000000E+00 0. -1.
</event>
<event>
 7    1  0.2719869E-009  0.1286142E+03  0.7561462E-02  0.1229527E+00
          1   -1    0    0  501    0  0.00000000000E+00  0.00000000000E+00  0.94798765642E+03  0.94798765642E+03  0.00000000000E+00 0. -1.
         -1   -1    0    0    0  501 -0.00000000000E+00 -0.00000000000E+00 -0.20564495933E+02  0.20564495933E+02  0.00000000000E+00 0.  1.
         25    2    1    2    0    0  0.50992068230E+02  0.62797296015E+02  0.63232803862E+03  0.64963863506E+03  0.12509163172E+03 0.  0.
          5    1    3    3  502    0 -0.61996538051E+01  0.77279847872E+02  0.22455118161E+03  0.23759485718E+03  0.41800000000E+01 0. -1.
         -5    1    3    3    0  502  0.57191722035E+02 -0.14482551857E+02  0.40777685701E+03  0.41204377788E+03  0.41800000000E+01 0. -1.
        -11    1    1    2    0    0 -0.10380372181E+02  0.23157063486E+02  0.51148569635E+02  0.57097967491E+02  0.00000000000E+00 0.  1.
         11    1    1    2    0    0 -0.40611696049E+02 -0.85954359501E+02  0.24394655223E+03  0.26181554980E+03  0.00000000000E+00 0. -1.
</event>
<event>
 7    1  0.2719869E-009  0.1563097E+03  0.7561462E-02  0.1192927E+00
         -2   -1    0    0    0  501 -0.00000000000E+00  0.00000000000E+00  0.77963245520E+02  0.77963245520E+02  0.00000000000E+00 0. -1.
          2   -1    0    0  501    0  0.00000000000E+00 -0.00000000000E+00 -0.40456254758E+03  0.40456254758E+03  0.00000000000E+00 0.  1.
         25    2    1    2    0    0  0.21892118572E+01 -0.13472567700E+03 -0.22663137294E+03  0.29183027443E+03  0.12508928485E+03 0.  0.
          5    1    3    3  502    0 -0.49758757419E+02 -0.56928482982E+02 -0.15965459062E+03  0.17670270745E+03  0.41800000000E+01 0.  1.
         -5    1    3    3    0  502  0.51947969276E+02 -0.77797194020E+02 -0.66976782316E+02  0.11512756698E+03  0.41800000000E+01 0.  1.
        -11    1    1    2    0    0 -0.25241895049E+02  0.79478277847E+02 -0.10080378667E+03  0.13082566003E+03  0.00000000000E+00 0.  1.
         11    1    1    2    0    0  0.23052683192E+02  0.55247399155E+02  0.83585754559E+00  0.59869858640E+02  0.00000000000E+00 0. -1.
</event>
<event>
 7    1  0.2719869E-009  0.1113975E+03  0.7561462E-02  0.1258004E+00
         -3   -1    0    0    0  501 -0.00000000000E+00  0.00000000000E+00  0.44003210507E+03  0.44003210507E+03  0.00000000000E+00 0.  1.
          3   -1    0    0  501    0  0.00000000000E+00 -0.00000000000E+00 -0.32492075972E+02  0.32492075972E+02  0.00000000000E+00 0. -1.
         25    2    1    2    0    0  0.36463183294E+02  0.31031062999E+02  0.19141191644E+03  0.23361992621E+03  0.12508899856E+03 0.  0.
          5    1    3    3  502    0 -0.22871513585E+01 -0.39833570434E+02  0.11712349775E+03  0.12380359655E+03  0.41800000000E+01 0. -1.
         -5    1    3    3    0  502  0.38750334653E+02  0.70864633433E+02  0.74288418688E+02  0.10981632965E+03  0.41800000000E+01 0. -1.
        -11    1    1    2    0    0  0.12897089216E+00 -0.56956344796E+02  0.12152051820E+03  0.13420610340E+03  0.00000000000E+00 0.  1.
         11    1    1    2    0    0 -0.36592154186E+02  0.25925281797E+02  0.94607594460E+02  0.10469815143E+03  0.00000000000E+00 0. -1.
</event>
<event>
 7    1  0.2719869E-009  0.1028598E+03  0.7561462E-02  0.1274395E+00
          4   -1    0    0  501    0  0.00000000000E+00  0.00000000000E+00  0.43091077559E+03  0.43091077559E+03  0.00000000000E+00 0. -1.
         -4   -1    0    0    0  501 -0.00000000000E+00 -0.00000000000E+00 -0.37736700036E+02  0.37736700036E+02  0.00000000000E+00 0.  1.
         25    2    1    2    0    0  0.36895998853E+02 -0.51688297621E+02  0.26668579158E+03  0.30133061286E+03  0.12508330013E+03 0.  0.
          5    1    3    3  502    0  0.63597245694E+02 -0.41187212073E+02  0.26096839914E+03  0.27177743440E+03  0.41800000000E+01 0.  1.
         -5    1    3    3    0  502 -0.26701246841E+02 -0.10501085548E+02  0.57173924368E+01  0.29553178456E+02  0.41800000000E+01 0.  1.
        -11    1    1    2    0    0 -0.54933004951E+01  0.66071985785E+02  0.11137475627E+03  0.12961489109E+03  0.00000000000E+00 0. -1.
         11    1    1    2    0    0 -0.31402698358E+02 -0.14383688164E+02  0.15113527702E+02  0.37701971685E+02  0.00000000000E+00 0.  1.
</event>
<event>
 7    1  0.2719869E-009  0.1267626E+03  0.7561462E-02  0.1232340E+00
          1   -1    0    0  501    0  0.00000000000E+00  0.00000000000E+00  0.63370162307E+02  0.63370162307E+02  0.00000000000E+00 0. -1.
         -1   -1    0    0    0  501 -0.00000000000E+00 -0.00000000000E+00 -0.42657268803E+03  0.42657268803E+03  0.00000000000E+00 0.  1.
         25    2    1    2    0    0  0.11381747395E+03  0.90633756332E+01 -0.26323831608E+03  0.31301443883E+03  0.12508823170E+03 0.  0.
          5    1    3    3  502    0  0.90690534274E+02  0.16971411839E+02 -0.64302663524E+02  0.11253935651E+03  0.41800000000E+01 0.  1.
         -5    1    3    3    0  502  0.23126939672E+02 -0.79080362061E+01 -0.19893565255E+03  0.20047508232E+03  0.41800000000E+01 0.  1.
        -11    1    1    2    0    0 -0.42170791278E+02 -0.40188650380E+02 -0.74907232578E+02  0.94892553706E+02  0.00000000000E+00 0.  1.
         11    1    1    2    0    0 -0.71646682668E+02  0.31125274747E+02 -0.25056977069E+02  0.82035857802E+02  0.00000000000E+00 0. -1.
</event>
<event>
 7    1  0.2719869E-009  0.1385200E+03  0.7561462E-02  0.1215334E+00
          1   -1    0    0  501    0  0.00000000000E+00  0.00000000000E+00  0.67633641451E+03  0.67633641451E+03  0.00000000000E+00 0. -1.
         -1   -1    0    0    0  501 -0.00000000000E+00 -0.00000000000E+00 -0.35722568565E+02  0.35722568565E+02  0.00000000000E+00 0.  1.
         25    2    1    2    0    0 -0.89549660072E+02  0.64707951699E+02  0.38763679640E+03  0.42203806321E+03  0.12509028837E+03 0.  0.
          5    1    3    3  502    0 -0.72620426950E+02  0.47600808071E+01  0.32692477974E+03  0.33495323373E+03  0.41800000000E+01 0. -1.
         -5    1    3    3    0  502 -0.16929233122E+02  0.59947870892E+02  0.60712016657E+02  0.87084829478E+02  0.41800000000E+01 0. -1.
        -11    1    1    2    0    0  0.76772200447E+02 -0.10455270494E+01  0.13122489551E+03  0.15203630188E+03  0.00000000000E+00 0.  1.
         11    1    1    2    0    0  0.12777459625E+02 -0.63662424650E+02  0.12175215404E+03  0.13798461798E+03  0.00000000000E+00 0. -1.
</event>
<event>
 7    1  0.2719869E-009  0.1152545E+03  0.7561462E-02  0.1251137E+00
          2   -1    0    0  501    0  0.00000000000E+00  0.00000000000E+00  0.19546523635E+03  0.19546523635E+03  0.00000000000E+00 0.  1.
         -2   -1    0    0    0  501 -0.00000000000E+00 -0.00000000000E+00 -0.89428387650E+02  0.89428387650E+02  0.00000000000E+00 0. -1.
         25    2    1    2    0    0 -0.22008248226E+02 -0.70243713179E+02  0.40222222045E+02  0.15061540336E+03  0.12509448570E+03 0.  0.
          5    1    3    3  502    0 -0.59234488328E+02 -0.83489145116E+02  0.14980318713E+02  0.10354247587E+03  0.41800000000E+01 0. -1.
         -5    1    3    3    0  502  0.37226240102E+02  0.13245431937E+02  0.25241903332E+02  0.47072927497E+02  0.41800000000E+01 0. -1.
        -11    1    1    2    0    0  0.76834069396E+01  0.73278519276E+02  0.73937965403E+01  0.74050282624E+02  0.00000000000E+00 0. -1.
         11    1    1    2    0    0  0.14324841286E+02 -0.30348060967E+01  0.58420830116E+02  0.60227938014E+02  0.00000000000E+00 0.  1.
</event>
<event>
 7    1  0.2719869E-009  0.1107117E+03  0.7561462E-02  0.1259258E+00
         -1   -1    0    0    0  501 -0.00000000000E+00  0.00000000000E+00  0.11150208124E+03  0.11150208124E+03  0.00000000000E+00 0.  1.
          1   -1    0    0  501    0  0.00000000000E+00 -0.00000000000E+00 -0.12525811796E+03  0.12525811796E+03  0.00000000000E+00 0. -1.
         25    2    1    2    0    0  0.10328964124E+02  0.39554606264E+02  0.11310723988E+02  0.13208623882E+03  0.12509031790E+03 0.  0.
          5    1    3    3  502    0  0.60383823986E+02  0.64721301727E+01  0.31631600273E+02  0.68601204100E+02  0.41800000000E+01 0. -1.
         -5    1    3    3    0  502 -0.50054859863E+02  0.33082476091E+02 -0.20320876285E+02  0.63485034718E+02  0.41800000000E+01 0. -1.
        -11    1    1    2    0    0 -0.46836742090E+02 -0.43197895079E+02 -0.23630010594E+02  0.67956721151E+02  0.00000000000E+00 0. -1.
         11    1    1    2    0    0  0.36507777967E+02  0.36432888153E+01 -0.14367501177E+01  0.36717239226E+02  0.00000000000E+00 0.  1.
</event>
<event>
 7    1  0.2719869E-009  0.8024144E+02  0.7561462E-02  0.1328368E+00
         -1   -1    0    0    0  501 -0.00000000000E+00  0.00000000000E+00  0.28350115446E+02  0.28350115446E+02  0.00000000000E+00 0.  1.
          1   -1    0    0  501    0  0.00000000000E+00 -0.00000000000E+00 -0.53860197486E+03  0.53860197486E+03  0.00000000000E+00 0. -1.
         25    2    1    2    0    0  0.94431012557E+01 -0.18395609768E+02 -0.15745198453E+03  0.20215394714E+03  0.12509004873E+03 0.  0.
          5    1    3    3  502    0  0.52716538282E+01  0.26498060681E+02 -0.15436632142E+03  0.15676852727E+03  0.41800000000E+01 0. -1.
         -5    1    3    3    0  502  0.41714474275E+01 -0.44893670449E+02 -0.30856631095E+01  0.45385419871E+02  0.41800000000E+01 0. -1.
        -11    1    1    2    0    0  0.19783006997E+02 -0.27243559277E+02 -0.82262091625E+02  0.88885491541E+02  0.00000000000E+00 0.  1.
         11    1    1    2    0    0 -0.29226108253E+02  0.45639169045E+02 -0.27053778326E+03  0.27591265163E+03  0.00000000000E+00 0. -1.
</event>
<event>
 7    1  0.2719869E-009  0.1376275E+03  0.7561462E-02  0.1216557E+00
          1   -1    0    0  501    0  0.00000000000E+00  0.00000000000E+00  0.31909731467E+03  0.31909731467E+03  0.00000000000E+00 0. -1.
         -1   -1    0    0    0  501 -0.00000000000E+00 -0.00000000000E+00 -0.67545499988E+02  0.67545499988E+02  0.00000000000E+00 0.  1.
         25    2    1    2    0    0 -0.79969085558E+02 -0.56652833859E+02  0.15257373012E+03  0.22029650949E+03  0.12508881142E+03 0.  0.
          5    1    3    3  502    0  0.18123141839E+02 -0.53263123973E+02  0.81162192151E+02  0.98844233420E+02  0.41800000000E+01 0.  1.
         -5    1    3    3    0  502 -0.98092227397E+02 -0.33897098852E+01  0.71411537968E+02  0.12145227607E+03  0.41800000000E+01 0.  1.
        -11    1    1    2    0    0  0.22278119898E+02  0.58788078890E+02  0.15328616821E+02  0.64709499607E+02  0.00000000000E+00 0.  1.
         11    1    1    2    0    0  0.57690965660E+02 -0.21352450315E+01  0.83649467744E+02  0.10163680556E+03  0.00000000000E+00 0. -1.
</event>
<event>
 7    1  0.3030653E-009  0.1096814E+03  0.7561462E-02  0.1261161E+00
          2   -1    0    0  501    0  0.00000000000E+00  0.00000000000E+00  0.41757623083E+02  0.41757623083E+02  0.00000000000E+00 0.  1.
         -2   -1    0    0    0  501 -0.00000000000E+00 -0.00000000000E+00 -0.39179823816E+03  0.39179823816E+03  0.00000000000E+00 0. -1.
         25    2    1    2    0    0 -0.61797447213E+02  0.24085086139E+02 -0.21263363122E+03  0.25545883653E+03  0.12508852938E+03 0.  0.
          5    1    3    3  502    0  0.34602535538E+02 -0.97027492408E+01 -0.34053616236E+02  0.49685007671E+02  0.41800000000E+01 0. -1.
         -5    1    3    3    0  502 -0.96399982751E+02  0.33787835380E+02 -0.17858001498E+03  0.20577382886E+03  0.41800000000E+01 0. -1.
        -11    1    1    2    0    0  0.43308061475E+02  0.78816159200E+01 -0.95895520357E+01  0.45051832000E+02  0.00000000000E+00 0.  1.
         11    1    1    2    0    0  0.18489385738E+02 -0.31966702059E+02 -0.12781743183E+03  0.13304519272E+03  0.00000000000E+00 0. -1.
</event>
<event>
 7    1  0.2719869E-009  0.9581171E+02  0.7561462E-02  0.1289358E+00
          1   -1    0    0  501    0  0.00000000000E+00  0.00000000000E+00  0.18718461293E+04  0.18718461293E+04  0.00000000000E+00 0. -1.
         -1   -1    0    0    0  501 -0.00000000000E+00 -0.00000000000E+00 -0.15386938500E+02  0.15386938500E+02  0.00000000000E+00 0.  1.
         25    2    1    2    0    0  0.23166788413E+02 -0.64927959998E+02  0.16069598523E+04  0.16132946616E+04  0.12508940138E+03 0.  0.
          5    1    3    3  502    0  0.36665008225E+02 -0.26034192205E+02  0.14578468461E+04  0.14585461944E+04  0.41800000000E+01 0. -1.
         -5    1    3    3    0  502 -0.13498219812E+02 -0.38893767793E+02  0.14911300613E+03  0.15474846722E+03  0.41800000000E+01 0. -1.
        -11    1    1    2    0    0 -0.82381339766E+01  0.81993833062E+02  0.22898375820E+03  0.24336067273E+03  0.00000000000E+00 0.  1.
         11    1    1    2    0    0 -0.14928654436E+02 -0.17065873064E+02  0.20515580335E+02  0.30577733454E+02  0.00000000000E+00 0. -1.
</event>
<event>
 7    1  0.2719869E-009  0.1677842E+03  0.7561462E-02  0.1180178E+00
          1   -1    0    0  501    0  0.00000000000E+00  0.00000000000E+00  0.18114751342E+03  0.18114751342E+03  0.00000000000E+00 0. -1.
         -1   -1    0    0    0  501 -0.00000000000E+00 -0.00000000000E+00 -0.18550601422E+03  0.18550601422E+03  0.00000000000E+00 0.  1.
         25    2    1    2    0    0  0.45848349545E+02  0.13990965722E+03 -0.14136466505E+02  0.19371302714E+03  0.12509242128E+03 0.  0.
          5    1    3    3  502    0  0.41349846865E+01  0.14129181734E+03  0.15635864214E+02  0.14227588832E+03  0.41800000000E+01 0.  1.
         -5    1    3    3    0  502  0.41713364859E+02 -0.13821601264E+01 -0.29772330719E+02  0.51437138829E+02  0.41800000000E+01 0.  1.
        -11    1    1    2    0    0 -0.46713055278E+02 -0.82606821926E+02 -0.34017675236E+02  0.10081269161E+03  0.00000000000E+00 0.  1.
         11    1    1    2    0    0  0.86470573276E+00 -0.57302835290E+02  0.43795640938E+02  0.72127808877E+02  0.00000000000E+00 0. -1.
</event>
<event>
 7    1  0.2719869E-009  0.2252157E+03  0.7561462E-02  0.1130053E+00
         -1   -1    0    0    0  501 -0.00000000000E+00  0.00000000000E+00  0.56453589073E+03  0.56453589073E+03  0.00000000000E+00 0.  1.
          1   -1    0    0  501    0  0.00000000000E+00 -0.00000000000E+00 -0.11207183778E+03  0.11207183778E+03  0.00000000000E+00 0. -1.
         25    2    1    2    0    0 -0.75153283628E+02  0.19951191859E+03  0.13085992941E+03  0.27969115302E+03  0.12509915369E+03 0.  0.
          5    1    3    3  502    0 -0.54938622267E+02  0.53059995479E+02  0.10443146021E+03  0.12944889964E+03  0.41800000000E+01 0.  1.
         -5    1    3    3    0  502 -0.20214661361E+02  0.14645192311E+03  0.26428469201E+02  0.15024225338E+03  0.41800000000E+01 0.  1.
        -11    1    1    2    0    0  0.29627023620E+02 -0.16818900629E+03  0.19770173088E+03  0.26124945313E+03  0.00000000000E+00 0.  1.
         11    1    1    2    0    0  0.45526260008E+02 -0.31322912304E+02  0.12390239265E+03  0.13566712236E+03  0.00000000000E+00 0. -1.
</event>
<event>
 7    1  0.2719869E-009  0.1111290E+03  0.7561462E-02  0.1258493E+00
          2   -1    0    0  501    0  0.00000000000E+00  0.00000000000E+00  0.34436529417E+03  0.34436529417E+03  0.00000000000E+00 0. -1.
         -2   -1    0    0    0  501 -0.00000000000E+00 -0.00000000000E+00 -0.50957391492E+02  0.50957391492E+02  0.00000000000E+00 0.  1.
         25    2    1    2    0    0  0.18752153912E+02  0.70723000300E+02  0.20458437883E+03  0.25071190864E+03  0.12509319336E+03 0.  0.
          5    1    3    3  502    0 -0.34618719836E+02  0.58762278696E+01  0.70964763822E+01  0.36066857281E+02  0.41800000000E+01 0.  1.
         -5    1    3    3    0  502  0.53370873748E+02  0.64846772431E+02  0.19748790245E+03  0.21464505136E+03  0.41800000000E+01 0.  1.
        -11    1    1    2    0    0 -0.31444017783E+02 -0.50209332217E+00  0.10167456375E+01  0.31464458103E+02  0.00000000000E+00 0.  1.
         11    1    1    2    0    0  0.12691863871E+02 -0.70220906978E+02  0.87806778207E+02  0.11314631892E+03  0.00000000000E+00 0. -1.
</event>
<event>
 7    1  0.2719869E-009  0.7049808E+02  0.7561462E-02  0.1358407E+00
          1   -1    0    0  501    0  0.00000000000E+00  0.00000000000E+00  0.46015094004E+02  0.46015094004E+02  0.00000000000E+00 0. -1.
         -1   -1    0    0    0  501 -0.00000000000E+00 -0.00000000000E+00 -0.26036755498E+03  0.26036755498E+03  0.00000000000E+00 0.  1.
         25    2    1    2    0    0 -0.55377442843E+01 -0.86168879513E+01 -0.16305038012E+03  0.20576098065E+03  0.12508891770E+03 0.  0.
          5    1    3    3  502    0  0.16839004353E+02  0.35165110628E+02 -0.14954422435E+03  0.15459975585E+03  0.41800000000E+01 0.  1.
         -5    1    3    3    0  502 -0.22376748637E+02 -0.43781998579E+02 -0.13506155769E+02  0.51161224798E+02  0.41800000000E+01 0.  1.
        -11    1    1    2    0    0  0.11711062959E+01 -0.21738322357E+02  0.15762889431E+02  0.26877403745E+02  0.00000000000E+00 0. -1.
         11    1    1    2    0    0  0.43666379884E+01  0.30355210308E+02 -0.67064970288E+02  0.73744264590E+02  0.00000000000E+00 0.  1.
</event>
<event>
 7    1  0.2719869E-009  0.1108955E+03  0.7561462E-02  0.1258921E+00
         -4   -1    0    0    0  501 -0.00000000000E+00  0.00000000000E+00  0.30782059886E+03  0.30782059886E+03  0.00000000000E+00 0.  1.
          4   -1    0    0  501    0  0.00000000000E+00 -0.00000000000E+00 -0.74005947457E+02  0.74005947457E+02  0.00000000000E+00 0. -1.
         25    2    1    2    0    0 -0.26909604708E+02 -0.23401928200E+02  0.24928200107E+03  0.28117639396E+03  0.12508745499E+03 0.  0.
          5    1    3    3  502    0  0.25850816590E+02  0.37455721272E+02  0.59963162327E+02  0.75393958714E+02  0.41800000000E+01 0.  1.
         -5    1    3    3    0  502 -0.52760421298E+02 -0.60857649471E+02  0.18931883874E+03  0.20578243525E+03  0.41800000000E+01 0.  1.
        -11    1    1    2    0    0  0.13977861576E+02 -0.33913174553E+02 -0.19892961833E+02  0.41727855840E+02  0.00000000000E+00 0.  1.
         11    1    1    2    0    0  0.12931743132E+02  0.57315102753E+02  0.44256121744E+01  0.58922296519E+02  0.00000000000E+00 0. -1.
</event>
<event>
 7    1  0.2719869E-009  0.9480510E+02  0.7561462E-02  0.1291616E+00
         -1   -1    0    0    0  501 -0.00000000000E+00  0.00000000000E+00  0.97349274044E+02  0.97349274044E+02  0.00000000000E+00 0.  1.
          1   -1    0    0  501    0  0.00000000000E+00 -0.00000000000E+00 -0.12264385810E+03  0.12264385810E+03  0.00000000000E+00 0. -1.
         25    2    1    2    0    0 -0.64795754753E+01 -0.15401019880E+02 -0.15469838125E+02  0.12714448651E+03  0.12508888139E+03 0.  0.
          5    1    3    3  502    0  0.36543667893E+02 -0.51269813849E+02 -0.28882890856E+02  0.69395441200E+02  0.41800000000E+01 0.  1.
         -5    1    3    3    0  502 -0.43023243368E+02  0.35868793969E+02  0.13413052731E+02  0.57749045311E+02  0.41800000000E+01 0.  1.
        -11    1    1    2    0    0 -0.26081754992E+02 -0.11112792126E+02 -0.34100019132E+02  0.44345951304E+02  0.00000000000E+00 0.  1.
         11    1    1    2    0    0  0.32561330467E+02  0.26513812006E+02  0.24275273197E+02  0.48502694334E+02  0.00000000000E+00 0. -1.
</event>
<event>
 7    1  0.2719869E-009  0.1132640E+03  0.7561462E-02  0.1254642E+00
         -2   -1    0    0    0  501 -0.00000000000E+00  0.00000000000E+00  0.13272683473E+03  0.13272683473E+03  0.00000000000E+00 0.  1.
          2   -1    0    0  501    0  0.00000000000E+00 -0.00000000000E+00 -0.13229933291E+03  0.13229933291E+03  0.00000000000E+00 0. -1.
         25    2    1    2    0    0  0.71680027718E+02  0.25510626393E+02 -0.11311807939E+02  0.14684734196E+03  0.12508943364E+03 0.  0.
          5    1    3    3  502    0 -0.21025424986E+02  0.44603246364E+02  0.80724216787E+01  0.50141344954E+02  0.41800000000E+01 0.  1.
         -5    1    3    3    0  502  0.92705452704E+02 -0.19092619971E+02 -0.19384229618E+02  0.96705997003E+02  0.41800000000E+01 0.  1.
        -11    1    1    2    0    0 -0.21421400870E+02 -0.23784668396E+02 -0.36463284199E+02  0.48519665708E+02  0.00000000000E+00 0. -1.
         11    1    1    2    0    0 -0.50258626848E+02 -0.17259579973E+01  0.48202593961E+02  0.69659159974E+02  0.00000000000E+00 0.  1.
</event>
<event>
 7    1  0.2719869E-009  0.2681741E+03  0.7561462E-02  0.1102329E+00
         -2   -1    0    0    0  501 -0.00000000000E+00  0.00000000000E+00  0.82825203682E+02  0.82825203682E+02  0.00000000000E+00 0.  1.
          2   -1    0    0  501    0  0.00000000000E+00 -0.00000000000E+00 -0.94380211968E+03  0.94380211968E+03  0.00000000000E+00 0. -1.
         25    2    1    2    0    0 -0.22473928073E+03  0.11649441838E+03 -0.53489875817E+03  0.60484955039E+03  0.12509038051E+03 0.  0.
          5    1    3    3  502    0 -0.19491465601E+03  0.13477693743E+03 -0.39560604863E+03  0.46117042848E+03  0.41800000000E+01 0.  1.
         -5    1    3    3    0  502 -0.29824624723E+02 -0.18282519044E+02 -0.13929270954E+03  0.14367912191E+03  0.41800000000E+01 0.  1.
        -11    1    1    2    0    0  0.22626919291E+03 -0.99730592929E+02 -0.28461248019E+03  0.37702546692E+03  0.00000000000E+00 0. -1.
         11    1    1    2    0    0 -0.15299121786E+01 -0.16763825455E+02 -0.41465677642E+02  0.44752306058E+02  0.00000000000E+00 0.  1.
</event>
<event>
 7    1  0.2719869E-009  0.9540376E+02  0.7561462E-02  0.1290269E+00
          2   -1    0    0  501    0  0.00000000000E+00  0.00000000000E+00  0.75113503029E+03  0.75113503029E+03  0.00000000000E+00 0. -1.
         -2   -1    0    0    0  501 -0.00000000000E+00 -0.00000000000E+00 -0.28497915141E+02  0.28497915141E+02  0.00000000000E+00 0.  1.
         25    2    1    2    0    0  0.25625543398E+02 -0.37444354247E+02  0.60813997495E+03  0.62252740041E+03  0.12508951590E+03 0.  0.
          5    1    3    3  502    0 -0.34799763239E+02 -0.47324055801E+02  0.16574890247E+03  0.17589986029E+03  0.41800000000E+01 0. -1.
         -5    1    3    3    0  502  0.60425306637E+02  0.98797015533E+01  0.44239107247E+03  0.44662754012E+03  0.41800000000E+01 0. -1.
        -11    1    1    2    0    0 -0.42111158247E+02  0.20251763746E+02  0.73007250701E+01  0.47294652660E+02  0.00000000000E+00 0.  1.
         11    1    1    2    0    0  0.16485614848E+02  0.17192590501E+02  0.10719641513E+03  0.10981089237E+03  0.00000000000E+00 0. -1.
</event>
<event>
 7    1  0.2719869E-009  0.1298302E+03  0.7561462E-02  0.1227708E+00
         -2   -1    0    0    0  501 -0.00000000000E+00  0.00000000000E+00  0.57313297662E+02  0.57313297662E+02  0.00000000000E+00 0.  1.
          2   -1    0    0  501    0  0.00000000000E+00 -0.00000000000E+00 -0.43583383916E+03  0.43583383916E+03  0.00000000000E+00 0. -1.
         25    2    1    2    0    0  0.76597907615E+02  0.85116792078E+02 -0.23754483170E+03  0.29186626004E+03  0.12508500685E+03 0.  0.
          5    1    3    3  502    0  0.80806241601E+01  0.48696638530E+02 -0.19909593387E+03  0.20516657226E+03  0.41800000000E+01 0.  1.
         -5    1    3    3    0  502  0.68517283455E+02  0.36420153547E+02 -0.38448897829E+02  0.86699687778E+02  0.41800000000E+01 0.  1.
        -11    1    1    2    0    0 -0.13385047359E+02 -0.64573279558E+02 -0.31207826496E+02  0.72957496944E+02  0.00000000000E+00 0.  1.
         11    1    1    2    0    0 -0.63212860255E+02 -0.20543512520E+02 -0.10976788331E+03  0.12832337984E+03  0.00000000000E+00 0. -1.
</event>
<event>
 7    1  0.2719869E-009  0.1535578E+03  0.7561462E-02  0.1196168E+00
          2   -1    0    0  501    0  0.00000000000E+00  0.00000000000E+00  0.60011457370E+02  0.60011457370E+02  0.00000000000E+00 0. -1.
         -2   -1    0    0    0  501 -0.00000000000E+00 -0.00000000000E+00 -0.46336479380E+03  0.46336479380E+03  0.00000000000E+00 0.  1.
         25    2    1    2    0    0 -0.92652979232E+01 -0.10783379241E+03 -0.31545751541E+03  0.35619805901E+03  0.12509852392E+03 0.  0.
          5    1    3    3  502    0 -0.37764247773E+02 -0.12552037656E+03 -0.23938723856E+03  0.27295645391E+03  0.41800000000E+01 0. -1.
         -5    1    3    3    0  502  0.28498949850E+02  0.17686584155E+02 -0.76070276845E+02  0.83241605107E+02  0.41800000000E+01 0. -1.
        -11    1    1    2    0    0 -0.35825696924E+02  0.83659773375E+02 -0.54429743325E+02  0.10604261030E+03  0.00000000000E+00 0. -1.
         11    1    1    2    0    0  0.45090994847E+02  0.24174019031E+02 -0.33466077698E+02  0.61135581856E+02  0.00000000000E+00 0.  1.
</event>
<event>
 7    1  0.2719869E-009  0.1173622E+03  0.7561462E-02  0.1247513E+00
          1   -1    0    0  501    0  0.00000000000E+00  0.00000000000E+00  0.37903527275E+02  0.37903527275E+02  0.00000000000E+00 0.  1.
         -1   -1    0    0    0  501 -0.00000000000E+00 -0.00000000000E+00 -0.48442514382E+03  0.48442514382E+03  0.00000000000E+00 0. -1.
         25    2    1    2    0    0  0.21881301668E+02  0.45862194203E+02 -0.35480996494E+03  0.37962967279E+03  0.12508575069E+03 0.  0.
          5    1    3    3  502    0  0.63312874640E+02  0.59465989123E+02 -0.18758035905E+03  0.20675731537E+03  0.41800000000E+01 0. -1.
         -5    1    3    3    0  502 -0.41431572972E+02 -0.13603794921E+02 -0.16722960588E+03  0.17287235742E+03  0.41800000000E+01 0. -1.
        -11    1    1    2    0    0 -0.29525053006E+02 -0.71418507345E+02 -0.46462889064E+02  0.90172789724E+02  0.00000000000E+00 0.  1.
         11    1    1    2    0    0  0.76437513375E+01  0.25556313143E+02 -0.45248762537E+02  0.52526208573E+02  0.00000000000E+00 0. -1.
</event>
<event>
 7    1  0.2719869E-009  0.8878568E+02  0.7561462E-02  0.1305819E+00
          1   -1    0    0  501    0  0.00000000000E+00  0.00000000000E+00  0.68877520997E+02  0.68877520997E+02  0.00000000000E+00 0. -1.
         -1   -1    0    0    0  501 -0.00000000000E+00 -0.00000000000E+00 -0.22121467923E+03  0.22121467923E+03  0.00000000000E+00 0.  1.
         25    2    1    2    0    0 -0.53854734580E+02  0.34069531104E+02 -0.61052455446E+02  0.15308649991E+03  0.12508800403E+03 0.  0.
          5    1    3    3  502    0 -0.27524330194E-01 -0.21242184219E+02 -0.71851829481E+02  0.75042580897E+02  0.41800000000E+01 0.  1.
         -5    1    3    3    0  502 -0.53827210249E+02  0.55311715323E+02  0.10799374035E+02  0.78043919012E+02  0.41800000000E+01 0.  1.
        -11    1    1    2    0    0  0.27521611614E+02 -0.42800931643E+02 -0.96201395708E+02  0.10883045250E+03  0.00000000000E+00 0.  1.
         11    1    1    2    0    0  0.26333122966E+02  0.87314005392E+01  0.49166929170E+01  0.28175247821E+02  0.00000000000E+00 0. -1.
</event>
<event>
 7    1  0.2719869E-009  0.1559722E+03  0.7561462E-02  0.1193321E+00
         -3   -1    0    0    0  501 -0.00000000000E+00  0.00000000000E+00  0.17165157627E+03  0.17165157627E+03  0.00000000000E+00 0.  1.
          3   -1    0    0  501    0  0.00000000000E+00 -0.00000000000E+00 -0.15126378446E+03  0.15126378446E+03  0.00000000000E+00 0. -1.
         25    2    1    2    0    0  0.97669102257E+02 -0.65692810084E+02  0.27894252332E+02  0.17402077304E+03  0.12510132416E+03 0.  0.
          5    1    3    3  502    0 -0.25297367428E+00  0.31901760406E+02 -0.29449691670E+01  0.32309929682E+02  0.41800000000E+01 0.  1.
         -5    1    3    3    0  502  0.97922075931E+02 -0.97594570490E+02  0.30839221499E+02  0.14171084336E+03  0.41800000000E+01 0.  1.
        -11    1    1    2    0    0 -0.84131034149E+02  0.83866618255E+02 -0.23581218261E+02  0.12111033985E+03  0.00000000000E+00 0. -1.
         11    1    1    2    0    0 -0.13538068108E+02 -0.18173808170E+02  0.16074757740E+02  0.27784247838E+02  0.00000000000E+00 0.  1.
</event>
<event>
 7    1  0.2719869E-009  0.1496546E+03  0.7561462E-02  0.1200898E+00
          1   -1    0    0  501    0  0.00000000000E+00  0.00000000000E+00  0.17182279394E+03  0.17182279394E+03  0.00000000000E+00 0. -1.
         -1   -1    0    0    0  501 -0.00000000000E+00 -0.00000000000E+00 -0.15148198490E+03  0.15148198490E+03  0.00000000000E+00 0.  1.
         25    2    1    2    0    0 -0.11506382714E+03 -0.31128777657E+02  0.12529132752E+02  0.17324522587E+03  0.12509294146E+03 0.  0.
          5    1    3    3  502    0 -0.30272428458E+02 -0.68091496193E+02 -0.16053757870E+02  0.76341779651E+02  0.41800000000E+01 0. -1.
         -5    1    3    3    0  502 -0.84791398685E+02  0.36962718535E+02  0.28582890622E+02  0.96903446217E+02  0.41800000000E+01 0. -1.
        -11    1    1    2    0    0  0.87584760254E+02  0.47962126545E+02  0.37087309858E+02  0.10652194311E+03  0.00000000000E+00 0. -1.
         11    1    1    2    0    0  0.27479066889E+02 -0.16833348887E+02 -0.29275633568E+02  0.43537609864E+02  0.00000000000E+00 0.  1.
</event>
<event>
 7    1  0.2719869E-009  0.1226940E+03  0.7561462E-02  0.1238718E+00
         -2   -1    0    0    0  501 -0.00000000000E+00  0.00000000000E+00  0.33354135326E+02  0.33354135326E+02  0.00000000000E+00 0.  1.
          2   -1    0    0  501    0  0.00000000000E+00 -0.00000000000E+00 -0.75621326963E+03  0.75621326963E+03  0.00000000000E+00 0. -1.
         25    2    1    2    0    0  0.43556658082E+02  0.64647043262E+02 -0.59912499645E+03  0.61700060456E+03  0.12515015777E+03 0.  0.
          5    1    3    3  502    0  0.74167940200E+02  0.24877751598E+02 -0.20140026925E+03  0.21610027009E+03  0.41800000000E+01 0. -1.
         -5    1    3    3    0  502 -0.30611282118E+02  0.39769291665E+02 -0.39772472720E+03  0.40090033447E+03  0.41800000000E+01 0. -1.
        -11    1    1    2    0    0 -0.63896404388E+02 -0.70865419165E+02 -0.11536051121E+03  0.14970873613E+03  0.00000000000E+00 0.  1.
         11    1    1    2    0    0  0.20339746307E+02  0.62183759026E+01 -0.83736266369E+01  0.22858064261E+02  0.00000000000E+00 0. -1.
</event>
<event>
 7    1  0.2719869E-009  0.3071062E+03  0.7561462E-02  0.1081741E+00
         -1   -1    0    0    0  501 -0.00000000000E+00  0.00000000000E+00  0.21528637825E+03  0.21528637825E+03  0.00000000000E+00 0.  1.
          1   -1    0    0  501    0  0.00000000000E+00 -0.00000000000E+00 -0.49953269555E+03  0.49953269555E+03  0.00000000000E+00 0. -1.
         25    2    1    2    0    0  0.29749039032E+03  0.67123151430E+02 -0.89255861840E+02  0.34149557969E+03  0.12508625936E+03 0.  0.
          5    1    3    3  502    0  0.80694131932E+02  0.31195528802E+02  0.29713981279E+02  0.91570175434E+02  0.41800000000E+01 0. -1.
         -5    1    3    3    0  502  0.21679625839E+03  0.35927622628E+02 -0.11896984312E+03  0.24992540425E+03  0.41800000000E+01 0. -1.
        -11    1    1    2    0    0 -0.13074036183E+03 -0.83755619746E+01 -0.13109618676E+03  0.18533591782E+03  0.00000000000E+00 0. -1.
         11    1    1    2    0    0 -0.16675002849E+03 -0.58747589455E+02 -0.63894268701E+02  0.18798757630E+03  0.00000000000E+00 0.  1.
</event>
<event>
 7    1  0.2898256E-009  0.1221494E+03  0.7561462E-02  0.1239593E+00
         -1   -1    0    0    0  501 -0.00000000000E+00  0.00000000000E+00  0.54054070686E+02  0.54054070686E+02  0.00000000000E+00 0.  1.
          1   -1    0    0  501    0  0.00000000000E+00 -0.00000000000E+00 -0.33364970667E+03  0.33364970667E+03  0.00000000000E+00 0. -1.
         25    2    1    2    0    0 -0.45822998977E+02  0.50992855088E+02 -0.21120119530E+03  0.25486174569E+03  0.12509414860E+03 0.  0.
          5    1    3    3  502    0  0.36453600847E+02 -0.25565644293E+01 -0.25462713672E+02  0.44735033519E+02  0.41800000000E+01 0.  1.
         -5    1    3    3    0  502 -0.82276599824E+02  0.53549419517E+02 -0.18573848163E+03  0.21012671217E+03  0.41800000000E+01 0.  1.
        -11    1    1    2    0    0  0.20984948828E+02 -0.73073244708E+02 -0.63884018846E+02  0.99303751355E+02  0.00000000000E+00 0.  1.
         11    1    1    2    0    0  0.24838050149E+02  0.22080389620E+02 -0.45104218339E+01  0.33538280309E+02  0.00000000000E+00 0. -1.
</event>
<event>
 7    1  0.2719869E-009  0.1278309E+03  0.7561462E-02  0.1230710E+00
          2   -1    0    0  501    0  0.00000000000E+00  0.00000000000E+00  0.65473448765E+02  0.65473448765E+02  0.00000000000E+00 0. -1.
         -2   -1    0    0    0  501 -0.00000000000E+00 -0.00000000000E+00 -0.34854748695E+03  0.34854748695E+03  0.00000000000E+00 0.  1.
         25    2    1    2    0    0  0.32204444319E+02 -0.97621554447E+02 -0.11837383203E+03  0.20056800566E+03  0.12509223261E+03 0.  0.
          5    1    3    3  502    0 -0.17148488320E+02 -0.46630880145E+02 -0.11948775108E+03  0.12947318137E+03  0.41800000000E+01 0. -1.
         -5    1    3    3    0  502  0.49352932639E+02 -0.50990674301E+02  0.11139190517E+01  0.71094824295E+02  0.41800000000E+01 0. -1.
        -11    1    1    2    0    0  0.30288495510E+02  0.29729849832E+02 -0.64761869692E+02  0.77429688733E+02  0.00000000000E+00 0.  1.
         11    1    1    2    0    0 -0.62492939829E+02  0.67891704615E+02 -0.99938336459E+02  0.13602324132E+03  0.00000000000E+00 0. -1.
</event>
<event>
 6    1  0.2719869E-009  0.1691039E+03  0.7561462E-02  0.1178786E+00
         -2   -1    0    0    0  501 -0.00000000000E+00  0.00000000000E+00  0.28249734390E+02  0.28249734390E+02  0.00000000000E+00 0.  1.
          2   -1    0    0  501    0  0.00000000000E+00 -0.00000000000E+00 -0.13009256478E+04  0.13009256478E+04  0.00000000000E+00 0. -1.
          5    1    1    2  502    0  0.47617941147E+02  0.12656695972E+03 -0.33536159782E+03  0.36162347450E+03  0.41800000000E+01 0.  1.
         -5    1    1    2    0  502  0.13694436178E+01  0.22079942834E+02 -0.39766617116E+03  0.39830296928E+03  0.41800000000E+01 0.  1.
        -11    1    1    2    0    0  0.25984181635E+02 -0.26738339063E+02 -0.91556203261E+02  0.98856738904E+02  0.00000000000E+00 0.  1.
         11    1    1    2    0    0 -0.74971566399E+02 -0.12190856349E+03 -0.44809194115E+03  0.47039219949E+03  0.00000000000E+00 0. -1.
</event>
<event>
 7    1  0.2719869E-009  0.1191711E+03  0.7561462E-02  0.1244471E+00
         -2   -1    0    0    0  501 -0.00000000000E+00  0.00000000000E+00  0.57672200280E+02  0.57672200280E+02  0.00000000000E+00 0.  1.
          2   -1    0    0  501    0  0.00000000000E+00 -0.00000000000E+00 -0.25275298604E+03  0.25275298604E+03  0.00000000000E+00 0. -1.
         25    2    1    2    0    0  0.35592298052E+02  0.36954576160E+02 -0.12989286319E+03  0.18748923126E+03  0.12509038153E+03 0.  0.
          5    1    3    3  502    0 -0.39564032477E+02  0.43110739236E+02 -0.68295921809E+02  0.90031404738E+02  0.41800000000E+01 0.  1.
         -5    1    3    3    0  502  0.75156330530E+02 -0.61561630765E+01 -0.61596941377E+02  0.97457826518E+02  0.41800000000E+01 0.  1.
        -11    1    1    2    0    0  0.17118971793E+02  0.20151190157E+02 -0.14556581179E+02  0.30183169409E+02  0.00000000000E+00 0.  1.
         11    1    1    2    0    0 -0.52711269845E+02 -0.57105766317E+02 -0.50631341397E+02  0.92752785656E+02  0.00000000000E+00 0. -1.
</event>
<event>
 7    1  0.2719869E-009  0.1172971E+03  0.7561462E-02  0.1247624E+00
         -1   -1    0    0    0  501 -0.00000000000E+00  0.00000000000E+00  0.82540062392E+02  0.82540062392E+02  0.00000000000E+00 0.  1.
          1   -1    0    0  501    0  0.00000000000E+00 -0.00000000000E+00 -0.24873547321E+03  0.24873547321E+03  0.00000000000E+00 0. -1.
         25    2    1    2    0    0 -0.24993271137E+02  0.64171741681E+02 -0.16281656456E+03  0.21656356128E+03  0.12509143195E+03 0.  0.
          5    1    3    3  502    0 -0.61294866169E+02  0.23816124420E+02 -0.14501946691E+03  0.15928711996E+03  0.41800000000E+01 0.  1.
         -5    1    3    3    0  502  0.36301595031E+02  0.40355617261E+02 -0.17797097650E+02  0.57276441327E+02  0.41800000000E+01 0.  1.
        -11    1    1    2    0    0  0.13391674099E+02 -0.87334440442E+02  0.14144055500E+01  0.88366520615E+02  0.00000000000E+00 0.  1.
         11    1    1    2    0    0  0.11601597038E+02  0.23162698761E+02 -0.47932518023E+01  0.26345453698E+02  0.00000000000E+00 0. -1.
</event>
<event>
 7    1  0.2719869E-009  0.1042240E+03  0.7561462E-02  0.1271656E+00
         -2   -1    0    0    0  501 -0.00000000000E+00  0.00000000000E+00  0.27788452255E+03  0.27788452255E+03  0.00000000000E+00 0.  1.
          2   -1    0    0  501    0  0.00000000000E+00 -0.00000000000E+00 -0.67304376720E+02  0.67304376720E+02  0.00000000000E+00 0. -1.
         25    2    1    2    0    0  0.61313208655E+02 -0.11819342972E+00  0.45199509977E+02  0.14645863691E+03  0.12509121911E+03 0.  0.
          5    1    3    3  502    0 -0.28837348542E+01  0.32118684681E+02 -0.28657349975E+02  0.43343303289E+02  0.41800000000E+01 0.  1.
         -5    1    3    3    0  502  0.64196943510E+02 -0.32236878111E+02  0.73856859953E+02  0.10311533362E+03  0.41800000000E+01 0.  1.
        -11    1    1    2    0    0 -0.24190217281E+02  0.41713706593E+02  0.11019876002E+03  0.12028701776E+03  0.00000000000E+00 0.  1.
         11    1    1    2    0    0 -0.37122991374E+02 -0.41595513164E+02  0.55181875834E+02  0.78443244607E+02  0.00000000000E+00 0. -1.
</event>
<event>
 7    1  0.2719869E-009  0.1985586E+03  0.7561462E-02  0.1150961E+00
          2   -1    0    0  501    0  0.00000000000E+00  0.00000000000E+00  0.22410369952E+03  0.22410369952E+03  0.00000000000E+00 0. -1.
         -2   -1    0    0    0  501 -0.00000000000E+00 -0.00000000000E+00 -0.20524436710E+03  0.20524436710E+03  0.00000000000E+00 0.  1.
         25    2    1    2    0    0  0.77478010444E+02  0.15319232353E+03 -0.58377047217E+02  0.22028649252E+03  0.12509008376E+03 0.  0.
          5    1    3    3  502    0  0.61940225452E+02  0.52576504714E+01 -0.62613041759E+01  0.62617176138E+02  0.41800000000E+01 0.  1.
         -5    1    3    3    0  502  0.15537784991E+02  0.14793467306E+03 -0.52115743041E+02  0.15766931638E+03  0.41800000000E+01 0.  1.
        -11    1    1    2    0    0 -0.44309724880E+02 -0.19764091771E+02  0.48499373623E+02  0.68601459783E+02  0.00000000000E+00 0. -1.
         11    1    1    2    0    0 -0.33168285564E+02 -0.13342823176E+03  0.28737006011E+02  0.14046011431E+03  0.00000000000E+00 0.  1.
</event>
<event>
 7    1  0.2719869E-009  0.1541799E+03  0.7561462E-02  0.1195429E+00
          2   -1    0    0  501    0  0.00000000000E+00  0.00000000000E+00  0.53339630516E+03  0.53339630516E+03  0.00000000000E+00 0. -1.
         -2   -1    0    0    0  501 -0.00000000000E+00 -0.00000000000E+00 -0.50495985057E+02  0.50495985057E+02  0.00000000000E+00 0.  1.
         25    2    1    2    0    0  0.85083839005E+02  0.87373698214E+02  0.24895477700E+03  0.30413593486E+03  0.12508702206E+03 0.  0.
          5    1    3    3  502    0  0.93791195404E+02  0.10556445300E+03  0.24550869715E+03  0.28325365813E+03  0.41800000000E+01 0.  1.
         -5    1    3    3    0  502 -0.87073563994E+01 -0.18190754785E+02  0.34460798519E+01  0.20882276730E+02  0.41800000000E+01 0.  1.
        -11    1    1    2    0    0 -0.97062497110E+02 -0.54088582098E+02  0.20823030842E+03  0.23602238115E+03  0.00000000000E+00 0. -1.
         11    1    1    2    0    0  0.11978658106E+02 -0.33285116116E+02  0.25715234691E+02  0.43733974209E+02  0.00000000000E+00 0.  1.
</event>
<event>
 7    1  0.2719869E-009  0.9446915E+02  0.7561462E-02  0.1292376E+00
          3   -1    0    0  501    0  0.00000000000E+00  0.00000000000E+00  0.22488095396E+03  0.22488095396E+03  0.00000000000E+00 0. -1.
         -3   -1    0    0    0  501 -0.00000000000E+00 -0.00000000000E+00 -0.51402868358E+02  0.51402868358E+02  0.00000000000E+00 0.  1.
         25    2    1    2    0    0 -0.39986073373E+01 -0.73894001930E+01  0.98990784589E+02  0.15974700496E+03  0.12509731438E+03 0.  0.
          5    1    3    3  502    0  0.52370968212E+01 -0.55861336347E+02  0.89254297002E+01  0.56965355936E+02  0.41800000000E+01 0.  1.
         -5    1    3    3    0  502 -0.92357041585E+01  0.48471936154E+02  0.90065354889E+02  0.10278164903E+03  0.41800000000E+01 0.  1.
        -11    1    1    2    0    0 -0.39004246525E+02 -0.23103048898E+01  0.13611317980E+02  0.41375557191E+02  0.00000000000E+00 0.  1.
         11    1    1    2    0    0  0.43002853863E+02  0.96997050828E+01  0.60875983034E+02  0.75161260164E+02  0.00000000000E+00 0. -1.
</event>
<event>
 7    1  0.2719869E-009  0.1902420E+03  0.7561462E-02  0.1158243E+00
         -2   -1    0    0    0  501 -0.00000000000E+00  0.00000000000E+00  0.85606101350E+02  0.85606101350E+02  0.00000000000E+00 0.  1.
          2   -1    0    0  501    0  0.00000000000E+00 -0.00000000000E+00 -0.43651688546E+03  0.43651688546E+03  0.00000000000E+00 0. -1.
         25    2    1    2    0    0 -0.18275618747E+02  0.15782973065E+03 -0.16598910998E+03  0.26161586952E+03  0.12508499684E+03 0.  0.
          5    1    3    3  502    0  0.11113069534E+02 -0.19189601477E+02 -0.15385477275E+02  0.27311653745E+02  0.41800000000E+01 0.  1.
         -5    1    3    3    0  502 -0.29388688282E+02  0.17701933213E+03 -0.15060363271E+03  0.23430421578E+03  0.41800000000E+01 0.  1.
        -11    1    1    2    0    0  0.49974183974E+02 -0.11264252385E+03 -0.97582424967E+02  0.15718806222E+03  0.00000000000E+00 0.  1.
         11    1    1    2    0    0 -0.31698565227E+02 -0.45187206805E+02 -0.87339249163E+02  0.10331905507E+03  0.00000000000E+00 0. -1.
</event>
<event>
 7    1  0.2719869E-009  0.1341679E+03  0.7561462E-02  0.1221399E+00
         -1   -1    0    0    0  501 -0.00000000000E+00  0.00000000000E+00  0.59062719740E+02  0.59062719740E+02  0.00000000000E+00 0.  1.
          1   -1    0    0  501    0  0.00000000000E+00 -0.00000000000E+00 -0.39939794776E+03  0.39939794776E+03  0.00000000000E+00 0. -1.
         25    2    1    2    0    0  0.11100001094E+02  0.80500130752E+02 -0.28847476370E+03  0.32475870706E+03  0.12508815868E+03 0.  0.
          5    1    3    3  502    0 -0.33809231105E+02 -0.19469583989E+02 -0.67880278016E+02  0.78404931938E+02  0.41800000000E+01 0. -1.
         -5    1    3    3    0  502  0.44909232199E+02  0.99969714741E+02 -0.22059448568E+03  0.24635377512E+03  0.41800000000E+01 0. -1.
        -11    1    1    2    0    0 -0.16726180844E+02 -0.98837959795E+02 -0.30036424020E+02  0.10464652020E+03  0.00000000000E+00 0.  1.
         11    1    1    2    0    0  0.56261797495E+01  0.18337829043E+02 -0.21824040299E+02  0.29055440240E+02  0.00000000000E+00 0. -1.
</event>
<event>
 7    1  0.2719869E-009  0.8064286E+02  0.7561462E-02  0.1327237E+00
          1   -1    0    0  501    0  0.00000000000E+00  0.00000000000E+00  0.65142784138E+02  0.65142784138E+02  0.00000000000E+00 0. -1.
         -1   -1    0    0    0  501 -0.00000000000E+00 -0.00000000000E+00 -0.26363048879E+03  0.26363048879E+03  0.00000000000E+00 0.  1.
         25    2    1    2    0    0 -0.25952435875E+02  0.65391752735E+02 -0.79931541219E+02  0.16427405854E+03  0.12508918728E+03 0.  0.
          5    1    3    3  502    0  0.81690911524E+01  0.41567946917E+02  0.26346403735E+02  0.50062297699E+02  0.41800000000E+01 0. -1.
         -5    1    3    3    0  502 -0.34121527027E+02  0.23823805818E+02 -0.10627794495E+03  0.11421176084E+03  0.41800000000E+01 0. -1.
        -11    1    1    2    0    0  0.13879235005E+02 -0.41713980334E+01  0.12633246809E+02  0.19225832903E+02  0.00000000000E+00 0. -1.
         11    1    1    2    0    0  0.12073200870E+02 -0.61220354701E+02 -0.13118941025E+03  0.14527338149E+03  0.00000000000E+00 0.  1.
</event>
<event>
 7    1  0.2719869E-009  0.2754869E+03  0.7561462E-02  0.1098180E+00
         -1   -1    0    0    0  501 -0.00000000000E+00  0.00000000000E+00  0.74749464438E+03  0.74749464438E+03  0.00000000000E+00 0.  1.
          1   -1    0    0  501    0  0.00000000000E+00 -0.00000000000E+00 -0.11477682317E+03  0.11477682317E+03  0.00000000000E+00 0. -1.
         25    2    1    2    0    0 -0.36854663625E+02  0.26045336470E+03  0.22391375022E+03  0.36739405276E+03  0.12508717381E+03 0.  0.
          5    1    3    3  502    0 -0.48922679312E+02  0.33162443421E+02  0.22322345239E+02  0.63316156720E+02  0.41800000000E+01 0.  1.
         -5    1    3    3    0  502  0.12068015687E+02  0.22729092128E+03  0.20159140498E+03  0.30407789604E+03  0.41800000000E+01 0.  1.
        -11    1    1    2    0    0  0.40092600543E+02 -0.23227486951E+03  0.29505845720E+03  0.37764867906E+03  0.00000000000E+00 0.  1.
         11    1    1    2    0    0 -0.32379369176E+01 -0.28178495188E+02  0.11374561379E+03  0.11722873574E+03  0.00000000000E+00 0. -1.
</event>
<event>
 7    1  0.2719869E-009  0.8772868E+02  0.7561462E-02  0.1308447E+00
         -2   -1    0    0    0  501 -0.00000000000E+00  0.00000000000E+00  0.29398318040E+02  0.29398318040E+02  0.00000000000E+00 0.  1.
          2   -1    0    0  501    0  0.00000000000E+00 -0.00000000000E+00 -0.42635662642E+03  0.42635662642E+03  0.00000000000E+00 0. -1.
         25    2    1    2    0    0  0.48845425584E+01 -0.28881842881E+02 -0.23853822796E+03  0.27093509165E+03  0.12508924049E+03 0.  0.
          5    1    3    3  502    0  0.43523217015E+02 -0.46600421173E+01 -0.21499097878E+03  0.21944151788E+03  0.41800000000E+01 0.  1.
         -5    1    3    3    0  502 -0.38638674457E+02 -0.24221800764E+02 -0.23547249174E+02  0.51493573771E+02  0.41800000000E+01 0.  1.
        -11    1    1    2    0    0 -0.13123567602E+02 -0.26568446912E+02 -0.98074829841E+02  0.10245380738E+03  0.00000000000E+00 0. -1.
         11    1    1    2    0    0  0.82390250441E+01  0.55450289793E+02 -0.60345250580E+02  0.82366045428E+02  0.00000000000E+00 0.  1.
</event>
<event>
 7    1  0.2719869E-009  0.1044310E+03  0.7561462E-02  0.1271245E+00
         -3   -1    0    0    0  501 -0.00000000000E+00  0.00000000000E+00  0.25601053488E+02  0.25601053488E+02  0.00000000000E+00 0.  1.
          3   -1    0    0  501    0  0.00000000000E+00 -0.00000000000E+00 -0.54129399341E+03  0.54129399341E+03  0.00000000000E+00 0. -1.
         25    2    1    2    0    0 -0.24898202396E+02  0.10833200722E+02 -0.19978139119E+03  0.23726965853E+03  0.12508800052E+03 0.  0.
          5    1    3    3  502    0 -0.44474374051E+02  0.52280955640E+02 -0.16745226081E+03  0.18102209898E+03  0.41800000000E+01 0.  1.
         -5    1    3    3    0  502  0.19576171655E+02 -0.41447754918E+02 -0.32329130387E+02  0.56247559556E+02  0.41800000000E+01 0.  1.
        -11    1    1    2    0    0 -0.33196708712E+02  0.56625270233E+01 -0.11650469014E+03  0.12127418731E+03  0.00000000000E+00 0.  1.
         11    1    1    2    0    0  0.58094911108E+02 -0.16495727745E+02 -0.19940685859E+03  0.20835120106E+03  0.00000000000E+00 0. -1.
</event>
<event>
 7    1  0.2719869E-009  0.1196912E+03  0.7561462E-02  0.1243607E+00
          3   -1    0    0  501    0  0.00000000000E+00  0.00000000000E+00  0.67451001093E+03  0.67451001093E+03  0.00000000000E+00 0. -1.
         -3   -1    0    0    0  501 -0.00000000000E+00 -0.00000000000E+00 -0.31837843481E+02  0.31837843481E+02  0.00000000000E+00 0.  1.
         25    2    1    2    0    0  0.13905824909E+02  0.88170169735E+02  0.24018967671E+03  0.28515002717E+03  0.12510837861E+03 0.  0.
          5    1    3    3  502    0 -0.23163263197E+02 -0.91281618469E+01  0.13405560722E+03  0.13641201680E+03  0.41800000000E+01 0. -1.
         -5    1    3    3    0  502  0.37069088106E+02  0.97298331582E+02  0.10613406949E+03  0.14873801037E+03  0.41800000000E+01 0. -1.
        -11    1    1    2    0    0  0.21597709771E+02 -0.62484658708E+02  0.32952687072E+03  0.33609336822E+03  0.00000000000E+00 0. -1.
         11    1    1    2    0    0 -0.35503534679E+02 -0.25685511028E+02  0.72955620025E+02  0.85104459017E+02  0.00000000000E+00 0.  1.
</event>
<event>
 7    1  0.2719869E-009  0.1157767E+03  0.7561462E-02  0.1250231E+00
         -1   -1    0    0    0  501 -0.00000000000E+00  0.00000000000E+00  0.37145495921E+03  0.37145495921E+03  0.00000000000E+00 0.  1.
          1   -1    0    0  501    0  0.00000000000E+00 -0.00000000000E+00 -0.44842096201E+02  0.44842096201E+02  0.00000000000E+00 0. -1.
         25    2    1    2    0    0  0.38369832234E+02 -0.48112528424E+02  0.13050059498E+03  0.19095979249E+03  0.12509267620E+03 0.  0.
          5    1    3    3  502    0  0.44951865961E+02 -0.77910851458E+02  0.46195481204E+02  0.10120408051E+03  0.41800000000E+01 0.  1.
         -5    1    3    3    0  502 -0.65820337266E+01  0.29798323034E+02  0.84305113775E+02  0.89755711976E+02  0.41800000000E+01 0.  1.
        -11    1    1    2    0    0 -0.16915310308E+02  0.74671842580E+02  0.12811516121E+03  0.14924981182E+03  0.00000000000E+00 0.  1.
         11    1    1    2    0    0 -0.21454521926E+02 -0.26559314156E+02  0.67997106822E+02  0.76087451105E+02  0.00000000000E+00 0. -1.
</event>
<event>
 7    1  0.2719869E-009  0.8719704E+02  0.7561462E-02  0.1309785E+00
         -2   -1    0    0    0  501 -0.00000000000E+00  0.00000000000E+00  0.27538625807E+02  0.27538625807E+02  0.00000000000E+00 0.  1.
          2   -1    0    0  501    0  0.00000000000E+00 -0.00000000000E+00 -0.61683502338E+03  0.61683502338E+03  0.00000000000E+00 0. -1.
         25    2    1    2    0    0  0.35880566872E+02  0.27545514147E+02 -0.44183875042E+03  0.46142744741E+03  0.12509051694E+03 0.  0.
          5    1    3    3  502    0  0.22175390328E+02 -0.38929678587E+02 -0.30835002795E+03  0.31161591735E+03  0.41800000000E+01 0. -1.
         -5    1    3    3    0  502  0.13705176543E+02  0.66475192734E+02 -0.13348872247E+03  0.14981153006E+03  0.41800000000E+01 0. -1.
        -11    1    1    2    0    0  0.77950311107E+01 -0.13370427634E+02  0.10333554323E+02  0.18609491935E+02  0.00000000000E+00 0.  1.
         11    1    1    2    0    0 -0.43675597982E+02 -0.14175086514E+02 -0.15779120148E+03  0.16433670984E+03  0.00000000000E+00 0. -1.
</event>
<event>
 7    1  0.2719869E-009  0.1013096E+03  0.7561462E-02  0.1277566E+00
         -2   -1    0    0    0  501 -0.00000000000E+00  0.00000000000E+00  0.12256076892E+03  0.12256076892E+03  0.00000000000E+00 0.  1.
          2   -1    0    0  501    0  0.00000000000E+00 -0.00000000000E+00 -0.11322926293E+03  0.11322926293E+03  0.00000000000E+00 0. -1.
         25    2    1    2    0    0 -0.46884255262E+02  0.20037881866E+01  0.10277855506E+01  0.13360465192E+03  0.12508796150E+03 0.  0.
          5    1    3    3  502    0 -0.20093170255E+02  0.49193539099E+02 -0.38998119220E+02  0.66045934642E+02  0.41800000000E+01 0.  1.
         -5    1    3    3    0  502 -0.26791085006E+02 -0.47189750913E+02  0.40025904770E+02  0.67558717274E+02  0.41800000000E+01 0.  1.
        -11    1    1    2    0    0 -0.22510128336E+02 -0.10754063741E+02 -0.14206396660E+02  0.28708491265E+02  0.00000000000E+00 0. -1.
         11    1    1    2    0    0  0.69394383598E+02  0.87502755541E+01  0.22510117100E+02  0.73476888673E+02  0.00000000000E+00 0.  1.
</event>
<event>
 7    1  0.2719869E-009  0.8975804E+02  0.7561462E-02  0.1303439E+00
          2   -1    0    0  501    0  0.00000000000E+00  0.00000000000E+00  0.23375498078E+02  0.23375498078E+02  0.00000000000E+00 0. -1.
         -2   -1    0    0    0  501 -0.00000000000E+00 -0.00000000000E+00 -0.57666502420E+03  0.57666502420E+03  0.00000000000E+00 0.  1.
         25    2    1    2    0    0  0.12218595421E+02 -0.23051937005E+02 -0.24753922482E+03  0.27858566880E+03  0.12511443227E+03 0.  0.
          5    1    3    3  502    0 -0.16531926752E+01 -0.54195240811E+02 -0.38224380783E+02  0.66471293495E+02  0.41800000000E+01 0.  1.
         -5    1    3    3    0  502  0.13871788096E+02  0.31143303806E+02 -0.20931484404E+03  0.21211437531E+03  0.41800000000E+01 0.  1.
        -11    1    1    2    0    0 -0.16942801262E+02  0.55483442139E+02 -0.25123923523E+03  0.25785000327E+03  0.00000000000E+00 0. -1.
         11    1    1    2    0    0  0.47242058417E+01 -0.32431505134E+02 -0.54511066074E+02  0.63604850213E+02  0.00000000000E+00 0.  1.
</event>
<event>
 7    1  0.2719869E-009  0.1104909E+03  0.7561462E-02  0.1259663E+00
          2   -1    0    0  501    0  0.00000000000E+00  0.00000000000E+00  0.31018145903E+03  0.31018145903E+03  0.00000000000E+00 0. -1.
         -2   -1    0    0    0  501 -0.00000000000E+00 -0.00000000000E+00 -0.54627020517E+02  0.54627020517E+02  0.00000000000E+00 0.  1.
         25    2    1    2    0    0 -0.59937159139E+02  0.37648155394E+02  0.11758805700E+03  0.18570718349E+03  0.12510139967E+03 0.  0.
          5    1    3    3  502    0 -0.89095747618E+02 -0.33212218166E+01  0.53218674411E+02  0.10391719042E+03  0.41800000000E+01 0. -1.
         -5    1    3    3    0  502  0.29158588480E+02  0.40969377210E+02  0.64369382592E+02  0.81789993070E+02  0.41800000000E+01 0. -1.
        -11    1    1    2    0    0 -0.45419049280E+01 -0.10243761392E+02 -0.10233489803E+02  0.15175238429E+02  0.00000000000E+00 0.  1.
         11    1    1    2    0    0  0.64479064066E+02 -0.27404394002E+02  0.14819987131E+03  0.16392605763E+03  0.00000000000E+00 0. -1.
</event>
<event>
 7    1  0.2719869E-009  0.1318045E+03  0.7561462E-02  0.1224802E+00
         -2   -1    0    0    0  501 -0.00000000000E+00  0.00000000000E+00  0.14010255762E+02  0.14010255762E+02  0.00000000000E+00 0. -1.
          2   -1    0    0  501    0  0.00000000000E+00 -0.00000000000E+00 -0.18141016808E+04  0.18141016808E+04  0.00000000000E+00 0.  1.
         25    2    1    2    0    0  0.46835134153E+01 -0.80828211715E+02 -0.14394898219E+04  0.14471811946E+04  0.12508927879E+03 0.  0.
          5    1    3    3  502    0  0.10649174413E+02  0.31123537248E+02 -0.21230658861E+03  0.21488052367E+03  0.41800000000E+01 0. -1.
         -5    1    3    3    0  502 -0.59656609977E+01 -0.11195174896E+03 -0.12271832333E+04  0.12323006710E+04  0.41800000000E+01 0. -1.
        -11    1    1    2    0    0  0.36153842960E+02  0.65166185868E+02 -0.27340349442E+03  0.28337819765E+03  0.00000000000E+00 0.  1.
         11    1    1    2    0    0 -0.40837356376E+02  0.15662025847E+02 -0.87198108701E+02  0.97552544254E+02  0.00000000000E+00 0. -1.
</event>
<event>
 7    1  0.2719869E-009  0.1325331E+03  0.7561462E-02  0.1223745E+00
          4   -1    0    0  501    0  0.00000000000E+00  0.00000000000E+00  0.79741744661E+02  0.79741744661E+02  0.00000000000E+00 0. -1.
         -4   -1    0    0    0  501 -0.00000000000E+00 -0.00000000000E+00 -0.26584994858E+03  0.26584994858E+03  0.00000000000E+00 0.  1.
         25    2    1    2    0    0  0.81150469207E+02 -0.50821177132E+01 -0.15832271548E+03  0.21754270392E+03  0.12509004445E+03 0.  0.
          5    1    3    3  502    0  0.68250691650E+02 -0.57264314474E+02 -0.12699825109E+03  0.15518823023E+03  0.41800000000E+01 0. -1.
         -5    1    3    3    0  502  0.12899777556E+02  0.52182196761E+02 -0.31324464393E+02  0.62354473692E+02  0.41800000000E+01 0. -1.
        -11    1    1    2    0    0 -0.69172196959E+02  0.43503994891E+02 -0.31622793057E+02  0.87620724970E+02  0.00000000000E+00 0. -1.
         11    1    1    2    0    0 -0.11978272248E+02 -0.38421877178E+02  0.38373046138E+01  0.40428264353E+02  0.00000000000E+00 0.  1.
</event>
<event>
 7    1  0.2719869E-009  0.1436901E+03  0.7561462E-02  0.1208448E+00
         -3   -1    0    0    0  501 -0.00000000000E+00  0.00000000000E+00  0.39236966021E+03  0.39236966021E+03  0.00000000000E+00 0.  1.
          3   -1    0    0  501    0  0.00000000000E+00 -0.00000000000E+00 -0.21931269536E+03  0.21931269536E+03  0.00000000000E+00 0. -1.
         25    2    1    2    0    0  0.13100411649E+03  0.57854306662E+02  0.32984138148E+03  0.38072936580E+03  0.12510121388E+03 0.  0.
          5    1    3    3  502    0  0.30217723105E+02  0.10009676967E+02  0.22596417970E+03  0.22823362445E+03  0.41800000000E+01 0. -1.
         -5    1    3    3    0  502  0.10078639338E+03  0.47844629696E+02  0.10387720178E+03  0.15249574135E+03  0.41800000000E+01 0. -1.
        -11    1    1    2    0    0 -0.32546462532E+02 -0.92884740547E+01  0.62327963353E+01  0.34415050832E+02  0.00000000000E+00 0.  1.
         11    1    1    2    0    0 -0.98457653954E+02 -0.48565832608E+02 -0.16301721296E+03  0.19653793894E+03  0.00000000000E+00 0. -1.
</event>
<event>
 7    1  0.2719869E-009  0.9171579E+02  0.7561462E-02  0.1298749E+00
         -1   -1    0    0    0  501 -0.00000000000E+00  0.00000000000E+00  0.11476595822E+03  0.11476595822E+03  0.00000000000E+00 0.  1.
          1   -1    0    0  501    0  0.00000000000E+00 -0.00000000000E+00 -0.10822382700E+03  0.10822382700E+03  0.00000000000E+00 0. -1.
         25    2    1    2    0    0 -0.22907278976E+02  0.10817516939E+02 -0.59001912136E-01  0.12763361591E+03  0.12509426177E+03 0.  0.
          5    1    3    3  502    0  0.10566505302E+02 -0.53599483372E+02  0.27984135481E+01  0.54862183428E+02  0.41800000000E+01 0.  1.
         -5    1    3    3    0  502 -0.33473784277E+02  0.64417000311E+02 -0.28574154602E+01  0.72771432486E+02  0.41800000000E+01 0.  1.
        -11    1    1    2    0    0  0.15935616434E+02  0.19290230257E+02 -0.35313977004E+02  0.43279716107E+02  0.00000000000E+00 0.  1.
         11    1    1    2    0    0  0.69716625420E+01 -0.30107747196E+02  0.41915110133E+02  0.52076453194E+02  0.00000000000E+00 0. -1.
</event>
<event>
 7    1  0.2719869E-009  0.1613345E+03  0.7561462E-02  0.1187198E+00
          1   -1    0    0  501    0  0.00000000000E+00  0.00000000000E+00  0.28058012036E+03  0.28058012036E+03  0.00000000000E+00 0. -1.
         -1   -1    0    0    0  501 -0.00000000000E+00 -0.00000000000E+00 -0.10556482479E+03  0.10556482479E+03  0.00000000000E+00 0.  1.
         25    2    1    2    0    0  0.20666302549E+02  0.13011271667E+03  0.10792490445E+03  0.21131051478E+03  0.12509170059E+03 0.  0.
          5    1    3    3  502    0  0.29485856215E+02 -0.15461596413E+01 -0.12765016427E+02  0.32438008119E+02  0.41800000000E+01 0. -1.
         -5    1    3    3    0  502 -0.88195536650E+01  0.13165887631E+03  0.12068992088E+03  0.17887250666E+03  0.41800000000E+01 0. -1.
        -11    1    1    2    0    0 -0.54367465900E+02 -0.49789195681E+02  0.38411263534E+02  0.83127676024E+02  0.00000000000E+00 0.  1.
         11    1    1    2    0    0  0.33701163351E+02 -0.80323520987E+02  0.28679127583E+02  0.91706754353E+02  0.00000000000E+00 0. -1.
</event>
<event>
 7    1  0.2719869E-009  0.3167276E+03  0.7561462E-02  0.1077165E+00
          1   -1    0    0  501    0  0.00000000000E+00  0.00000000000E+00  0.59215013548E+03  0.59215013548E+03  0.00000000000E+00 0. -1.
         -1   -1    0    0    0  501 -0.00000000000E+00 -0.00000000000E+00 -0.19240112431E+03  0.19240112431E+03  0.00000000000E+00 0.  1.
         25    2    1    2    0    0 -0.37644141236E+02 -0.31146872401E+03  0.13429062492E+03  0.36346954332E+03  0.12508512933E+03 0.  0.
          5    1    3    3  502    0 -0.25766457796E+02 -0.26914700899E+03  0.15816904316E+03  0.31327135427E+03  0.41800000000E+01 0.  1.
         -5    1    3    3    0  502 -0.11877683440E+02 -0.42321715021E+02 -0.23878418245E+02  0.50198189052E+02  0.41800000000E+01 0.  1.
        -11    1    1    2    0    0 -0.14709066675E+02  0.45519575257E+02  0.10530976175E+02  0.48982546210E+02  0.00000000000E+00 0. -1.
         11    1    1    2    0    0  0.52353207910E+02  0.26594914875E+03  0.25492741008E+03  0.37209917026E+03  0.00000000000E+00 0.  1.
</event>
<event>
 7    1  0.2719869E-009  0.1592348E+03  0.7561462E-02  0.1189563E+00
         -2   -1    0    0    0  501 -0.00000000000E+00  0.00000000000E+00  0.66149247152E+02  0.66149247152E+02  0.00000000000E+00 0.  1.
          2   -1    0    0  501    0  0.00000000000E+00 -0.00000000000E+00 -0.68466126775E+03  0.68466126775E+03  0.00000000000E+00 0. -1.
         25    2    1    2    0    0 -0.21784034017E+02  0.13595776898E+03 -0.10923755178E+03  0.21573072968E+03  0.12509135032E+03 0.  0.
          5    1    3    3  502    0 -0.42340978074E+02  0.41922542719E+02  0.11946926623E+02  0.60913540925E+02  0.41800000000E+01 0.  1.
         -5    1    3    3    0  502  0.20556944057E+02  0.94035226257E+02 -0.12118447841E+03  0.15481718875E+03  0.41800000000E+01 0.  1.
        -11    1    1    2    0    0 -0.25571627633E+02 -0.99205911672E+02 -0.35771973973E+03  0.37210097184E+03  0.00000000000E+00 0.  1.
         11    1    1    2    0    0  0.47355661650E+02 -0.36751857304E+02 -0.15155472909E+03  0.16297881339E+03  0.00000000000E+00 0. -1.
</event>
<event>
 7    1  0.2719869E-009  0.7515982E+02  0.7561462E-02  0.1343377E+00
         -2   -1    0    0    0  501 -0.00000000000E+00  0.00000000000E+00  0.39445891468E+03  0.39445891468E+03  0.00000000000E+00 0.  1.
          2   -1    0    0  501    0  0.00000000000E+00 -0.00000000000E+00 -0.32340169079E+02  0.32340169079E+02  0.00000000000E+00 0. -1.
         25    2    1    2    0    0 -0.12473875824E+02 -0.17217002290E+02  0.19360160865E+03  0.23147739103E+03  0.12509267340E+03 0.  0.
          5    1    3    3  502    0 -0.13575106779E+02  0.18092048811E+02 -0.97899902694E+01  0.24998441225E+02  0.41800000000E+01 0.  1.
         -5    1    3    3    0  502  0.11012309548E+01 -0.35309051101E+02  0.20339159892E+03  0.20647894980E+03  0.41800000000E+01 0.  1.
        -11    1    1    2    0    0 -0.39287785298E+01  0.52599329351E+02  0.13094028139E+03  0.14116473370E+03  0.00000000000E+00 0.  1.
         11    1    1    2    0    0  0.16402654354E+02 -0.35382327062E+02  0.37576855552E+02  0.54156959029E+02  0.00000000000E+00 0. -1.
</event>
<event>
 7    1  0.2719869E-009  0.1253467E+03  0.7561462E-02  0.1234528E+00
         -2   -1    0    0    0  501 -0.00000000000E+00  0.00000000000E+00  0.27111447083E+02  0.27111447083E+02  0.00000000000E+00 0. -1.
          2   -1    0    0  501    0  0.00000000000E+00 -0.00000000000E+00 -0.86575304948E+03  0.86575304948E+03  0.00000000000E+00 0.  1.
         25    2    1    2    0    0  0.10292253129E+02 -0.81585130804E+02 -0.65959019262E+03  0.67636398770E+03  0.12508779964E+03 0.  0.
          5    1    3    3  502    0  0.17022241018E+02  0.20759604482E+02 -0.33099541778E+03  0.33210865219E+03  0.41800000000E+01 0. -1.
         -5    1    3    3    0  502 -0.67299878890E+01 -0.10234473529E+03 -0.32859477484E+03  0.34425533552E+03  0.41800000000E+01 0. -1.
        -11    1    1    2    0    0 -0.42441692660E+01 -0.19323026709E+02 -0.39555779408E+02  0.44227276861E+02  0.00000000000E+00 0.  1.
         11    1    1    2    0    0 -0.60480838634E+01  0.10090815751E+03 -0.13949563037E+03  0.17227323200E+03  0.00000000000E+00 0. -1.
</event>
<event>
 7    1  0.2719869E-009  0.8256150E+02  0.7561462E-02  0.1321936E+00
         -2   -1    0    0    0  501 -0.00000000000E+00  0.00000000000E+00  0.20730246858E+03  0.20730246858E+03  0.00000000000E+00 0.  1.
          2   -1    0    0  501    0  0.00000000000E+00 -0.00000000000E+00 -0.60715847139E+02  0.60715847139E+02  0.00000000000E+00 0. -1.
         25    2    1    2    0    0  0.13363604479E+02 -0.21242976325E+02  0.73543018903E+02  0.14726205782E+03  0.12509071938E+03 0.  0.
          5    1    3    3  502    0 -0.28972866742E+02 -0.10064486287E+02 -0.24712952619E+02  0.39609636689E+02  0.41800000000E+01 0.  1.
         -5    1    3    3    0  502  0.42336471222E+02 -0.11178490038E+02  0.98255971522E+02  0.10765242113E+03  0.41800000000E+01 0.  1.
        -11    1    1    2    0    0  0.35978344728E+02 -0.11490601416E+01  0.50621340568E+02  0.62115068619E+02  0.00000000000E+00 0.  1.
         11    1    1    2    0    0 -0.49341949208E+02  0.22392036467E+02  0.22422261973E+02  0.58641189285E+02  0.00000000000E+00 0. -1.
</event>
<event>
 7    1  0.2719869E-009  0.1116587E+03  0.7561462E-02  0.1257529E+00
         -3   -1    0    0    0  501 -0.00000000000E+00  0.00000000000E+00  0.92536629855E+02  0.92536629855E+02  0.00000000000E+00 0.  1.
          3   -1    0    0  501    0  0.00000000000E+00 -0.00000000000E+00 -0.17738744177E+03  0.17738744177E+03  0.00000000000E+00 0. -1.
         25    2    1    2    0    0 -0.58750664180E+02  0.20124199760E+02 -0.21022058403E+02  0.14123293512E+03  0.12509272987E+03 0.  0.
          5    1    3    3  502    0 -0.69734435433E+02  0.47040268491E+02  0.23914007070E+02  0.87550159789E+02  0.41800000000E+01 0. -1.
         -5    1    3    3    0  502  0.10983771254E+02 -0.26916068731E+02 -0.44936065474E+02  0.53682775330E+02  0.41800000000E+01 0. -1.
        -11    1    1    2    0    0  0.55630348626E+02 -0.52921255333E+02 -0.33004661385E+02  0.83574533366E+02  0.00000000000E+00 0.  1.
         11    1    1    2    0    0  0.31203155537E+01  0.32797055573E+02 -0.30824092126E+02  0.45116603139E+02  0.00000000000E+00 0. -1.
</event>
<event>
 7    1  0.3564538E-009  0.1646222E+03  0.7561462E-02  0.1183575E+00
         -1   -1    0    0    0  501 -0.00000000000E+00  0.00000000000E+00  0.25533535858E+02  0.25533535858E+02  0.00000000000E+00 0.  1.
          1   -1    0    0  501    0  0.00000000000E+00 -0.00000000000E+00 -0.14920649600E+04  0.14920649600E+04  0.00000000000E+00 0. -1.
         25    2    1    2    0    0 -0.10619302820E+03  0.11892409940E+03 -0.87312444496E+03  0.89633314013E+03  0.12508757351E+03 0.  0.
          5    1    3    3  502    0 -0.88683245518E+02  0.10567784387E+03 -0.40880290574E+03  0.43147400021E+03  0.41800000000E+01 0. -1.
         -5    1    3    3    0  502 -0.17509782686E+02  0.13246255530E+02 -0.46432153922E+03  0.46485913991E+03  0.41800000000E+01 0. -1.
        -11    1    1    2    0    0  0.42653376066E+02 -0.88886329544E+02 -0.21690966365E+03  0.23826433274E+03  0.00000000000E+00 0.  1.
         11    1    1    2    0    0  0.63539652139E+02 -0.30037769856E+02 -0.37649731552E+03  0.38300102299E+03  0.00000000000E+00 0. -1.
</event>
<event>
 7    1  0.2719869E-009  0.9778723E+02  0.7561462E-02  0.1285019E+00
          4   -1    0    0  501    0  0.00000000000E+00  0.00000000000E+00  0.45178205372E+02  0.45178205372E+02  0.00000000000E+00 0. -1.
         -4   -1    0    0    0  501 -0.00000000000E+00 -0.00000000000E+00 -0.32595698404E+03  0.32595698404E+03  0.00000000000E+00 0.  1.
         25    2    1    2    0    0 -0.35970443545E+02  0.53198743805E+01 -0.21221466098E+03  0.24900741697E+03  0.12508979774E+03 0.  0.
          5    1    3    3  502    0 -0.64338971608E+02 -0.39853814006E+02 -0.13902299813E+03  0.15834360160E+03  0.41800000000E+01 0.  1.
         -5    1    3    3    0  502  0.28368528063E+02  0.45173688386E+02 -0.73191662847E+02  0.90663815369E+02  0.41800000000E+01 0.  1.
        -11    1    1    2    0    0  0.21764125579E+02 -0.30434879625E+02  0.97513359576E+01  0.38665845562E+02  0.00000000000E+00 0. -1.
         11    1    1    2    0    0  0.14206317966E+02  0.25115005245E+02 -0.78315453646E+02  0.83461926879E+02  0.00000000000E+00 0.  1.
</event>
<event>
 7    1  0.2719869E-009  0.1195913E+03  0.7561462E-02  0.1243773E+00
         -2   -1    0    0    0  501 -0.00000000000E+00  0.00000000000E+00  0.58142382577E+02  0.58142382577E+02  0.00000000000E+00 0.  1.
          2   -1    0    0  501    0  0.00000000000E+00 -0.00000000000E+00 -0.30818538310E+03  0.30818538310E+03  0.00000000000E+00 0. -1.
         25    2    1    2    0    0  0.61372892419E+02  0.89303446127E+01 -0.72261772543E+02  0.15721341666E+03  0.12509161294E+03 0.  0.
          5    1    3    3  502    0 -0.46389379542E+01  0.56692092319E+02 -0.39074433333E+02  0.69136074644E+02  0.41800000000E+01 0. -1.
         -5    1    3    3    0  502  0.66011830373E+02 -0.47761747706E+02 -0.33187339210E+02  0.88077342018E+02  0.41800000000E+01 0. -1.
        -11    1    1    2    0    0 -0.17993934886E+02  0.34667981824E+02 -0.11402194541E+03  0.12052657255E+03  0.00000000000E+00 0.  1.
         11    1    1    2    0    0 -0.43378957532E+02 -0.43598326437E+02 -0.63759282569E+02  0.88587776461E+02  0.00000000000E+00 0. -1.
</event>
<event>
 7    1  0.2719869E-009  0.8868639E+02  0.7561462E-02  0.1306064E+00
         -1   -1    0    0    0  501 -0.00000000000E+00  0.00000000000E+00  0.14827991332E+03  0.14827991332E+03  0.00000000000E+00 0.  1.
          1   -1    0    0  501    0  0.00000000000E+00 -0.00000000000E+00 -0.10713122040E+03  0.10713122040E+03  0.00000000000E+00 0. -1.
         25    2    1    2    0    0 -0.59673010686E+01  0.53839773055E+02 -0.98064540799E+01  0.13666982521E+03  0.12509254469E+03 0.  0.
          5    1    3    3  502    0 -0.20960966292E+02  0.64927965000E+02  0.42834156075E+02  0.80667466017E+02  0.41800000000E+01 0. -1.
         -5    1    3    3    0  502  0.14993665224E+02 -0.11088191944E+02 -0.52640610155E+02  0.56002359191E+02  0.41800000000E+01 0. -1.
        -11    1    1    2    0    0 -0.43005860538E+00  0.17888302107E+02  0.42649638993E+02  0.46251140623E+02  0.00000000000E+00 0.  1.
         11    1    1    2    0    0  0.63973596740E+01 -0.71728075163E+02  0.83055079993E+01  0.72490167888E+02  0.00000000000E+00 0. -1.
</event>
<event>
 7    1  0.2719869E-009  0.1896736E+03  0.7561462E-02  0.1158756E+00
          3   -1    0    0  501    0  0.00000000000E+00  0.00000000000E+00  0.15287127656E+03  0.15287127656E+03  0.00000000000E+00 0. -1.
         -3   -1    0    0    0  501 -0.00000000000E+00 -0.00000000000E+00 -0.23906502586E+03  0.23906502586E+03  0.00000000000E+00 0.  1.
         25    2    1    2    0    0 -0.39866376528E+02 -0.15351526499E+03 -0.55369051130E+02  0.20945008534E+03  0.12508933553E+03 0.  0.
          5    1    3    3  502    0  0.38275247275E+02 -0.94119847740E+02 -0.43092519318E+02  0.11044445624E+03  0.41800000000E+01 0. -1.
         -5    1    3    3    0  502 -0.78141623803E+02 -0.59395417246E+02 -0.12276531812E+02  0.99005629101E+02  0.41800000000E+01 0. -1.
        -11    1    1    2    0    0  0.63238620176E+02  0.78277357186E+02 -0.10883507173E+02  0.10121718460E+03  0.00000000000E+00 0. -1.
         11    1    1    2    0    0 -0.23372243648E+02  0.75237907800E+02 -0.19941190994E+02  0.81269032488E+02  0.00000000000E+00 0.  1.
</event>
<event>
 7    1  0.2719869E-009  0.1187933E+03  0.7561462E-02  0.1245101E+00
          2   -1    0    0  501    0  0.00000000000E+00  0.00000000000E+00  0.48422861585E+03  0.48422861585E+03  0.00000000000E+00 0. -1.
         -2   -1    0    0    0  501 -0.00000000000E+00 -0.00000000000E+00 -0.31208735379E+02  0.31208735379E+02  0.00000000000E+00 0.  1.
         25    2    1    2    0    0  0.78219045916E+02  0.29105846421E+02  0.22693104027E+03  0.27223326436E+03  0.12509150151E+03 0.  0.
          5    1    3    3  502    0 -0.27631655294E+02  0.32454286514E+02  0.48543528545E+02  0.64735891521E+02  0.41800000000E+01 0.  1.
         -5    1    3    3    0  502  0.10585070121E+03 -0.33484400934E+01  0.17838751172E+03  0.20749737284E+03  0.41800000000E+01 0.  1.
        -11    1    1    2    0    0 -0.32993098875E+02  0.32661617376E+01  0.68807270557E+02  0.76378353395E+02  0.00000000000E+00 0.  1.
         11    1    1    2    0    0 -0.45225947041E+02 -0.32372008158E+02  0.15728156965E+03  0.16682573348E+03  0.00000000000E+00 0. -1.
</event>
<event>
 7    1  0.2719869E-009  0.1090619E+03  0.7561462E-02  0.1262317E+00
          1   -1    0    0  501    0  0.00000000000E+00  0.00000000000E+00  0.91848451816E+03  0.91848451816E+03  0.00000000000E+00 0. -1.
         -1   -1    0    0    0  501 -0.00000000000E+00 -0.00000000000E+00 -0.24818560131E+02  0.24818560131E+02  0.00000000000E+00 0.  1.
         25    2    1    2    0    0  0.25101410619E+02 -0.67636643222E+01  0.75691633538E+03  0.76762410488E+03  0.12509436303E+03 0.  0.
          5    1    3    3  502    0 -0.47873221823E+02 -0.67966869201E+01  0.19385141292E+03  0.19983463916E+03  0.41800000000E+01 0.  1.
         -5    1    3    3    0  502  0.72974632442E+02  0.33022597902E-01  0.56306492247E+03  0.56778946572E+03  0.41800000000E+01 0.  1.
        -11    1    1    2    0    0  0.19992356375E+02  0.37102526617E+02  0.19486423654E+02  0.46432881685E+02  0.00000000000E+00 0. -1.
         11    1    1    2    0    0 -0.45093766994E+02 -0.30338862294E+02  0.11726319899E+03  0.12924609172E+03  0.00000000000E+00 0.  1.
</event>
<event>
 7    1  0.2719869E-009  0.1105753E+03  0.7561462E-02  0.1259508E+00
         -1   -1    0    0    0  501 -0.00000000000E+00  0.00000000000E+00  0.18499910740E+02  0.18499910740E+02  0.00000000000E+00 0.  1.
          1   -1    0    0  501    0  0.00000000000E+00 -0.00000000000E+00 -0.75158969931E+03  0.75158969931E+03  0.00000000000E+00 0. -1.
         25    2    1    2    0    0 -0.27618217258E+02  0.32405206009E+02 -0.51154800820E+03  0.52833878242E+03  0.12509053127E+03 0.  0.
          5    1    3    3  502    0  0.48292035726E+02  0.27973788226E+02 -0.21233126773E+03  0.21958299843E+03  0.41800000000E+01 0. -1.
         -5    1    3    3    0  502 -0.75910252984E+02  0.44314177833E+01 -0.29921674046E+03  0.30875578399E+03  0.41800000000E+01 0. -1.
        -11    1    1    2    0    0 -0.11123569478E+02 -0.46494504651E+02 -0.70471954492E+02  0.85157319888E+02  0.00000000000E+00 0.  1.
         11    1    1    2    0    0  0.38741786736E+02  0.14089298642E+02 -0.15106982588E+03  0.15659350774E+03  0.00000000000E+00 0. -1.
</event>
<event>
 7    1  0.2719869E-009  0.1187784E+03  0.7561462E-02  0.1245126E+00
          2   -1    0    0  501    0  0.00000000000E+00  0.00000000000E+00  0.57569165833E+03  0.57569165833E+03  0.00000000000E+00 0. -1.
         -2   -1    0    0    0  501 -0.00000000000E+00 -0.00000000000E+00 -0.30680809046E+02  0.30680809046E+02  0.00000000000E+00 0.  1.
         25    2    1    2    0    0 -0.42898762015E+02  0.61059923206E+02  0.27089919205E+03  0.30758707688E+03  0.12511922156E+03 0.  0.
          5    1    3    3  502    0  0.29553874372E+02  0.16982060095E+02  0.17981095503E+03  0.18306084727E+03  0.41800000000E+01 0.  1.
         -5    1    3    3    0  502 -0.72452636387E+02  0.44077863112E+02  0.91088237028E+02  0.12452622961E+03  0.41800000000E+01 0.  1.
        -11    1    1    2    0    0  0.20359936058E+02 -0.83830091816E+02  0.21245507343E+03  0.22930148172E+03  0.00000000000E+00 0. -1.
         11    1    1    2    0    0  0.22538825956E+02  0.22770168609E+02  0.61656583795E+02  0.69483908780E+02  0.00000000000E+00 0.  1.
</event>
<event>
 7    1  0.2719869E-009  0.1038427E+03  0.7561462E-02  0.1272417E+00
         -4   -1    0    0    0  501 -0.00000000000E+00  0.00000000000E+00  0.63535882296E+02  0.63535882296E+02  0.00000000000E+00 0.  1.
          4   -1    0    0  501    0  0.00000000000E+00 -0.00000000000E+00 -0.23141356364E+03  0.23141356364E+03  0.00000000000E+00 0. -1.
         25    2    1    2    0    0  0.50019274427E+02  0.10986157553E+02 -0.10269552528E+03  0.16975332003E+03  0.12508874960E+03 0.  0.
          5    1    3    3  502    0  0.75140729056E+02 -0.25976880899E+02 -0.95435322064E+02  0.12428314689E+03  0.41800000000E+01 0. -1.
         -5    1    3    3    0  502 -0.25121454629E+02  0.36963038452E+02 -0.72602032131E+01  0.45470173136E+02  0.41800000000E+01 0. -1.
        -11    1    1    2    0    0 -0.14350232092E+02 -0.36572851772E+02 -0.70770977925E+02  0.80944635179E+02  0.00000000000E+00 0. -1.
         11    1    1    2    0    0 -0.35669042335E+02  0.25586694219E+02  0.55888218549E+01  0.44251490730E+02  0.00000000000E+00 0.  1.
</event>
<event>
 7    1  0.2719869E-009  0.1084314E+03  0.7561462E-02  0.1263503E+00
          2   -1    0    0  501    0  0.00000000000E+00  0.00000000000E+00  0.71123710339E+02  0.71123710339E+02  0.00000000000E+00 0. -1.
         -2   -1    0    0    0  501 -0.00000000000E+00 -0.00000000000E+00 -0.19649393507E+03  0.19649393507E+03  0.00000000000E+00 0.  1.
         25    2    1    2    0    0 -0.29803202844E+02 -0.31737549051E+02 -0.41422090186E+02  0.13877481260E+03  0.12508859315E+03 0.  0.
          5    1    3    3  502    0 -0.17730302101E+02  0.46218676050E+02 -0.32294211358E+02  0.59253000900E+02  0.41800000000E+01 0. -1.
         -5    1    3    3    0  502 -0.12072900743E+02 -0.77956225100E+02 -0.91278788280E+01  0.79521811701E+02  0.41800000000E+01 0. -1.
        -11    1    1    2    0    0 -0.15635582883E+02 -0.15937929257E+02 -0.23582397091E+00  0.22328113535E+02  0.00000000000E+00 0. -1.
         11    1    1    2    0    0  0.45438785727E+02  0.47675478308E+02 -0.83712310571E+02  0.10651471927E+03  0.00000000000E+00 0.  1.
</event>
<event>
 7    1  0.2719869E-009  0.1253506E+03  0.7561462E-02  0.1234522E+00
         -2   -1    0    0    0  501 -0.00000000000E+00  0.00000000000E+00  0.19382504585E+02  0.19382504585E+02  0.00000000000E+00 0.  1.
          2   -1    0    0  501    0  0.00000000000E+00 -0.00000000000E+00 -0.12869337745E+04  0.12869337745E+04  0.00000000000E+00 0. -1.
         25    2    1    2    0    0  0.82251852140E+02 -0.69926028624E+02 -0.86023132235E+03  0.87595368700E+03  0.12506765036E+03 0.  0.
          5    1    3    3  502    0 -0.15129354550E+02 -0.75452022479E+00 -0.13174872891E+02  0.20506495204E+02  0.41800000000E+01 0. -1.
         -5    1    3    3    0  502  0.97381206690E+02 -0.69171508399E+02 -0.84705644946E+03  0.85544719180E+03  0.41800000000E+01 0. -1.
        -11    1    1    2    0    0 -0.78811397278E+02  0.45917677717E+02 -0.39008983790E+03  0.40061172112E+03  0.00000000000E+00 0. -1.
         11    1    1    2    0    0 -0.34404548618E+01  0.24008350907E+02 -0.17230109639E+02  0.29750870930E+02  0.00000000000E+00 0.  1.
</event>
<event>
 7    1  0.2719869E-009  0.1064122E+03  0.7561462E-02  0.1267362E+00
         -1   -1    0    0    0  501 -0.00000000000E+00  0.00000000000E+00  0.14237417511E+03  0.14237417511E+03  0.00000000000E+00 0.  1.
          1   -1    0    0  501    0  0.00000000000E+00 -0.00000000000E+00 -0.14238252558E+03  0.14238252558E+03  0.00000000000E+00 0. -1.
         25    2    1    2    0    0 -0.12152578979E+02 -0.37579521528E+02  0.75473712070E+02  0.15132791838E+03  0.12507578524E+03 0.  0.
          5    1    3    3  502    0  0.40661021635E+02 -0.32038980131E+02  0.82615244771E+02  0.97583635907E+02  0.41800000000E+01 0. -1.
         -5    1    3    3    0  502 -0.52813600614E+02 -0.55405413964E+01 -0.71415327013E+01  0.53744282469E+02  0.41800000000E+01 0. -1.
        -11    1    1    2    0    0  0.56060459726E+02  0.28070949056E+02 -0.57392424825E+02  0.84997904403E+02  0.00000000000E+00 0. -1.
         11    1    1    2    0    0 -0.43907880747E+02  0.95085724718E+01 -0.18089637714E+02  0.48430877906E+02  0.00000000000E+00 0.  1.
</event>
<event>
 7    1  0.3793680E-009  0.1172513E+03  0.7561462E-02  0.1247702E+00
         -1   -1    0    0    0  501 -0.00000000000E+00  0.00000000000E+00  0.24806245162E+02  0.24806245162E+02  0.00000000000E+00 0.  1.
          1   -1    0    0  501    0  0.00000000000E+00 -0.00000000000E+00 -0.68592434747E+03  0.68592434747E+03  0.00000000000E+00 0. -1.
         25    2    1    2    0    0  0.46104717813E+02 -0.42244596507E+02 -0.46480645085E+03  0.48538907662E+03  0.12508904033E+03 0.  0.
          5    1    3    3  502    0  0.12326815019E+02 -0.83425993344E+02 -0.24345203735E+03  0.25767850827E+03  0.41800000000E+01 0.  1.
         -5    1    3    3    0  502  0.33777902795E+02  0.41181396837E+02 -0.22135441350E+03  0.22771056835E+03  0.41800000000E+01 0.  1.
        -11    1    1    2    0    0 -0.47571592168E+02 -0.63775813664E+01 -0.42804636233E+02  0.64311482712E+02  0.00000000000E+00 0.  1.
         11    1    1    2    0    0  0.14668743550E+01  0.48622177873E+02 -0.15350701522E+03  0.16103003330E+03  0.00000000000E+00 0. -1.
</event>
<event>
 7    1  0.2719869E-009  0.8052384E+02  0.7561462E-02  0.1327571E+00
         -2   -1    0    0    0  501 -0.00000000000E+00  0.00000000000E+00  0.40952686867E+02  0.40952686867E+02  0.00000000000E+00 0.  1.
          2   -1    0    0  501    0  0.00000000000E+00 -0.00000000000E+00 -0.36589784810E+03  0.36589784810E+03  0.00000000000E+00 0. -1.
         25    2    1    2    0    0  0.45448027481E+02  0.32535137339E+02 -0.22895402448E+03  0.26681849881E+03  0.12509239632E+03 0.  0.
          5    1    3    3  502    0  0.44548998685E+02  0.11644860982E+02 -0.23886919673E+03  0.24330265436E+03  0.41800000000E+01 0.  1.
         -5    1    3    3    0  502  0.89902879585E+00  0.20890276357E+02  0.99151722561E+01  0.23515844444E+02  0.41800000000E+01 0.  1.
        -11    1    1    2    0    0 -0.46760880421E+02  0.12525562365E+02 -0.21514757921E+02  0.52975036184E+02  0.00000000000E+00 0.  1.
         11    1    1    2    0    0  0.13128529405E+01 -0.45060699704E+02 -0.74476378830E+02  0.87056999973E+02  0.00000000000E+00 0. -1.
</event>
<event>
 7    1  0.2719869E-009  0.1518694E+03  0.7561462E-02  0.1198195E+00
          2   -1    0    0  501    0  0.00000000000E+00  0.00000000000E+00  0.11011583045E+04  0.11011583045E+04  0.00000000000E+00 0. -1.
         -2   -1    0    0    0  501 -0.00000000000E+00 -0.00000000000E+00 -0.25812203985E+02  0.25812203985E+02  0.00000000000E+00 0.  1.
         25    2    1    2    0    0  0.12702732187E+03  0.14913991098E+02  0.63523176495E+03  0.65994393939E+03  0.12509292665E+03 0.  0.
          5    1    3    3  502    0  0.57248759018E+02 -0.41448384643E+02  0.43193041354E+03  0.43769480639E+03  0.41800000000E+01 0.  1.
         -5    1    3    3    0  502  0.69778562857E+02  0.56362375741E+02  0.20330135141E+03  0.22224913300E+03  0.41800000000E+01 0.  1.
        -11    1    1    2    0    0 -0.42786363232E+02 -0.36432112696E+02  0.88597609530E+02  0.10491667231E+03  0.00000000000E+00 0.  1.
         11    1    1    2    0    0 -0.84240958642E+02  0.21518121598E+02  0.35151672608E+03  0.36210989683E+03  0.00000000000E+00 0. -1.
</event>
<event>
 7    1  0.2719869E-009  0.9630696E+02  0.7561462E-02  0.1288259E+00
          1   -1    0    0  501    0  0.00000000000E+00  0.00000000000E+00  0.37240493088E+03  0.37240493088E+03  0.00000000000E+00 0. -1.
         -1   -1    0    0    0  501 -0.00000000000E+00 -0.00000000000E+00 -0.43310906250E+02  0.43310906250E+02  0.00000000000E+00 0.  1.
         25    2    1    2    0    0  0.39479311799E+02  0.77393554497E+01  0.10795859728E+03  0.17006059310E+03  0.12508810063E+03 0.  0.
          5    1    3    3  502    0  0.45684992371E+02 -0.25066588623E+02  0.12266387775E+03  0.13333923540E+03  0.41800000000E+01 0. -1.
         -5    1    3    3    0  502 -0.62056805723E+01  0.32805944073E+02 -0.14705280472E+02  0.36721357704E+02  0.41800000000E+01 0. -1.
        -11    1    1    2    0    0  0.23033101054E+02 -0.32174980894E+02  0.90998145609E+02  0.99229106839E+02  0.00000000000E+00 0. -1.
         11    1    1    2    0    0 -0.62512412853E+02  0.24435625445E+02  0.13013728175E+03  0.14642613719E+03  0.00000000000E+00 0.  1.
</event>
<event>
 7    1  0.2719869E-009  0.2574016E+03  0.7561462E-02  0.1108715E+00
         -1   -1    0    0    0  501 -0.00000000000E+00  0.00000000000E+00  0.33002437693E+03  0.33002437693E+03  0.00000000000E+00 0.  1.
          1   -1    0    0  501    0  0.00000000000E+00 -0.00000000000E+00 -0.38343139889E+03  0.38343139889E+03  0.00000000000E+00 0. -1.
         25    2    1    2    0    0 -0.12058795288E+03  0.20962707803E+03 -0.26452260349E+03  0.37960859352E+03  0.12508201428E+03 0.  0.
          5    1    3    3  502    0 -0.21160356337E+02 -0.39410604736E+01  0.40881692423E+01  0.22304218563E+02  0.41800000000E+01 0. -1.
         -5    1    3    3    0  502 -0.99427596542E+02  0.21356813850E+03 -0.26861077273E+03  0.35730437495E+03  0.41800000000E+01 0. -1.
        -11    1    1    2    0    0  0.76165443590E+02 -0.48908144847E+02  0.90934787200E+02  0.12830556088E+03  0.00000000000E+00 0.  1.
         11    1    1    2    0    0  0.44422509289E+02 -0.16071893318E+03  0.12018079432E+03  0.20554162142E+03  0.00000000000E+00 0. -1.
</event>
<event>
 7    1  0.2719869E-009  0.1739669E+03  0.7561462E-02  0.1173773E+00
          2   -1    0    0  501    0  0.00000000000E+00  0.00000000000E+00  0.33201397495E+03  0.33201397495E+03  0.00000000000E+00 0. -1.
         -2   -1    0    0    0  501 -0.00000000000E+00 -0.00000000000E+00 -0.10918783926E+03  0.10918783926E+03  0.00000000000E+00 0.  1.
         25    2    1    2    0    0 -0.69363235307E+02  0.13393976886E+03  0.76991722070E+02  0.21053868950E+03  0.12509074473E+03 0.  0.
          5    1    3    3  502    0 -0.10466726497E+03  0.11539768567E+03  0.62102019881E+02  0.16776768308E+03  0.41800000000E+01 0. -1.
         -5    1    3    3    0  502  0.35304029660E+02  0.18542083185E+02  0.14889702189E+02  0.42771006422E+02  0.41800000000E+01 0. -1.
        -11    1    1    2    0    0  0.43558678878E+02 -0.63796958317E+02  0.13126133702E+02  0.78356274682E+02  0.00000000000E+00 0.  1.
         11    1    1    2    0    0  0.25804556429E+02 -0.70142810539E+02  0.13270827993E+03  0.15230685002E+03  0.00000000000E+00 0. -1.
</event>
<event>
 7    1  0.2719869E-009  0.1159839E+03  0.7561462E-02  0.1249873E+00
         -2   -1    0    0    0  501 -0.00000000000E+00  0.00000000000E+00  0.12554023234E+03  0.12554023234E+03  0.00000000000E+00 0.  1.
          2   -1    0    0  501    0  0.00000000000E+00 -0.00000000000E+00 -0.11472267252E+03  0.11472267252E+03  0.00000000000E+00 0. -1.
         25    2    1    2    0    0  0.18012607658E+02  0.63844625852E+02 -0.44423663647E+01  0.14166367438E+03  0.12509305231E+03 0.  0.
          5    1    3    3  502    0  0.71397783856E+02  0.39045696279E+02 -0.11261728551E+02  0.82258792037E+02  0.41800000000E+01 0. -1.
         -5    1    3    3    0  502 -0.53385176198E+02  0.24798929573E+02  0.68193621864E+01  0.59404882344E+02  0.41800000000E+01 0. -1.
        -11    1    1    2    0    0 -0.18632917073E+02  0.75279860067E+01 -0.10554464402E+02  0.22699182602E+02  0.00000000000E+00 0. -1.
         11    1    1    2    0    0  0.62030941491E+00 -0.71372611858E+02  0.25814390584E+02  0.75900047882E+02  0.00000000000E+00 0.  1.
</event>
<event>
 7    1  0.2719869E-009  0.1654452E+03  0.7561462E-02  0.1182683E+00
         -2   -1    0    0    0  501 -0.00000000000E+00  0.00000000000E+00  0.96032123096E+02  0.96032123096E+02  0.00000000000E+00 0.  1.
          2   -1    0    0  501    0  0.00000000000E+00 -0.00000000000E+00 -0.44715969872E+03  0.44715969872E+03  0.00000000000E+00 0. -1.
         25    2    1    2    0    0  0.12769574927E+03  0.64876613223E+02 -0.31620031125E+03  0.36897754238E+03  0.12508641263E+03 0.  0.
          5    1    3    3  502    0  0.12263534596E+03  0.95069633876E+02 -0.28788657734E+03  0.32706852061E+03  0.41800000000E+01 0. -1.
         -5    1    3    3    0  502  0.50604033081E+01 -0.30193020653E+02 -0.28313733912E+02  0.41909021771E+02  0.41800000000E+01 0. -1.
        -11    1    1    2    0    0 -0.59636644204E+02 -0.42089790737E+02 -0.63708861032E+02  0.96886009260E+02  0.00000000000E+00 0. -1.
         11    1    1    2    0    0 -0.68059105064E+02 -0.22786822487E+02  0.28781596661E+02  0.77328270170E+02  0.00000000000E+00 0.  1.
</event>
<event>
 7    1  0.2874752E-009  0.1778530E+03  0.7561462E-02  0.1169897E+00
          4   -1    0    0  501    0  0.00000000000E+00  0.00000000000E+00  0.18520862659E+03  0.18520862659E+03  0.00000000000E+00 0. -1.
         -4   -1    0    0    0  501 -0.00000000000E+00 -0.00000000000E+00 -0.21195906974E+03  0.21195906974E+03  0.00000000000E+00 0.  1.
         25    2    1    2    0    0 -0.59805561456E+01 -0.16195800964E+03  0.18975260813E+02  0.20560758874E+03  0.12509298975E+03 0.  0.
          5    1    3    3  502    0  0.45350767140E+02 -0.40941404245E+02  0.38953664114E+02  0.72579273968E+02  0.41800000000E+01 0. -1.
         -5    1    3    3    0  502 -0.51331323286E+02 -0.12101660540E+03 -0.19978403302E+02  0.13302831477E+03  0.41800000000E+01 0. -1.
        -11    1    1    2    0    0  0.95765474443E+01  0.48786744266E+02  0.27403080764E+02  0.56769582634E+02  0.00000000000E+00 0.  1.
         11    1    1    2    0    0 -0.35959912986E+01  0.11317126538E+03 -0.73128784730E+02  0.13479052495E+03  0.00000000000E+00 0. -1.
</event>
<event>
 7    1  0.2719869E-009  0.2008955E+03  0.7561462E-02  0.1148986E+00
          2   -1    0    0  501    0  0.00000000000E+00  0.00000000000E+00  0.87773584368E+03  0.87773584368E+03  0.00000000000E+00 0. -1.
         -2   -1    0    0    0  501 -0.00000000000E+00 -0.00000000000E+00 -0.10351767704E+03  0.10351767704E+03  0.00000000000E+00 0.  1.
         25    2    1    2    0    0 -0.16675520311E+03  0.84075036024E+02  0.73703553894E+03  0.77054971546E+03  0.12509823694E+03 0.  0.
          5    1    3    3  502    0 -0.77927824963E+02  0.83748717326E+02  0.56934788006E+03  0.58074183118E+03  0.41800000000E+01 0.  1.
         -5    1    3    3    0  502 -0.88827378150E+02  0.32631869769E+00  0.16768765888E+03  0.18980788428E+03  0.41800000000E+01 0.  1.
        -11    1    1    2    0    0  0.13922175224E+03 -0.95239330030E+02  0.77137930403E+01  0.16885712566E+03  0.00000000000E+00 0.  1.
         11    1    1    2    0    0  0.27533450869E+02  0.11164294006E+02  0.29468834662E+02  0.41846679603E+02  0.00000000000E+00 0. -1.
</event>
<event>
 7    1  0.2719869E-009  0.1992733E+03  0.7561462E-02  0.1150354E+00
         -1   -1    0    0    0  501 -0.00000000000E+00  0.00000000000E+00  0.11712305653E+04  0.11712305653E+04  0.00000000000E+00 0.  1.
          1   -1    0    0  501    0  0.00000000000E+00 -0.00000000000E+00 -0.39942751596E+02  0.39942751596E+02  0.00000000000E+00 0. -1.
         25    2    1    2    0    0  0.56871761430E+02 -0.12353574441E+03  0.60863555518E+03  0.63606487252E+03  0.12508319484E+03 0.  0.
          5    1    3    3  502    0 -0.29717302424E+00 -0.10093416541E+03  0.21397414339E+03  0.23662248519E+03  0.41800000000E+01 0. -1.
         -5    1    3    3    0  502  0.57168934454E+02 -0.22601578999E+02  0.39466141179E+03  0.39944238733E+03  0.41800000000E+01 0. -1.
        -11    1    1    2    0    0 -0.12576911133E+03  0.10682637398E+03  0.41053127746E+03  0.44245414826E+03  0.00000000000E+00 0.  1.
         11    1    1    2    0    0  0.68897349896E+02  0.16709370428E+02  0.11212098106E+03  0.13265429611E+03  0.00000000000E+00 0. -1.
</event>
<event>
 7    1  0.2719869E-009  0.1051044E+03  0.7561462E-02  0.1269914E+00
         -1   -1    0    0    0  501 -0.00000000000E+00  0.00000000000E+00  0.28218085264E+02  0.28218085264E+02  0.00000000000E+00 0.  1.
          1   -1    0    0  501    0  0.00000000000E+00 -0.00000000000E+00 -0.42373957621E+03  0.42373957621E+03  0.00000000000E+00 0. -1.
         25    2    1    2    0    0  0.14828362723E+02 -0.18531089263E+02 -0.21437266955E+03  0.24933271386E+03  0.12509148308E+03 0.  0.
          5    1    3    3  502    0 -0.41376872026E+02  0.24735548973E+02 -0.46793357986E+02  0.67312581835E+02  0.41800000000E+01 0. -1.
         -5    1    3    3    0  502  0.56205234749E+02 -0.43266638236E+02 -0.16757931157E+03  0.18202013203E+03  0.41800000000E+01 0. -1.
        -11    1    1    2    0    0  0.15651348418E+02 -0.29781954931E+02 -0.65256528897E+02  0.73418962881E+02  0.00000000000E+00 0. -1.
         11    1    1    2    0    0 -0.30479711141E+02  0.48313044195E+02 -0.11589229249E+03  0.12920598473E+03  0.00000000000E+00 0.  1.
</event>
<event>
 7    1  0.2719869E-009  0.6469807E+02  0.7561462E-02  0.1379111E+00
         -2   -1    0    0    0  501 -0.00000000000E+00  0.00000000000E+00  0.22497445751E+03  0.22497445751E+03  0.00000000000E+00 0.  1.
          2   -1    0    0  501    0  0.00000000000E+00 -0.00000000000E+00 -0.55295818565E+02  0.55295818565E+02  0.00000000000E+00 0. -1.
         25    2    1    2    0    0 -0.12849267309E+02 -0.88622645862E+01  0.75248654059E+02  0.14681295560E+03  0.12509212841E+03 0.  0.
          5    1    3    3  502    0 -0.75596062739E+01  0.30451070526E+02 -0.24082445836E+02  0.39772502318E+02  0.41800000000E+01 0.  1.
         -5    1    3    3    0  502 -0.52896610353E+01 -0.39313335112E+02  0.99331099895E+02  0.10704045328E+03  0.41800000000E+01 0.  1.
        -11    1    1    2    0    0  0.10195525968E+02  0.32504295939E+02  0.10275315513E+03  0.10825289323E+03  0.00000000000E+00 0.  1.
         11    1    1    2    0    0  0.26537413417E+01 -0.23642031353E+02 -0.83231702479E+01  0.25204427242E+02  0.00000000000E+00 0. -1.
</event>
<event>
 7    1  0.2719869E-009  0.1050224E+03  0.7561462E-02  0.1270075E+00
         -1   -1    0    0    0  501 -0.00000000000E+00  0.00000000000E+00  0.15368100419E+02  0.15368100419E+02  0.00000000000E+00 0.  1.
          1   -1    0    0  501    0  0.00000000000E+00 -0.00000000000E+00 -0.15559984301E+04  0.15559984301E+04  0.00000000000E+00 0. -1.
         25    2    1    2    0    0  0.66980421708E+02  0.22182531648E+02 -0.12622200492E+04  0.12703646869E+04  0.12509413906E+03 0.  0.
          5    1    3    3  502    0  0.66770929258E+02  0.41637412235E+02 -0.12298159421E+04  0.12323379224E+04  0.41800000000E+01 0. -1.
         -5    1    3    3    0  502  0.20949245055E+00 -0.19454880586E+02 -0.32404107055E+02  0.38026764519E+02  0.41800000000E+01 0. -1.
        -11    1    1    2    0    0 -0.81829150595E+02  0.32509533627E+01 -0.23206290017E+03  0.24608894372E+03  0.00000000000E+00 0. -1.
         11    1    1    2    0    0  0.14848728887E+02 -0.25433485011E+02 -0.46347380324E+02  0.54912899871E+02  0.00000000000E+00 0.  1.
</event>
<event>
 7    1  0.2719869E-009  0.2599736E+03  0.7561462E-02  0.1107159E+00
         -2   -1    0    0    0  501 -0.00000000000E+00  0.00000000000E+00  0.72950612501E+02  0.72950612501E+02  0.00000000000E+00 0.  1.
          2   -1    0    0  501    0  0.00000000000E+00 -0.00000000000E+00 -0.14492086717E+04  0.14492086717E+04  0.00000000000E+00 0. -1.
         25    2    1    2    0    0  0.23918323745E+03 -0.73288916281E+02 -0.11128862426E+04  0.11474941426E+04  0.12508849655E+03 0.  0.
          5    1    3    3  502    0  0.79924754899E+02  0.12068000313E+02 -0.18143916052E+03  0.19867371353E+03  0.41800000000E+01 0. -1.
         -5    1    3    3    0  502  0.15925848255E+03 -0.85356916593E+02 -0.93144708212E+03  0.94882042910E+03  0.41800000000E+01 0. -1.
        -11    1    1    2    0    0 -0.54716900031E+02 -0.10417257581E+02 -0.22849164592E+02  0.60204175329E+02  0.00000000000E+00 0.  1.
         11    1    1    2    0    0 -0.18446633742E+03  0.83706173862E+02 -0.24052265196E+03  0.31446096624E+03  0.00000000000E+00 0. -1.
</event>
<event>
 7    1  0.2719869E-009  0.1180340E+03  0.7561462E-02  0.1246376E+00
          2   -1    0    0  501    0  0.00000000000E+00  0.00000000000E+00  0.94215956720E+02  0.94215956720E+02  0.00000000000E+00 0. -1.
         -2   -1    0    0    0  501 -0.00000000000E+00 -0.00000000000E+00 -0.23180166647E+03  0.23180166647E+03  0.00000000000E+00 0.  1.
         25    2    1    2    0    0  0.19923996156E+02 -0.92327349595E+02 -0.10681865152E+03  0.18967913308E+03  0.12508654646E+03 0.  0.
          5    1    3    3  502    0  0.45461727924E+02 -0.33255347959E+01  0.31221860666E+01  0.45880805718E+02  0.41800000000E+01 0.  1.
         -5    1    3    3    0  502 -0.25537731768E+02 -0.89001814799E+02 -0.10994083759E+03  0.14379832736E+03  0.41800000000E+01 0.  1.
        -11    1    1    2    0    0  0.47117767818E+01  0.33480909295E+02 -0.57871239000E+02  0.67024267479E+02  0.00000000000E+00 0.  1.
         11    1    1    2    0    0 -0.24635772938E+02  0.58846440299E+02  0.27104180773E+02  0.69314222635E+02  0.00000000000E+00 0. -1.
</event>
<event>
 7    1  0.2719869E-009  0.1883266E+03  0.7561462E-02  0.1159979E+00
         -1   -1    0    0    0  501 -0.00000000000E+00  0.00000000000E+00  0.49427516002E+02  0.49427516002E+02  0.00000000000E+00 0.  1.
          1   -1    0    0  501    0  0.00000000000E+00 -0.00000000000E+00 -0.90274736482E+03  0.90274736482E+03  0.00000000000E+00 0. -1.
         25    2    1    2    0    0 -0.12609161442E+02  0.16633687674E+03 -0.60143793407E+03  0.63655500147E+03  0.12509090233E+03 0.  0.
          5    1    3    3  502    0  0.38168024274E+02  0.72718213949E+02 -0.40300057774E+03  0.41130484409E+03  0.41800000000E+01 0.  1.
         -5    1    3    3    0  502 -0.50777185716E+02  0.93618662792E+02 -0.19843735633E+03  0.22525015738E+03  0.41800000000E+01 0.  1.
        -11    1    1    2    0    0  0.14039254854E+02 -0.17675934767E+03 -0.24691330769E+03  0.30398544238E+03  0.00000000000E+00 0. -1.
         11    1    1    2    0    0 -0.14300934117E+01  0.10422470930E+02 -0.49686070569E+01  0.11634436967E+02  0.00000000000E+00 0.  1.
</event>
<event>
 7    1  0.2719869E-009  0.1050603E+03  0.7561462E-02  0.1270001E+00
          1   -1    0    0  501    0  0.00000000000E+00  0.00000000000E+00  0.10340786489E+04  0.10340786489E+04  0.00000000000E+00 0. -1.
         -1   -1    0    0    0  501 -0.00000000000E+00 -0.00000000000E+00 -0.12495804022E+02  0.12495804022E+02  0.00000000000E+00 0.  1.
         25    2    1    2    0    0 -0.12342634174E+02 -0.30235566432E+02  0.57245987553E+03  0.58687689811E+03  0.12509058457E+03 0.  0.
          5    1    3    3  502    0  0.40386447671E+02  0.14200588270E+02  0.37937644820E+03  0.38180712894E+03  0.41800000000E+01 0.  1.
         -5    1    3    3    0  502 -0.52729081845E+02 -0.44436154703E+02  0.19308342733E+03  0.20506976917E+03  0.41800000000E+01 0.  1.
        -11    1    1    2    0    0 -0.40180739932E+02  0.79058407482E+01  0.18463504793E+03  0.18912190540E+03  0.00000000000E+00 0.  1.
         11    1    1    2    0    0  0.52523374106E+02  0.22329725684E+02  0.26448792139E+03  0.27057564938E+03  0.00000000000E+00 0. -1.
</event>
<event>
 7    1  0.2719869E-009  0.1434435E+03  0.7561462E-02  0.1208769E+00
         -2   -1    0    0    0  501 -0.00000000000E+00  0.00000000000E+00  0.27288922877E+02  0.27288922877E+02  0.00000000000E+00 0. -1.
          2   -1    0    0  501    0  0.00000000000E+00 -0.00000000000E+00 -0.10748110993E+04  0.10748110993E+04  0.00000000000E+00 0.  1.
         25    2    1    2    0    0  0.11778948978E+02  0.11866228999E+03 -0.72472319610E+03  0.74504351935E+03  0.12508657825E+03 0.  0.
          5    1    3    3  502    0  0.57350571632E+02  0.49447569348E+02 -0.49538102762E+03  0.50115265649E+03  0.41800000000E+01 0.  1.
         -5    1    3    3    0  502 -0.45571622653E+02  0.69214720641E+02 -0.22934216848E+03  0.24389086286E+03  0.41800000000E+01 0.  1.
        -11    1    1    2    0    0  0.33913181223E+01 -0.11104497916E+03 -0.32135844270E+03  0.34002020107E+03  0.00000000000E+00 0.  1.
         11    1    1    2    0    0 -0.15170267101E+02 -0.76173108248E+01 -0.14405375914E+01  0.17036301731E+02  0.00000000000E+00 0. -1.
</event>
<event>
 7    1  0.2719869E-009  0.1302715E+03  0.7561462E-02  0.1227053E+00
          1   -1    0    0  501    0  0.00000000000E+00  0.00000000000E+00  0.29634578797E+03  0.29634578797E+03  0.00000000000E+00 0. -1.
         -1   -1    0    0    0  501 -0.00000000000E+00 -0.00000000000E+00 -0.93105529714E+02  0.93105529714E+02  0.00000000000E+00 0.  1.
         25    2    1    2    0    0  0.11442482093E+03  0.20376144327E+02  0.53503943088E+02  0.17893810029E+03  0.12509174596E+03 0.  0.
          5    1    3    3  502    0  0.50828892894E+02  0.50501733525E+02 -0.22555219637E+02  0.75234378941E+02  0.41800000000E+01 0. -1.
         -5    1    3    3    0  502  0.63595928041E+02 -0.30125589197E+02  0.76059162725E+02  0.10370372135E+03  0.41800000000E+01 0. -1.
        -11    1    1    2    0    0 -0.62997227204E+02 -0.10773660256E+00  0.14115325742E+03  0.15457329758E+03  0.00000000000E+00 0. -1.
         11    1    1    2    0    0 -0.51427593730E+02 -0.20268407725E+02  0.85830577461E+01  0.55939919814E+02  0.00000000000E+00 0.  1.
</event>
<event>
 7    1  0.2719869E-009  0.1196676E+03  0.7561462E-02  0.1243646E+00
         -1   -1    0    0    0  501 -0.00000000000E+00  0.00000000000E+00  0.32012410735E+02  0.32012410735E+02  0.00000000000E+00 0.  1.
          1   -1    0    0  501    0  0.00000000000E+00 -0.00000000000E+00 -0.70207289094E+03  0.70207289094E+03  0.00000000000E+00 0. -1.
         25    2    1    2    0    0  0.55819155442E+02  0.88001260887E+02 -0.37593126354E+03  0.40967299724E+03  0.12509056611E+03 0.  0.
          5    1    3    3  502    0  0.38484554798E+02  0.42194597960E+02 -0.39250228981E+02  0.69422603885E+02  0.41800000000E+01 0. -1.
         -5    1    3    3    0  502  0.17334600644E+02  0.45806662927E+02 -0.33668103456E+03  0.34025039335E+03  0.41800000000E+01 0. -1.
        -11    1    1    2    0    0 -0.18185974900E+02  0.14798841304E+02 -0.87358729571E+02  0.90450445103E+02  0.00000000000E+00 0.  1.
         11    1    1    2    0    0 -0.37633180542E+02 -0.10280010219E+03 -0.20677048709E+03  0.23396185933E+03  0.00000000000E+00 0. -1.
</event>
<event>
 7    1  0.2719869E-009  0.1042728E+03  0.7561462E-02  0.1271559E+00
          2   -1    0    0  501    0  0.00000000000E+00  0.00000000000E+00  0.33494188022E+03  0.33494188022E+03  0.00000000000E+00 0. -1.
         -2   -1    0    0    0  501 -0.00000000000E+00 -0.00000000000E+00 -0.63819677907E+02  0.63819677907E+02  0.00000000000E+00 0.  1.
         25    2    1    2    0    0 -0.41824195662E+02 -0.70206703832E+02  0.19724378451E+03  0.24744900692E+03  0.12509059074E+03 0.  0.
          5    1    3    3  502    0  0.19956150504E+01 -0.80130783480E+02  0.52684178679E+02  0.96010520380E+02  0.41800000000E+01 0.  1.
         -5    1    3    3    0  502 -0.43819810713E+02  0.99240796476E+01  0.14455960583E+03  0.15143848654E+03  0.41800000000E+01 0.  1.
        -11    1    1    2    0    0  0.23016828287E+02  0.23919167898E+02  0.92280149044E+02  0.98068990435E+02  0.00000000000E+00 0. -1.
         11    1    1    2    0    0  0.18807367375E+02  0.46287535934E+02 -0.18401731245E+02  0.53243560768E+02  0.00000000000E+00 0.  1.
</event>
<event>
 7    1  0.2719869E-009  0.1064529E+03  0.7561462E-02  0.1267283E+00
          1   -1    0    0  501    0  0.00000000000E+00  0.00000000000E+00  0.78047938914E+02  0.78047938914E+02  0.00000000000E+00 0. -1.
         -1   -1    0    0    0  501 -0.00000000000E+00 -0.00000000000E+00 -0.17908136171E+03  0.17908136171E+03  0.00000000000E+00 0.  1.
         25    2    1    2    0    0  0.38266656616E+02 -0.20571669426E+02 -0.33346385656E+02  0.13654822152E+03  0.12508359114E+03 0.  0.
          5    1    3    3  502    0  0.80579322125E+02 -0.18204161520E+02 -0.41637242968E+00  0.82716772282E+02  0.41800000000E+01 0. -1.
         -5    1    3    3    0  502 -0.42312665509E+02 -0.23675079058E+01 -0.32930013226E+02  0.53831449240E+02  0.41800000000E+01 0. -1.
        -11    1    1    2    0    0 -0.57064604092E+02  0.32179444239E+02 -0.20775987372E+02  0.68727922441E+02  0.00000000000E+00 0. -1.
         11    1    1    2    0    0  0.18797947476E+02 -0.11607774812E+02 -0.46911049772E+02  0.51853156665E+02  0.00000000000E+00 0.  1.
</event>
<event>
 7    1  0.2719869E-009  0.8678911E+02  0.7561462E-02  0.1310819E+00
         -2   -1    0    0    0  501 -0.00000000000E+00  0.00000000000E+00  0.19792225903E+02  0.19792225903E+02  0.00000000000E+00 0.  1.
          2   -1    0    0  501    0  0.00000000000E+00 -0.00000000000E+00 -0.68236147279E+03  0.68236147279E+03  0.00000000000E+00 0. -1.
         25    2    1    2    0    0  0.34244603654E+02 -0.16274075045E+02 -0.43553047684E+03  0.45472136982E+03  0.12508872658E+03 0.  0.
          5    1    3    3  502    0 -0.11855383945E+02  0.31214175295E+02 -0.31797508039E+03  0.31975068259E+03  0.41800000000E+01 0. -1.
         -5    1    3    3    0  502  0.46099987599E+02 -0.47488250339E+02 -0.11755539646E+03  0.13497068724E+03  0.41800000000E+01 0. -1.
        -11    1    1    2    0    0 -0.27484753728E+02 -0.21713822897E+02 -0.19245693262E+03  0.19561843652E+03  0.00000000000E+00 0. -1.
         11    1    1    2    0    0 -0.67598499262E+01  0.37987897942E+02 -0.34581837425E+02  0.51813892353E+02  0.00000000000E+00 0.  1.
</event>
<event>
 7    1  0.2719869E-009  0.1137604E+03  0.7561462E-02  0.1253760E+00
         -1   -1    0    0    0  501 -0.00000000000E+00  0.00000000000E+00  0.35702820104E+02  0.35702820104E+02  0.00000000000E+00 0.  1.
          1   -1    0    0  501    0  0.00000000000E+00 -0.00000000000E+00 -0.49740993234E+03  0.49740993234E+03  0.00000000000E+00 0. -1.
         25    2    1    2    0    0  0.31731769454E+02  0.68523301395E+02 -0.28722132550E+03  0.32225204339E+03  0.12509173281E+03 0.  0.
          5    1    3    3  502    0 -0.39758703872E+02  0.44476814030E+02 -0.68916089311E+02  0.91246048056E+02  0.41800000000E+01 0.  1.
         -5    1    3    3    0  502  0.71490473327E+02  0.24046487365E+02 -0.21830523619E+03  0.23100599533E+03  0.41800000000E+01 0.  1.
        -11    1    1    2    0    0  0.14621038662E+02 -0.22664109932E+02 -0.26874731027E+01  0.27104596700E+02  0.00000000000E+00 0.  1.
         11    1    1    2    0    0 -0.46352808117E+02 -0.45859191463E+02 -0.17179831363E+03  0.18375611235E+03  0.00000000000E+00 0. -1.
</event>
<event>
 7    1  0.2719869E-009  0.1261289E+03  0.7561462E-02  0.1233316E+00
         -2   -1    0    0    0  501 -0.00000000000E+00  0.00000000000E+00  0.19638100063E+03  0.19638100063E+03  0.00000000000E+00 0.  1.
          2   -1    0    0  501    0  0.00000000000E+00 -0.00000000000E+00 -0.13399304819E+03  0.13399304819E+03  0.00000000000E+00 0. -1.
         25    2    1    2    0    0  0.11944049122E+03 -0.12722259909E+02  0.45093603938E+02  0.17918917025E+03  0.12508972291E+03 0.  0.
          5    1    3    3  502    0  0.64026948726E+02 -0.33531851196E+02  0.81939590707E+02  0.10934077068E+03  0.41800000000E+01 0.  1.
         -5    1    3    3    0  502  0.55413542496E+02  0.20809591288E+02 -0.36845986769E+02  0.69848399570E+02  0.41800000000E+01 0.  1.
        -11    1    1    2    0    0 -0.33580620989E+02 -0.87211334422E+00 -0.35984647966E+02  0.49227162999E+02  0.00000000000E+00 0. -1.
         11    1    1    2    0    0 -0.85859870233E+02  0.13594373253E+02  0.53278996470E+02  0.10195771558E+03  0.00000000000E+00 0.  1.
</event>
<event>
 7    1  0.2719869E-009  0.8006237E+02  0.7561462E-02  0.1328875E+00
         -2   -1    0    0    0  501 -0.00000000000E+00  0.00000000000E+00  0.95868706072E+01  0.95868706072E+01  0.00000000000E+00 0.  1.
          2   -1    0    0  501    0  0.00000000000E+00 -0.00000000000E+00 -0.22681703519E+04  0.22681703519E+04  0.00000000000E+00 0. -1.
         25    2    1    2    0    0  0.33159986449E+02 -0.41149595309E+02 -0.18787208988E+04  0.18836220260E+04  0.12508735868E+03 0.  0.
          5    1    3    3  502    0  0.20488279646E+00 -0.13481391026E+02 -0.16881433676E+04  0.16882023848E+04  0.41800000000E+01 0.  1.
         -5    1    3    3    0  502  0.32955103653E+02 -0.27668204283E+02 -0.19057753114E+03  0.19541964118E+03  0.41800000000E+01 0.  1.
        -11    1    1    2    0    0 -0.53973897449E+02 -0.29053182732E+01 -0.24054204070E+03  0.24654025194E+03  0.00000000000E+00 0.  1.
         11    1    1    2    0    0  0.20813911000E+02  0.44054913582E+02 -0.13932054181E+03  0.14759494460E+03  0.00000000000E+00 0. -1.
</event>
<event>
 7    1  0.2719869E-009  0.1571417E+03  0.7561462E-02  0.1191962E+00
          2   -1    0    0  501    0  0.00000000000E+00  0.00000000000E+00  0.58771612818E+03  0.58771612818E+03  0.00000000000E+00 0. -1.
         -2   -1    0    0    0  501 -0.00000000000E+00 -0.00000000000E+00 -0.43654373296E+02  0.43654373296E+02  0.00000000000E+00 0.  1.
         25    2    1    2    0    0 -0.71274904898E+02 -0.86918306404E+02  0.24332695608E+03  0.29578795400E+03  0.12509037581E+03 0.  0.
          5    1    3    3  502    0 -0.25799101022E+02  0.30393537329E+02  0.80917547349E+02  0.90302173805E+02  0.41800000000E+01 0.  1.
         -5    1    3    3    0  502 -0.45475803875E+02 -0.11731184373E+03  0.16240940873E+03  0.20548578019E+03  0.41800000000E+01 0.  1.
        -11    1    1    2    0    0 -0.17476810032E+02 -0.72403630358E+01  0.29175824104E+02  0.34771978056E+02  0.00000000000E+00 0.  1.
         11    1    1    2    0    0  0.88751714930E+02  0.94158669440E+02  0.27155897470E+03  0.30081056942E+03  0.00000000000E+00 0. -1.
</event>
<event>
 7    1  0.2719869E-009  0.2365726E+03  0.7561462E-02  0.1122097E+00
         -2   -1    0    0    0  501 -0.00000000000E+00  0.00000000000E+00  0.68700495461E+03  0.68700495461E+03  0.00000000000E+00 0.  1.
          2   -1    0    0  501    0  0.00000000000E+00 -0.00000000000E+00 -0.12884791391E+03  0.12884791391E+03  0.00000000000E+00 0. -1.
         25    2    1    2    0    0  0.22413347103E+03 -0.48869217888E+01  0.50806741800E+03  0.56924497787E+03  0.12509056222E+03 0.  0.
          5    1    3    3  502    0  0.18382576624E+02 -0.17367963194E+02  0.17969671400E+03  0.18151569269E+03  0.41800000000E+01 0. -1.
         -5    1    3    3    0  502  0.20575089440E+03  0.12481041405E+02  0.32837070400E+03  0.38772928518E+03  0.41800000000E+01 0. -1.
        -11    1    1    2    0    0 -0.73328120437E+02  0.44038831712E+02  0.13943345719E+02  0.86665153523E+02  0.00000000000E+00 0.  1.
         11    1    1    2    0    0 -0.15080535059E+03 -0.39151909923E+02  0.36146276980E+02  0.15994273712E+03  0.00000000000E+00 0. -1.
</event>
<event>
 7    1  0.2719869E-009  0.1102060E+03  0.7561462E-02  0.1260189E+00
         -2   -1    0    0    0  501 -0.00000000000E+00  0.00000000000E+00  0.11747220873E+03  0.11747220873E+03  0.00000000000E+00 0.  1.
          2   -1    0    0  501    0  0.00000000000E+00 -0.00000000000E+00 -0.12992759945E+03  0.12992759945E+03  0.00000000000E+00 0. -1.
         25    2    1    2    0    0 -0.12010527537E+02  0.51407780331E+02 -0.30233547699E+02  0.13909964894E+03  0.12509049636E+03 0.  0.
          5    1    3    3  502    0 -0.44268770899E+02 -0.14427278573E+02  0.19244237796E+02  0.50553768725E+02  0.41800000000E+01 0. -1.
         -5    1    3    3    0  502  0.32258243361E+02  0.65835058904E+02 -0.49477785495E+02  0.88545880215E+02  0.41800000000E+01 0. -1.
        -11    1    1    2    0    0  0.47989518732E+02 -0.18369851856E+02  0.27818779858E+02  0.58432267439E+02  0.00000000000E+00 0.  1.
         11    1    1    2    0    0 -0.35978991195E+02 -0.33037928475E+02 -0.10040622875E+02  0.49867891804E+02  0.00000000000E+00 0. -1.
</event>
<event>
 7    1  0.2719869E-009  0.1012313E+03  0.7561462E-02  0.1277728E+00
         -2   -1    0    0    0  501 -0.00000000000E+00  0.00000000000E+00  0.83425466607E+02  0.83425466607E+02  0.00000000000E+00 0.  1.
          2   -1    0    0  501    0  0.00000000000E+00 -0.00000000000E+00 -0.17843419298E+03  0.17843419298E+03  0.00000000000E+00 0. -1.
         25    2    1    2    0    0 -0.57153114610E+02  0.11149059975E+02 -0.60296590705E+02  0.15058447940E+03  0.12509686862E+03 0.  0.
          5    1    3    3  502    0 -0.58905532863E+02  0.40739842731E+02  0.11627489289E+02  0.72679209508E+02  0.41800000000E+01 0. -1.
         -5    1    3    3    0  502  0.17524182530E+01 -0.29590782756E+02 -0.71924079994E+02  0.77905269891E+02  0.41800000000E+01 0. -1.
        -11    1    1    2    0    0  0.65502711956E+02  0.20037304929E+02 -0.72337071867E+01  0.68879789359E+02  0.00000000000E+00 0.  1.
         11    1    1    2    0    0 -0.83495973465E+01 -0.31186364904E+02 -0.27478428484E+02  0.42395390831E+02  0.00000000000E+00 0. -1.
</event>
<event>
 7    1  0.2719869E-009  0.7140505E+02  0.7561462E-02  0.1355379E+00
          1   -1    0    0  501    0  0.00000000000E+00  0.00000000000E+00  0.11244995517E+03  0.11244995517E+03  0.00000000000E+00 0. -1.
         -1   -1    0    0    0  501 -0.00000000000E+00 -0.00000000000E+00 -0.12448822475E+03  0.12448822475E+03  0.00000000000E+00 0.  1.
         25    2    1    2    0    0  0.25110598668E+02 -0.22953153842E+02  0.26652287369E+02  0.13234596386E+03  0.12509084815E+03 0.  0.
          5    1    3    3  502    0  0.30751468437E+02 -0.26237642285E+02 -0.44793255028E+02  0.60481193603E+02  0.41800000000E+01 0. -1.
         -5    1    3    3    0  502 -0.56408697690E+01  0.32844884436E+01  0.71445542396E+02  0.71864770259E+02  0.41800000000E+01 0. -1.
        -11    1    1    2    0    0 -0.47883259504E+02  0.42791668919E+02 -0.14347316894E+02  0.65801056007E+02  0.00000000000E+00 0. -1.
         11    1    1    2    0    0  0.22772660835E+02 -0.19838515077E+02 -0.24343240055E+02  0.38791160055E+02  0.00000000000E+00 0.  1.
</event>
<event>
 7    1  0.2719869E-009  0.1251920E+03  0.7561462E-02  0.1234769E+00
          1   -1    0    0  501    0  0.00000000000E+00  0.00000000000E+00  0.12522512194E+03  0.12522512194E+03  0.00000000000E+00 0. -1.
         -1   -1    0    0    0  501 -0.00000000000E+00 -0.00000000000E+00 -0.17322900367E+03  0.17322900367E+03  0.00000000000E+00 0.  1.
         25    2    1    2    0    0 -0.71858178065E+02  0.53564142128E+02 -0.69813725413E+02  0.16897219146E+03  0.12507969522E+03 0.  0.
          5    1    3    3  502    0 -0.97632217337E+02  0.23828522441E+02 -0.79526104954E+02  0.12822527876E+03  0.41800000000E+01 0.  1.
         -5    1    3    3    0  502  0.25774039273E+02  0.29735619688E+02  0.97123795411E+01  0.40746912705E+02  0.41800000000E+01 0.  1.
        -11    1    1    2    0    0 -0.12013608451E+02 -0.10448949505E+02  0.30878852841E+02  0.34742062209E+02  0.00000000000E+00 0. -1.
         11    1    1    2    0    0  0.83871786516E+02 -0.43115192623E+02 -0.90690091610E+01  0.94739871941E+02  0.00000000000E+00 0.  1.
</event>
<event>
 7    1  0.2719869E-009  0.1159197E+03  0.7561462E-02  0.1249984E+00
         -2   -1    0    0    0  501 -0.00000000000E+00  0.00000000000E+00  0.94225589747E+02  0.94225589747E+02  0.00000000000E+00 0. -1.
          2   -1    0    0  501    0  0.00000000000E+00 -0.00000000000E+00 -0.29028469542E+03  0.29028469542E+03  0.00000000000E+00 0.  1.
         25    2    1    2    0    0 -0.77861411112E+01  0.86873240154E+02 -0.20907578479E+03  0.25877969249E+03  0.12508661642E+03 0.  0.
          5    1    3    3  502    0  0.29142318939E+02  0.31979399389E+02 -0.44628607918E+01  0.43696066927E+02  0.41800000000E+01 0. -1.
         -5    1    3    3    0  502 -0.36928460050E+02  0.54893840766E+02 -0.20461292400E+03  0.21508362556E+03  0.41800000000E+01 0. -1.
        -11    1    1    2    0    0  0.46344024930E+02 -0.38706076719E+02  0.20069815754E+02  0.63629604164E+02  0.00000000000E+00 0.  1.
         11    1    1    2    0    0 -0.38557883818E+02 -0.48167163435E+02 -0.70531366321E+01  0.62100988513E+02  0.00000000000E+00 0. -1.
</event>
<event>
 7    1  0.2719869E-009  0.1720826E+03  0.7561462E-02  0.1175693E+00
          2   -1    0    0  501    0  0.00000000000E+00  0.00000000000E+00  0.18921563536E+03  0.18921563536E+03  0.00000000000E+00 0. -1.
         -2   -1    0    0    0  501 -0.00000000000E+00 -0.00000000000E+00 -0.17595784475E+03  0.17595784475E+03  0.00000000000E+00 0.  1.
         25    2    1    2    0    0  0.11353849077E+03  0.73805428529E+02  0.62637592601E+02  0.19470122187E+03  0.12508743990E+03 0.  0.
          5    1    3    3  502    0  0.79276918982E+02 -0.20510943354E+02  0.14264775198E+02  0.83225506259E+02  0.41800000000E+01 0. -1.
         -5    1    3    3    0  502  0.34261571791E+02  0.94316371883E+02  0.48372817403E+02  0.11147571561E+03  0.41800000000E+01 0. -1.
        -11    1    1    2    0    0 -0.39604467304E+01 -0.49292356692E+02 -0.25642606928E+02  0.55704262464E+02  0.00000000000E+00 0.  1.
         11    1    1    2    0    0 -0.10957804404E+03 -0.24513071836E+02 -0.23737195061E+02  0.11476799578E+03  0.00000000000E+00 0. -1.
</event>
<event>
 7    1  0.2719869E-009  0.1117890E+03  0.7561462E-02  0.1257292E+00
         -1   -1    0    0    0  501 -0.00000000000E+00  0.00000000000E+00  0.32695782589E+03  0.32695782589E+03  0.00000000000E+00 0.  1.
          1   -1    0    0  501    0  0.00000000000E+00 -0.00000000000E+00 -0.72699521747E+02  0.72699521747E+02  0.00000000000E+00 0. -1.
         25    2    1    2    0    0  0.84691279995E+02  0.46057876826E+02  0.70721342649E+02  0.17304097811E+03  0.12509089045E+03 0.  0.
          5    1    3    3  502    0  0.30787385782E+02  0.58074468081E+02 -0.18155163190E+02  0.68319757879E+02  0.41800000000E+01 0.  1.
         -5    1    3    3    0  502  0.53903894213E+02 -0.12016591255E+02  0.88876505840E+02  0.10472122023E+03  0.41800000000E+01 0.  1.
        -11    1    1    2    0    0 -0.24513943958E+02 -0.32388008784E+02  0.91560540649E+01  0.41638322341E+02  0.00000000000E+00 0. -1.
         11    1    1    2    0    0 -0.60177336037E+02 -0.13669868042E+02  0.17438090743E+03  0.18497804719E+03  0.00000000000E+00 0.  1.
</event>
<event>
 7    1  0.2719869E-009  0.1265483E+03  0.7561462E-02  0.1232669E+00
         -1   -1    0    0    0  501 -0.00000000000E+00  0.00000000000E+00  0.18319350928E+03  0.18319350928E+03  0.00000000000E+00 0.  1.
          1   -1    0    0  501    0  0.00000000000E+00 -0.00000000000E+00 -0.95592734057E+02  0.95592734057E+02  0.00000000000E+00 0. -1.
         25    2    1    2    0    0  0.54755129764E+02 -0.50203421043E+02  0.51239122537E+02  0.15424446183E+03  0.12508956235E+03 0.  0.
          5    1    3    3  502    0 -0.30631192169E+01  0.32558807957E+02 -0.11951254787E+02  0.35067984914E+02  0.41800000000E+01 0.  1.
         -5    1    3    3    0  502  0.57818248981E+02 -0.82762229001E+02  0.63190377323E+02  0.11917647692E+03  0.41800000000E+01 0.  1.
        -11    1    1    2    0    0  0.76287439485E+01  0.55920166042E+02  0.18675834995E+02  0.59447872268E+02  0.00000000000E+00 0. -1.
         11    1    1    2    0    0 -0.62383873712E+02 -0.57167449986E+01  0.17685817696E+02  0.65093909241E+02  0.00000000000E+00 0.  1.
</event>
<event>
 7    1  0.2719869E-009  0.6649488E+02  0.7561462E-02  0.1372435E+00
          2   -1    0    0  501    0  0.00000000000E+00  0.00000000000E+00  0.13216333956E+03  0.13216333956E+03  0.00000000000E+00 0. -1.
         -2   -1    0    0    0  501 -0.00000000000E+00 -0.00000000000E+00 -0.11644555667E+03  0.11644555667E+03  0.00000000000E+00 0.  1.
         25    2    1    2    0    0  0.58024990774E+02  0.12439351858E+01  0.50425194953E+00  0.13790310262E+03  0.12509422254E+03 0.  0.
          5    1    3    3  502    0 -0.39623703824E+00 -0.13838511786E+02 -0.54356386041E+02  0.56247226738E+02  0.41800000000E+01 0.  1.
         -5    1    3    3    0  502  0.58421227813E+02  0.15082446972E+02  0.54860637990E+02  0.81655875885E+02  0.41800000000E+01 0.  1.
        -11    1    1    2    0    0 -0.29141067480E+02 -0.12365157086E+00 -0.39345797603E+02  0.48962321152E+02  0.00000000000E+00 0.  1.
         11    1    1    2    0    0 -0.28883923294E+02 -0.11202836150E+01  0.54559328542E+02  0.61743472458E+02  0.00000000000E+00 0. -1.
</event>
<event>
 7    1  0.2719869E-009  0.1278212E+03  0.7561462E-02  0.1230725E+00
          1   -1    0    0  501    0  0.00000000000E+00  0.00000000000E+00  0.76509224006E+03  0.76509224006E+03  0.00000000000E+00 0. -1.
         -1   -1    0    0    0  501 -0.00000000000E+00 -0.00000000000E+00 -0.25612859922E+02  0.25612859922E+02  0.00000000000E+00 0.  1.
         25    2    1    2    0    0  0.59920718669E+02 -0.28745825157E+02  0.25457680666E+03  0.29133075047E+03  0.12508973055E+03 0.  0.
          5    1    3    3  502    0 -0.23846777952E+02 -0.47518208667E+02  0.72641063069E+02  0.90115733462E+02  0.41800000000E+01 0. -1.
         -5    1    3    3    0  502  0.83767496621E+02  0.18772383510E+02  0.18193574359E+03  0.20121501701E+03  0.41800000000E+01 0. -1.
        -11    1    1    2    0    0 -0.43354232941E+02 -0.31689029700E+02  0.16937033426E+03  0.17767975192E+03  0.00000000000E+00 0.  1.
         11    1    1    2    0    0 -0.16566485727E+02  0.60434854858E+02  0.31553223922E+03  0.32169459759E+03  0.00000000000E+00 0. -1.
</event>
<event>
 7    1  0.2719869E-009  0.1669029E+03  0.7561462E-02  0.1181117E+00
          2   -1    0    0  501    0  0.00000000000E+00  0.00000000000E+00  0.51657440237E+03  0.51657440237E+03  0.00000000000E+00 0.  1.
         -2   -1    0    0    0  501 -0.00000000000E+00 -0.00000000000E+00 -0.80607005855E+02  0.80607005855E+02  0.00000000000E+00 0. -1.
         25    2    1    2    0    0  0.15202690301E+03  0.18074611484E+01  0.10129981131E+03  0.22141569668E+03  0.12509121796E+03 0.  0.
          5    1    3    3  502    0  0.42662665388E+02 -0.25877026645E+02  0.96150352176E+02  0.10840703921E+03  0.41800000000E+01 0.  1.
         -5    1    3    3    0  502  0.10936423762E+03  0.27684487794E+02  0.51494591348E+01  0.11300865747E+03  0.41800000000E+01 0.  1.
        -11    1    1    2    0    0 -0.10751907761E+03  0.35015255983E+02  0.22482602274E+03  0.25166080486E+03  0.00000000000E+00 0. -1.
         11    1    1    2    0    0 -0.44507825404E+02 -0.36822717131E+02  0.10984156246E+03  0.12410490669E+03  0.00000000000E+00 0.  1.
</event>
<event>
 7    1  0.2719869E-009  0.1167592E+03  0.7561462E-02  0.1248541E+00
         -2   -1    0    0    0  501 -0.00000000000E+00  0.00000000000E+00  0.91643101897E+02  0.91643101897E+02  0.00000000000E+00 0.  1.
          2   -1    0    0  501    0  0.00000000000E+00 -0.00000000000E+00 -0.21062301568E+03  0.21062301568E+03  0.00000000000E+00 0. -1.
         25    2    1    2    0    0  0.34005125446E+02 -0.50279752387E+02 -0.13184328649E+03  0.19160954717E+03  0.12508862585E+03 0.  0.
          5    1    3    3  502    0  0.23845030143E+02 -0.86217174757E+02 -0.52472998490E+02  0.10379245953E+03  0.41800000000E+01 0.  1.
         -5    1    3    3    0  502  0.10160095303E+02  0.35937422370E+02 -0.79370288001E+02  0.87817087634E+02  0.41800000000E+01 0.  1.
        -11    1    1    2    0    0 -0.28199039182E+02  0.75454710869E+02  0.21575724916E+02  0.83391313149E+02  0.00000000000E+00 0.  1.
         11    1    1    2    0    0 -0.58060862644E+01 -0.25174958482E+02 -0.87123522024E+01  0.27265257255E+02  0.00000000000E+00 0. -1.
</event>
<event>
 7    1  0.2719869E-009  0.1143198E+03  0.7561462E-02  0.1252773E+00
         -1   -1    0    0    0  501 -0.00000000000E+00  0.00000000000E+00  0.59986856576E+02  0.59986856576E+02  0.00000000000E+00 0.  1.
          1   -1    0    0  501    0  0.00000000000E+00 -0.00000000000E+00 -0.28176483537E+03  0.28176483537E+03  0.00000000000E+00 0. -1.
         25    2    1    2    0    0 -0.56283185019E+02  0.44574217950E+02 -0.12756097316E+03  0.19254683565E+03  0.12509126359E+03 0.  0.
          5    1    3    3  502    0 -0.94391509928E+00  0.66547791103E+02 -0.20146747410E+02  0.69662495704E+02  0.41800000000E+01 0.  1.
         -5    1    3    3    0  502 -0.55339269920E+02 -0.21973573153E+02 -0.10741422575E+03  0.12288433995E+03  0.41800000000E+01 0.  1.
        -11    1    1    2    0    0  0.47699994528E+02 -0.64701723326E+02 -0.38067200925E+02  0.88942196204E+02  0.00000000000E+00 0.  1.
         11    1    1    2    0    0  0.85831904920E+01  0.20127505376E+02 -0.56149804707E+02  0.60262660084E+02  0.00000000000E+00 0. -1.
</event>
<event>
 7    1  0.2719869E-009  0.1198615E+03  0.7561462E-02  0.1243326E+00
         -1   -1    0    0    0  501 -0.00000000000E+00  0.00000000000E+00  0.47921794842E+02  0.47921794842E+02  0.00000000000E+00 0.  1.
          1   -1    0    0  501    0  0.00000000000E+00 -0.00000000000E+00 -0.45080781497E+03  0.45080781497E+03  0.00000000000E+00 0. -1.
         25    2    1    2    0    0 -0.87120085486E+01  0.88341067844E+02 -0.16232329466E+03  0.22333008542E+03  0.12508969463E+03 0.  0.
          5    1    3    3  502    0 -0.62523215141E+02  0.57786813627E+02 -0.62077866139E+02  0.10544952406E+03  0.41800000000E+01 0. -1.
         -5    1    3    3    0  502  0.53811206592E+02  0.30554254217E+02 -0.10024542852E+03  0.11788056136E+03  0.41800000000E+01 0. -1.
        -11    1    1    2    0    0  0.17724220672E+02 -0.49184128567E+02 -0.28460651638E+02  0.59525080369E+02  0.00000000000E+00 0.  1.
         11    1    1    2    0    0 -0.90122121237E+01 -0.39156939277E+02 -0.21210207383E+03  0.21587444403E+03  0.00000000000E+00 0. -1.
</event>
<event>
 7    1  0.2719869E-009  0.1472839E+03  0.7561462E-02  0.1203851E+00
          1   -1    0    0  501    0  0.00000000000E+00  0.00000000000E+00  0.54573243036E+03  0.54573243036E+03  0.00000000000E+00 0. -1.
         -1   -1    0    0    0  501 -0.00000000000E+00 -0.00000000000E+00 -0.45697224800E+02  0.45697224800E+02  0.00000000000E+00 0.  1.
         25    2    1    2    0    0 -0.11494321864E+03 -0.19758621843E+02  0.26062771790E+03  0.31173201925E+03  0.12509075840E+03 0.  0.
          5    1    3    3  502    0  0.90361065219E+01  0.28989820954E+02  0.90882099372E+02  0.95911883133E+02  0.41800000000E+01 0. -1.
         -5    1    3    3    0  502 -0.12397932516E+03 -0.48748442797E+02  0.16974561853E+03  0.21582013612E+03  0.41800000000E+01 0. -1.
        -11    1    1    2    0    0  0.94112862783E+02  0.39375732502E+02  0.12288566744E+03  0.15971401477E+03  0.00000000000E+00 0.  1.
         11    1    1    2    0    0  0.20830355857E+02 -0.19617110659E+02  0.11652182021E+03  0.11998362114E+03  0.00000000000E+00 0. -1.
</event>
<event>
 7    1  0.2719869E-009  0.1085428E+03  0.7561462E-02  0.1263293E+00
         -2   -1    0    0    0  501 -0.00000000000E+00  0.00000000000E+00  0.67104330587E+02  0.67104330587E+02  0.00000000000E+00 0.  1.
          2   -1    0    0  501    0  0.00000000000E+00 -0.00000000000E+00 -0.30921071123E+03  0.30921071123E+03  0.00000000000E+00 0. -1.
         25    2    1    2    0    0  0.31836132157E+02  0.89213871915E+02 -0.12335525195E+03  0.19959289681E+03  0.12509257380E+03 0.  0.
          5    1    3    3  502    0  0.26695384265E+02  0.37571260090E+01  0.19125884626E+02  0.33317133725E+02  0.41800000000E+01 0.  1.
         -5    1    3    3    0  502  0.51407478919E+01  0.85456745906E+02 -0.14248113657E+03  0.16627576308E+03  0.41800000000E+01 0.  1.
        -11    1    1    2    0    0 -0.32812948682E+02 -0.28768667420E+02 -0.10642616925E+03  0.11502545513E+03  0.00000000000E+00 0. -1.
         11    1    1    2    0    0  0.97681652471E+00 -0.60445204495E+02 -0.12324959447E+02  0.61696689882E+02  0.00000000000E+00 0.  1.
</event>
<event>
 7    1  0.2719869E-009  0.1123127E+03  0.7561462E-02  0.1256346E+00
         -3   -1    0    0    0  501 -0.00000000000E+00  0.00000000000E+00  0.53729284997E+03  0.53729284997E+03  0.00000000000E+00 0.  1.
          3   -1    0    0  501    0  0.00000000000E+00 -0.00000000000E+00 -0.35028373082E+02  0.35028373082E+02  0.00000000000E+00 0. -1.
         25    2    1    2    0    0  0.46054059962E+02 -0.30768052865E+02  0.39233297414E+03  0.41550070256E+03  0.12509205298E+03 0.  0.
          5    1    3    3  502    0  0.34395305103E+02  0.40216447823E+02  0.25441139473E+03  0.25989041894E+03  0.41800000000E+01 0. -1.
         -5    1    3    3    0  502  0.11658754858E+02 -0.70984500688E+02  0.13792157941E+03  0.15561028362E+03  0.41800000000E+01 0. -1.
        -11    1    1    2    0    0 -0.69772058438E+02  0.29442453071E+02  0.45970172279E+02  0.88590377135E+02  0.00000000000E+00 0.  1.
         11    1    1    2    0    0  0.23717998477E+02  0.13255997940E+01  0.63961330474E+02  0.68230143358E+02  0.00000000000E+00 0. -1.
</event>
<event>
 7    1  0.2719869E-009  0.1426173E+03  0.7561462E-02  0.1209850E+00
          1   -1    0    0  501    0  0.00000000000E+00  0.00000000000E+00  0.23804828862E+03  0.23804828862E+03  0.00000000000E+00 0. -1.
         -1   -1    0    0    0  501 -0.00000000000E+00 -0.00000000000E+00 -0.10757431694E+03  0.10757431694E+03  0.00000000000E+00 0.  1.
         25    2    1    2    0    0  0.20157138649E+02  0.10830475023E+03  0.49633147098E+02  0.17391623645E+03  0.12508868394E+03 0.  0.
          5    1    3    3  502    0 -0.31206202038E+02  0.29301423221E+02  0.65407272778E+02  0.78281442122E+02  0.41800000000E+01 0.  1.
         -5    1    3    3    0  502  0.51363340687E+02  0.79003327009E+02 -0.15774125680E+02  0.95634794327E+02  0.41800000000E+01 0.  1.
        -11    1    1    2    0    0 -0.55760734384E+02 -0.94477123809E+02  0.75419983620E+02  0.13312911159E+03  0.00000000000E+00 0.  1.
         11    1    1    2    0    0  0.35603595735E+02 -0.13827626421E+02  0.54208409652E+01  0.38577257529E+02  0.00000000000E+00 0. -1.
</event>
<event>
 7    1  0.2719869E-009  0.1092551E+03  0.7561462E-02  0.1261956E+00
          2   -1    0    0  501    0  0.00000000000E+00  0.00000000000E+00  0.26753009974E+03  0.26753009974E+03  0.00000000000E+00 0. -1.
         -2   -1    0    0    0  501 -0.00000000000E+00 -0.00000000000E+00 -0.13391279721E+03  0.13391279721E+03  0.00000000000E+00 0.  1.
         25    2    1    2    0    0  0.88034654558E+02 -0.26530146270E+02  0.20263351405E+03  0.25526799597E+03  0.12508980649E+03 0.  0.
          5    1    3    3  502    0  0.74984005751E+01  0.27791602751E+02  0.13179401808E+03  0.13496568007E+03  0.41800000000E+01 0.  1.
         -5    1    3    3    0  502  0.80536253983E+02 -0.54321749021E+02  0.70839495964E+02  0.12030231590E+03  0.41800000000E+01 0.  1.
        -11    1    1    2    0    0 -0.28073138029E+02  0.11749593651E+02  0.21025783316E+02  0.36989695779E+02  0.00000000000E+00 0.  1.
         11    1    1    2    0    0 -0.59961516529E+02  0.14780552618E+02 -0.90041994841E+02  0.10918520520E+03  0.00000000000E+00 0. -1.
</event>
<event>
 7    1  0.2719869E-009  0.1854656E+03  0.7561462E-02  0.1162616E+00
          4   -1    0    0  501    0  0.00000000000E+00  0.00000000000E+00  0.84654327877E+02  0.84654327877E+02  0.00000000000E+00 0. -1.
         -4   -1    0    0    0  501 -0.00000000000E+00 -0.00000000000E+00 -0.49578425086E+03  0.49578425086E+03  0.00000000000E+00 0.  1.
         25    2    1    2    0    0  0.95466657902E+02  0.14183062017E+03 -0.17341172575E+03  0.27376821987E+03  0.12509038330E+03 0.  0.
          5    1    3    3  502    0  0.48948489303E+02  0.11074780350E+03 -0.37648623070E+02  0.12686970405E+03  0.41800000000E+01 0.  1.
         -5    1    3    3    0  502  0.46518168599E+02  0.31082816669E+02 -0.13576310268E+03  0.14689851582E+03  0.41800000000E+01 0.  1.
        -11    1    1    2    0    0 -0.10515959391E+03 -0.14845934222E+03 -0.22520901678E+03  0.28951307004E+03  0.00000000000E+00 0.  1.
         11    1    1    2    0    0  0.96929360076E+01  0.66287220489E+01 -0.12509180460E+02  0.17157288837E+02  0.00000000000E+00 0. -1.
</event>
<event>
 7    1  0.2719869E-009  0.1319376E+03  0.7561462E-02  0.1224609E+00
          1   -1    0    0  501    0  0.00000000000E+00  0.00000000000E+00  0.19084198878E+03  0.19084198878E+03  0.00000000000E+00 0. -1.
         -1   -1    0    0    0  501 -0.00000000000E+00 -0.00000000000E+00 -0.15067436823E+03  0.15067436823E+03  0.00000000000E+00 0.  1.
         25    2    1    2    0    0  0.91155089320E+02 -0.49703812049E+02  0.10053792643E+03  0.19114128515E+03  0.12508955591E+03 0.  0.
          5    1    3    3  502    0  0.66643590069E+02  0.29020979965E+02  0.19315465702E+02  0.75326920757E+02  0.41800000000E+01 0.  1.
         -5    1    3    3    0  502  0.24511499250E+02 -0.78724792013E+02  0.81222460727E+02  0.11581436439E+03  0.41800000000E+01 0.  1.
        -11    1    1    2    0    0 -0.60746776477E+02  0.15402123439E+02  0.12865832105E+02  0.63975979044E+02  0.00000000000E+00 0. -1.
         11    1    1    2    0    0 -0.30408312842E+02  0.34301688609E+02 -0.73236137992E+02  0.86399092815E+02  0.00000000000E+00 0.  1.
</event>
<event>
 7    1  0.2719869E-009  0.1287759E+03  0.7561462E-02  0.1229283E+00
         -2   -1    0    0    0  501 -0.00000000000E+00  0.00000000000E+00  0.13305490688E+03  0.13305490688E+03  0.00000000000E+00 0.  1.
          2   -1    0    0  501    0  0.00000000000E+00 -0.00000000000E+00 -0.15912750575E+03  0.15912750575E+03  0.00000000000E+00 0. -1.
         25    2    1    2    0    0 -0.92790709368E+02 -0.18774893318E+02  0.52660852254E+01  0.15696385104E+03  0.12508919424E+03 0.  0.
          5    1    3    3  502    0  0.70561539566E+01 -0.48662788908E+02 -0.13083974659E+02  0.51054080403E+02  0.41800000000E+01 0. -1.
         -5    1    3    3    0  502 -0.99846863325E+02  0.29887895589E+02  0.18350059885E+02  0.10590977064E+03  0.41800000000E+01 0. -1.
        -11    1    1    2    0    0  0.50225030629E+01 -0.10280839072E+02 -0.40714468060E+02  0.42291714300E+02  0.00000000000E+00 0. -1.
         11    1    1    2    0    0  0.87768206306E+02  0.29055732391E+02  0.93757839678E+01  0.92926847293E+02  0.00000000000E+00 0.  1.
</event>
<event>
 7    1  0.2719869E-009  0.1005160E+03  0.7561462E-02  0.1279215E+00
          2   -1    0    0  501    0  0.00000000000E+00  0.00000000000E+00  0.10586503564E+03  0.10586503564E+03  0.00000000000E+00 0. -1.
         -2   -1    0    0    0  501 -0.00000000000E+00 -0.00000000000E+00 -0.13925662266E+03  0.13925662266E+03  0.00000000000E+00 0.  1.
         25    2    1    2    0    0 -0.49054355763E+02 -0.14574731470E+02 -0.88136874027E+01  0.13544105653E+03  0.12509135099E+03 0.  0.
          5    1    3    3  502    0 -0.64851291916E+02  0.91545221792E+01  0.41367311450E+02  0.77577201523E+02  0.41800000000E+01 0.  1.
         -5    1    3    3    0  502  0.15796936153E+02 -0.23729253649E+02 -0.50180998853E+02  0.57863855008E+02  0.41800000000E+01 0.  1.
        -11    1    1    2    0    0 -0.87246312869E+01  0.41814505497E+02 -0.13875170068E+02  0.44912051896E+02  0.00000000000E+00 0.  1.
         11    1    1    2    0    0  0.57778987050E+02 -0.27239774028E+02 -0.10702729546E+02  0.64768549878E+02  0.00000000000E+00 0. -1.
</event>
<event>
 7    1  0.2719869E-009  0.1126021E+03  0.7561462E-02  0.1255826E+00
          2   -1    0    0  501    0  0.00000000000E+00  0.00000000000E+00  0.39332628240E+03  0.39332628240E+03  0.00000000000E+00 0. -1.
         -2   -1    0    0    0  501 -0.00000000000E+00 -0.00000000000E+00 -0.61973837518E+02  0.61973837518E+02  0.00000000000E+00 0.  1.
         25    2    1    2    0    0 -0.60346366283E+02  0.30496180059E+01  0.40757676727E+02  0.14480610069E+03  0.12512647399E+03 0.  0.
          5    1    3    3  502    0  0.26449510976E+02 -0.23510404157E+02  0.40494729301E+02  0.53940812338E+02  0.41800000000E+01 0.  1.
         -5    1    3    3    0  502 -0.86795877260E+02  0.26560022163E+02  0.26294742607E+00  0.90865288355E+02  0.41800000000E+01 0.  1.
        -11    1    1    2    0    0  0.17042531849E+02  0.36358325072E+02  0.57332899667E+02  0.69995979014E+02  0.00000000000E+00 0.  1.
         11    1    1    2    0    0  0.43303834434E+02 -0.39407943078E+02  0.23326186849E+03  0.24049804021E+03  0.00000000000E+00 0. -1.
</event>
<event>
 7    1  0.2719869E-009  0.1246884E+03  0.7561462E-02  0.1235557E+00
         -3   -1    0    0    0  501 -0.00000000000E+00  0.00000000000E+00  0.13602945247E+02  0.13602945247E+02  0.00000000000E+00 0.  1.
          3   -1    0    0  501    0  0.00000000000E+00 -0.00000000000E+00 -0.14403923499E+04  0.14403923499E+04  0.00000000000E+00 0. -1.
         25    2    1    2    0    0  0.69656515447E+02 -0.78982790983E+01 -0.10847895451E+04  0.10942258067E+04  0.12508935190E+03 0.  0.
          5    1    3    3  502    0  0.85435218555E+02  0.38798723225E+02 -0.71207055122E+03  0.71823844217E+03  0.41800000000E+01 0. -1.
         -5    1    3    3    0  502 -0.15778703108E+02 -0.46697002323E+02 -0.37271899386E+03  0.37598736452E+03  0.41800000000E+01 0. -1.
        -11    1    1    2    0    0 -0.83085415040E+02 -0.99158108818E+01 -0.30753139632E+03  0.31871157685E+03  0.00000000000E+00 0. -1.
         11    1    1    2    0    0  0.13428899593E+02  0.17814089980E+02 -0.34468463251E+02  0.41057911600E+02  0.00000000000E+00 0.  1.
</event>
<event>
 7    1  0.2719869E-009  0.1116166E+03  0.7561462E-02  0.1257605E+00
          2   -1    0    0  501    0  0.00000000000E+00  0.00000000000E+00  0.40942032668E+03  0.40942032668E+03  0.00000000000E+00 0. -1.
         -2   -1    0    0    0  501 -0.00000000000E+00 -0.00000000000E+00 -0.31738489082E+02  0.31738489082E+02  0.00000000000E+00 0.  1.
         25    2    1    2    0    0  0.25215225063E+02  0.23623306651E+02  0.18519314054E+03  0.22613800416E+03  0.12509208380E+03 0.  0.
          5    1    3    3  502    0  0.70113890989E+02  0.40070870508E+02  0.12883239431E+03  0.15210815427E+03  0.41800000000E+01 0. -1.
         -5    1    3    3    0  502 -0.44898665925E+02 -0.16447563857E+02  0.56360746232E+02  0.74029849888E+02  0.41800000000E+01 0. -1.
        -11    1    1    2    0    0  0.19891082793E+02 -0.41365435696E+02  0.75054150762E+02  0.87976587747E+02  0.00000000000E+00 0. -1.
         11    1    1    2    0    0 -0.45106307856E+02  0.17742129045E+02  0.11743454630E+03  0.12704422386E+03  0.00000000000E+00 0.  1.
</event>
<event>
 7    1  0.2990362E-009  0.1227111E+03  0.7561462E-02  0.1238690E+00
         -2   -1    0    0    0  501 -0.00000000000E+00  0.00000000000E+00  0.55477432584E+02  0.55477432584E+02  0.00000000000E+00 0. -1.
          2   -1    0    0  501    0  0.00000000000E+00 -0.00000000000E+00 -0.34529839475E+03  0.34529839475E+03  0.00000000000E+00 0.  1.
         25    2    1    2    0    0  0.24355647752E+02 -0.79850154699E+02 -0.13165171778E+03  0.19987195427E+03  0.12508948208E+03 0.  0.
          5    1    3    3  502    0  0.70325956212E+02 -0.27576886150E+02 -0.42804600877E+02  0.86924858487E+02  0.41800000000E+01 0. -1.
         -5    1    3    3    0  502 -0.45970308459E+02 -0.52273268549E+02 -0.88847116900E+02  0.11294709578E+03  0.41800000000E+01 0. -1.
        -11    1    1    2    0    0  0.17464095426E+02  0.32201851031E+02 -0.12313817275E+03  0.12847164445E+03  0.00000000000E+00 0.  1.
         11    1    1    2    0    0 -0.41819743178E+02  0.47648303668E+02 -0.35031071640E+02  0.72432228615E+02  0.00000000000E+00 0. -1.
</event>
<event>
 7    1  0.2719869E-009  0.1649097E+03  0.7561462E-02  0.1183263E+00
         -2   -1    0    0    0  501 -0.00000000000E+00  0.00000000000E+00  0.38610978693E+03  0.38610978693E+03  0.00000000000E+00 0.  1.
          2   -1    0    0  501    0  0.00000000000E+00 -0.00000000000E+00 -0.71394522867E+02  0.71394522867E+02  0.00000000000E+00 0. -1.
         25    2    1    2    0    0  0.39154365194E+02 -0.11793273566E+03  0.19240177181E+03  0.26097421925E+03  0.12509159390E+03 0.  0.
          5    1    3    3  502    0  0.60353759750E+02 -0.13535142651E+03  0.15618484286E+03  0.21534568144E+03  0.41800000000E+01 0. -1.
         -5    1    3    3    0  502 -0.21199394556E+02  0.17418690851E+02  0.36216928943E+02  0.45628537809E+02  0.41800000000E+01 0. -1.
        -11    1    1    2    0    0  0.29732038243E+02  0.39061455486E+02  0.37528714845E+02  0.61791551532E+02  0.00000000000E+00 0. -1.
         11    1    1    2    0    0 -0.68886403437E+02  0.78871280177E+02  0.84784777411E+02  0.13473853902E+03  0.00000000000E+00 0.  1.
</event>
<event>
 7    1  0.2719869E-009  0.1612735E+03  0.7561462E-02  0.1187266E+00
          1   -1    0    0  501    0  0.00000000000E+00  0.00000000000E+00  0.21866174904E+03  0.21866174904E+03  0.00000000000E+00 0. -1.
         -1   -1    0    0    0  501 -0.00000000000E+00 -0.00000000000E+00 -0.18279335403E+03  0.18279335403E+03  0.00000000000E+00 0.  1.
         25    2    1    2    0    0  0.12567808805E+03 -0.81218904026E+02 -0.55837090405E+02  0.20287784205E+03  0.12510054334E+03 0.  0.
          5    1    3    3  502    0  0.77312397132E+02 -0.93583037872E+02  0.80098759335E+01  0.12172354842E+03  0.41800000000E+01 0. -1.
         -5    1    3    3    0  502  0.48365690916E+02  0.12364133846E+02 -0.63846966339E+02  0.81154293628E+02  0.41800000000E+01 0. -1.
        -11    1    1    2    0    0 -0.65000780411E+02  0.53929197373E+02  0.10071105168E+03  0.13143886683E+03  0.00000000000E+00 0. -1.
         11    1    1    2    0    0 -0.60677307636E+02  0.27289706653E+02 -0.90055662653E+01  0.67138394194E+02  0.00000000000E+00 0.  1.
</event>
<event>
 7    1  0.2719869E-009  0.1202467E+03  0.7561462E-02  0.1242691E+00
         -1   -1    0    0    0  501 -0.00000000000E+00  0.00000000000E+00  0.17332730875E+03  0.17332730875E+03  0.00000000000E+00 0.  1.
          1   -1    0    0  501    0  0.00000000000E+00 -0.00000000000E+00 -0.12045345768E+03  0.12045345768E+03  0.00000000000E+00 0. -1.
         25    2    1    2    0    0 -0.72013326045E+02 -0.97811969033E+01  0.90438359752E+02  0.17061160176E+03  0.12509049045E+03 0.  0.
          5    1    3    3  502    0  0.28348789000E+02  0.15462605186E+01 -0.77118881347E+01  0.29715154013E+02  0.41800000000E+01 0.  1.
         -5    1    3    3    0  502 -0.10036211505E+03 -0.11327457422E+02  0.98150247887E+02  0.14089644775E+03  0.41800000000E+01 0.  1.
        -11    1    1    2    0    0  0.25125511646E+02  0.45358810373E+02  0.25921646937E+01  0.51917553214E+02  0.00000000000E+00 0.  1.
         11    1    1    2    0    0  0.46887814399E+02 -0.35577613470E+02 -0.40156673376E+02  0.71251611462E+02  0.00000000000E+00 0. -1.
</event>
<event>
 7    1  0.2719869E-009  0.1262145E+03  0.7561462E-02  0.1233183E+00
         -1   -1    0    0    0  501 -0.00000000000E+00  0.00000000000E+00  0.12816846544E+03  0.12816846544E+03  0.00000000000E+00 0.  1.
          1   -1    0    0  501    0  0.00000000000E+00 -0.00000000000E+00 -0.21144702170E+03  0.21144702170E+03  0.00000000000E+00 0. -1.
         25    2    1    2    0    0  0.84780925020E+02  0.72132145757E+02 -0.99750048998E+02  0.19490635227E+03  0.12509021617E+03 0.  0.
          5    1    3    3  502    0  0.66922231275E+02  0.92150841619E+02 -0.26807476281E+02  0.11707465923E+03  0.41800000000E+01 0.  1.
         -5    1    3    3    0  502  0.17858693745E+02 -0.20018695862E+02 -0.72942572717E+02  0.77831693036E+02  0.41800000000E+01 0.  1.
        -11    1    1    2    0    0 -0.59576553833E+02 -0.50616850122E+02 -0.33252827883E+02  0.84953998406E+02  0.00000000000E+00 0. -1.
         11    1    1    2    0    0 -0.25204371188E+02 -0.21515295634E+02  0.49724320614E+02  0.59755136463E+02  0.00000000000E+00 0.  1.
</event>
<event>
 7    1  0.2719869E-009  0.1096053E+03  0.7561462E-02  0.1261303E+00
         -1   -1    0    0    0  501 -0.00000000000E+00  0.00000000000E+00  0.17256051736E+04  0.17256051736E+04  0.00000000000E+00 0.  1.
          1   -1    0    0  501    0  0.00000000000E+00 -0.00000000000E+00 -0.10149535846E+02  0.10149535846E+02  0.00000000000E+00 0. -1.
         25    2    1    2    0    0  0.22238016188E+02  0.21879893772E+02  0.14141316792E+04  0.14199960770E+04  0.12508874159E+03 0.  0.
          5    1    3    3  502    0  0.68178516853E+02  0.36444724320E+02  0.71113867809E+03  0.71534063213E+03  0.41800000000E+01 0.  1.
         -5    1    3    3    0  502 -0.45940500665E+02 -0.14564830549E+02  0.70299300112E+03  0.70465544482E+03  0.41800000000E+01 0.  1.
        -11    1    1    2    0    0 -0.31701717031E+02  0.28211698999E+02  0.15958502817E+03  0.16513109956E+03  0.00000000000E+00 0.  1.
         11    1    1    2    0    0  0.94637008427E+01 -0.50091592770E+02  0.14173893040E+03  0.15062753298E+03  0.00000000000E+00 0. -1.
</event>
<event>
 7    1  0.2719869E-009  0.1433072E+03  0.7561462E-02  0.1208947E+00
          2   -1    0    0  501    0  0.00000000000E+00  0.00000000000E+00  0.21475468829E+03  0.21475468829E+03  0.00000000000E+00 0. -1.
         -2   -1    0    0    0  501 -0.00000000000E+00 -0.00000000000E+00 -0.98733655859E+02  0.98733655859E+02  0.00000000000E+00 0.  1.
         25    2    1    2    0    0  0.55476087804E+01 -0.66373537083E+02  0.82618113051E+02  0.16403676958E+03  0.12508431869E+03 0.  0.
          5    1    3    3  502    0  0.38119832159E+02  0.23840706689E+02  0.19795186529E+02  0.49303374215E+02  0.41800000000E+01 0. -1.
         -5    1    3    3    0  502 -0.32572223378E+02 -0.90214243773E+02  0.62822926521E+02  0.11473339536E+03  0.41800000000E+01 0. -1.
        -11    1    1    2    0    0  0.49393789170E+02  0.75035856882E+02  0.16655418215E+02  0.91364813700E+02  0.00000000000E+00 0. -1.
         11    1    1    2    0    0 -0.54941397950E+02 -0.86623197988E+01  0.16747501165E+02  0.58086760869E+02  0.00000000000E+00 0.  1.
</event>
<event>
 7    1  0.2719869E-009  0.1100674E+03  0.7561462E-02  0.1260445E+00
          1   -1    0    0  501    0  0.00000000000E+00  0.00000000000E+00  0.84745405428E+02  0.84745405428E+02  0.00000000000E+00 0. -1.
         -1   -1    0    0    0  501 -0.00000000000E+00 -0.00000000000E+00 -0.14870135910E+03  0.14870135910E+03  0.00000000000E+00 0.  1.
         25    2    1    2    0    0 -0.17442775530E+02 -0.72709200903E+01 -0.49384120932E+02  0.13579993785E+03  0.12508283265E+03 0.  0.
          5    1    3    3  502    0  0.36717600474E+02  0.39313898125E+02 -0.12905838270E+02  0.55477903996E+02  0.41800000000E+01 0. -1.
         -5    1    3    3    0  502 -0.54160376004E+02 -0.46584818215E+02 -0.36478282662E+02  0.80322033858E+02  0.41800000000E+01 0. -1.
        -11    1    1    2    0    0 -0.12098128604E+02  0.45058184872E+02 -0.16914580363E+02  0.49625676505E+02  0.00000000000E+00 0.  1.
         11    1    1    2    0    0  0.29540904134E+02 -0.37787264782E+02  0.23427476278E+01  0.48021150165E+02  0.00000000000E+00 0. -1.
</event>
<event>
 7    1  0.2719869E-009  0.1273576E+03  0.7561462E-02  0.1231430E+00
         -2   -1    0    0    0  501 -0.00000000000E+00  0.00000000000E+00  0.17363564331E+03  0.17363564331E+03  0.00000000000E+00 0.  1.
          2   -1    0    0  501    0  0.00000000000E+00 -0.00000000000E+00 -0.11188352128E+03  0.11188352128E+03  0.00000000000E+00 0. -1.
         25    2    1    2    0    0 -0.60756637567E+02  0.50258096129E+02 -0.51584057313E+01  0.14795710058E+03  0.12508976468E+03 0.  0.
          5    1    3    3  502    0 -0.46372718276E+02  0.87339158483E+02 -0.26726188256E+02  0.10251984756E+03  0.41800000000E+01 0. -1.
         -5    1    3    3    0  502 -0.14383919291E+02 -0.37081062354E+02  0.21567782524E+02  0.45437253025E+02  0.41800000000E+01 0. -1.
        -11    1    1    2    0    0 -0.21541528386E+02 -0.62891465007E+01  0.29426906890E+02  0.37007210892E+02  0.00000000000E+00 0.  1.
         11    1    1    2    0    0  0.82298165953E+02 -0.43968949629E+02  0.37483620878E+02  0.10055485311E+03  0.00000000000E+00 0. -1.
</event>
<event>
 7    1  0.2719869E-009  0.1038811E+03  0.7561462E-02  0.1272340E+00
         -1   -1    0    0    0  501 -0.00000000000E+00  0.00000000000E+00  0.42876518973E+02  0.42876518973E+02  0.00000000000E+00 0.  1.
          1   -1    0    0  501    0  0.00000000000E+00 -0.00000000000E+00 -0.80252553677E+03  0.80252553677E+03  0.00000000000E+00 0. -1.
         25    2    1    2    0    0 -0.43317705048E+02  0.70284879225E+02 -0.68565779178E+03  0.70184779079E+03  0.12508927287E+03 0.  0.
          5    1    3    3  502    0 -0.47114681624E+02  0.64103929867E+02 -0.18880097654E+03  0.20492044357E+03  0.41800000000E+01 0.  1.
         -5    1    3    3    0  502  0.37969765760E+01  0.61809493586E+01 -0.49685681524E+03  0.49692734722E+03  0.41800000000E+01 0.  1.
        -11    1    1    2    0    0  0.13745981550E+01  0.20065846207E+02 -0.11397777680E+01  0.20145143272E+02  0.00000000000E+00 0.  1.
         11    1    1    2    0    0  0.41943106893E+02 -0.90350725433E+02 -0.72851448244E+02  0.12340912168E+03  0.00000000000E+00 0. -1.
</event>
<event>
 7    1  0.2719869E-009  0.1149017E+03  0.7561462E-02  0.1251753E+00
         -2   -1    0    0    0  501 -0.00000000000E+00  0.00000000000E+00  0.23565055047E+03  0.23565055047E+03  0.00000000000E+00 0.  1.
          2   -1    0    0  501    0  0.00000000000E+00 -0.00000000000E+00 -0.57094371580E+02  0.57094371580E+02  0.00000000000E+00 0. -1.
         25    2    1    2    0    0  0.28289448693E+02  0.24389484699E+02  0.11227445190E+03  0.17218669953E+03  0.12509023573E+03 0.  0.
          5    1    3    3  502    0  0.76779563047E+02  0.61904525872E+01  0.79377313570E+02  0.11068718677E+03  0.41800000000E+01 0. -1.
         -5    1    3    3    0  502 -0.48490114353E+02  0.18199032112E+02  0.32897138330E+02  0.61499512763E+02  0.41800000000E+01 0. -1.
        -11    1    1    2    0    0 -0.48611880079E+01  0.35791303789E+02  0.24177000440E+02  0.43464651455E+02  0.00000000000E+00 0. -1.
         11    1    1    2    0    0 -0.23428260686E+02 -0.60180788488E+02  0.42104726552E+02  0.77093571067E+02  0.00000000000E+00 0.  1.
</event>
<event>
 7    1  0.2719869E-009  0.1441849E+03  0.7561462E-02  0.1207806E+00
          1   -1    0    0  501    0  0.00000000000E+00  0.00000000000E+00  0.21601533480E+04  0.21601533480E+04  0.00000000000E+00 0. -1.
         -1   -1    0    0    0  501 -0.00000000000E+00 -0.00000000000E+00 -0.24999134121E+02  0.24999134121E+02  0.00000000000E+00 0.  1.
         25    2    1    2    0    0 -0.58394106716E+02  0.10972933586E+03  0.18774228594E+04  0.18856861670E+04  0.12508128720E+03 0.  0.
          5    1    3    3  502    0 -0.55348376028E+02  0.35471153910E+02  0.33200636472E+03  0.33847798171E+03  0.41800000000E+01 0. -1.
         -5    1    3    3    0  502 -0.30457306882E+01  0.74258181952E+02  0.15454164947E+04  0.15472081853E+04  0.41800000000E+01 0. -1.
        -11    1    1    2    0    0  0.31006262680E+02 -0.11590810070E+03  0.23287913689E+03  0.26197093070E+03  0.00000000000E+00 0. -1.
         11    1    1    2    0    0  0.27387844036E+02  0.61787648382E+01  0.24852217541E+02  0.37495384416E+02  0.00000000000E+00 0.  1.
</event>
<event>
 7    1  0.2719869E-009  0.1758617E+03  0.7561462E-02  0.1171869E+00
          2   -1    0    0  501    0  0.00000000000E+00  0.00000000000E+00  0.16848421391E+04  0.16848421391E+04  0.00000000000E+00 0.  1.
         -2   -1    0    0    0  501 -0.00000000000E+00 -0.00000000000E+00 -0.20017624835E+02  0.20017624835E+02  0.00000000000E+00 0. -1.
         25    2    1    2    0    0  0.75479342353E+02 -0.12632652351E+03  0.91597016789E+03  0.93611187012E+03  0.12509421753E+03 0.  0.
          5    1    3    3  502    0 -0.13118099725E+02 -0.89122082416E+02  0.32137817752E+03  0.33379070613E+03  0.41800000000E+01 0. -1.
         -5    1    3    3    0  502  0.88597442078E+02 -0.37204441097E+02  0.59459199037E+03  0.60232116399E+03  0.41800000000E+01 0. -1.
        -11    1    1    2    0    0 -0.23681911217E+02  0.10776816507E+03  0.59975220103E+03  0.60981760631E+03  0.00000000000E+00 0.  1.
         11    1    1    2    0    0 -0.51797431136E+02  0.18558358447E+02  0.14910214539E+03  0.15893028755E+03  0.00000000000E+00 0. -1.
</event>
<event>
 7    1  0.2719869E-009  0.1565872E+03  0.7561462E-02  0.1192605E+00
          1   -1    0    0  501    0  0.00000000000E+00  0.00000000000E+00  0.13487639066E+04  0.13487639066E+04  0.00000000000E+00 0. -1.
         -1   -1    0    0    0  501 -0.00000000000E+00 -0.00000000000E+00 -0.28591113565E+02  0.28591113565E+02  0.00000000000E+00 0.  1.
         25    2    1    2    0    0  0.12005710797E+03 -0.60798287820E+02  0.10103109642E+04  0.10268816343E+04  0.12508998940E+03 0.  0.
          5    1    3    3  502    0  0.11699728573E+03 -0.86581758040E+02  0.94988758070E+03  0.96098317054E+03  0.41800000000E+01 0.  1.
         -5    1    3    3    0  502  0.30598222438E+01  0.25783470220E+02  0.60423383503E+02  0.65898463736E+02  0.41800000000E+01 0.  1.
        -11    1    1    2    0    0 -0.64913856288E+02  0.56321053602E+02  0.92843121781E+02  0.12651369522E+03  0.00000000000E+00 0.  1.
         11    1    1    2    0    0 -0.55143251685E+02  0.44772342183E+01  0.21701870703E+03  0.22395969064E+03  0.00000000000E+00 0. -1.
</event>
<event>
 6    1  0.2719869E-009  0.9463809E+02  0.7561462E-02  0.1291993E+00
          1   -1    0    0  501    0  0.00000000000E+00  0.00000000000E+00  0.47679793283E+03  0.47679793283E+03  0.00000000000E+00 0. -1.
         -1   -1    0    0    0  501 -0.00000000000E+00 -0.00000000000E+00 -0.26634238903E+02  0.26634238903E+02  0.00000000000E+00 0.  1.
          5    1    1    2  502    0 -0.44776222810E+02 -0.41947813367E+02  0.84645667652E+02  0.10462738947E+03  0.41800000000E+01 0.  1.
         -5    1    1    2    0  502  0.21306665391E+02  0.43743321155E+02  0.22295238758E+03  0.22823823445E+03  0.41800000000E+01 0.  1.
        -11    1    1    2    0    0  0.46097652447E+02  0.17397079623E+02  0.39011612158E+02  0.62845507585E+02  0.00000000000E+00 0.  1.
         11    1    1    2    0    0 -0.22628095028E+02 -0.19192587412E+02  0.10355402654E+03  0.10772104023E+03  0.00000000000E+00 0. -1.
</event>
<event>
 7    1  0.2719869E-009  0.1394870E+03  0.7561462E-02  0.1214021E+00
          3   -1    0    0  501    0  0.00000000000E+00  0.00000000000E+00  0.32960785564E+03  0.32960785564E+03  0.00000000000E+00 0. -1.
         -3   -1    0    0    0  501 -0.00000000000E+00 -0.00000000000E+00 -0.10184925931E+03  0.10184925931E+03  0.00000000000E+00 0.  1.
         25    2    1    2    0    0 -0.70394500568E+02  0.93151555227E+02  0.22468336289E+03  0.28243017988E+03  0.12510633476E+03 0.  0.
          5    1    3    3  502    0 -0.72414605341E+02  0.11523716822E+03  0.14205596500E+03  0.19677614082E+03  0.41800000000E+01 0. -1.
         -5    1    3    3    0  502  0.20201047724E+01 -0.22085612994E+02  0.82627397891E+02  0.85654039058E+02  0.41800000000E+01 0. -1.
        -11    1    1    2    0    0  0.51764147915E+02 -0.44924283320E+02 -0.42043253528E+02  0.80407421351E+02  0.00000000000E+00 0.  1.
         11    1    1    2    0    0  0.18630352654E+02 -0.48227271907E+02  0.45118486971E+02  0.68619513713E+02  0.00000000000E+00 0. -1.
</event>
<event>
 7    1  0.2719869E-009  0.3190875E+03  0.7561462E-02  0.1076070E+00
          1   -1    0    0  501    0  0.00000000000E+00  0.00000000000E+00  0.16620533347E+04  0.16620533347E+04  0.00000000000E+00 0.  1.
         -1   -1    0    0    0  501 -0.00000000000E+00 -0.00000000000E+00 -0.84703649924E+02  0.84703649924E+02  0.00000000000E+00 0. -1.
         25    2    1    2    0    0  0.24696059681E+03  0.17533644305E+03  0.35079087944E+03  0.48003589123E+03  0.12509121128E+03 0.  0.
          5    1    3    3  502    0  0.78541771705E+02  0.12630041137E+03  0.19583274280E+03  0.24594417937E+03  0.41800000000E+01 0. -1.
         -5    1    3    3    0  502  0.16841882510E+03  0.49036031676E+02  0.15495813664E+03  0.23409171186E+03  0.41800000000E+01 0. -1.
        -11    1    1    2    0    0 -0.15335742431E+03 -0.58310400309E+02  0.56094409490E+03  0.58444578875E+03  0.00000000000E+00 0.  1.
         11    1    1    2    0    0 -0.93603172496E+02 -0.11702604274E+03  0.66561471044E+03  0.68227530465E+03  0.00000000000E+00 0. -1.
</event>
<event>
 7    1  0.2719869E-009  0.1719704E+03  0.7561462E-02  0.1175809E+00
         -1   -1    0    0    0  501 -0.00000000000E+00  0.00000000000E+00  0.46870937388E+02  0.46870937388E+02  0.00000000000E+00 0. -1.
          1   -1    0    0  501    0  0.00000000000E+00 -0.00000000000E+00 -0.73921669728E+03  0.73921669728E+03  0.00000000000E+00 0.  1.
         25    2    1    2    0    0 -0.77576095466E+02  0.12767195100E+03 -0.31310659206E+03  0.36878551979E+03  0.12509533946E+03 0.  0.
          5    1    3    3  502    0 -0.30223060886E+02  0.14091518456E+03 -0.25097168136E+03  0.28943873254E+03  0.41800000000E+01 0. -1.
         -5    1    3    3    0  502 -0.47353034580E+02 -0.13243233562E+02 -0.62134910704E+02  0.79346787253E+02  0.41800000000E+01 0. -1.
        -11    1    1    2    0    0  0.95983149118E+01 -0.68891774114E+01  0.16968423890E+01  0.11935982936E+02  0.00000000000E+00 0. -1.
         11    1    1    2    0    0  0.67977780554E+02 -0.12078277359E+03 -0.38093601022E+03  0.40536613194E+03  0.00000000000E+00 0.  1.
</event>
<event>
 7    1  0.2719869E-009  0.8326226E+02  0.7561462E-02  0.1320040E+00
          2   -1    0    0  501    0  0.00000000000E+00  0.00000000000E+00  0.64123453570E+03  0.64123453570E+03  0.00000000000E+00 0. -1.
         -2   -1    0    0    0  501 -0.00000000000E+00 -0.00000000000E+00 -0.28036750424E+02  0.28036750424E+02  0.00000000000E+00 0.  1.
         25    2    1    2    0    0 -0.12489884294E+01  0.57836748955E+02  0.46918383702E+03  0.48900499757E+03  0.12508303330E+03 0.  0.
          5    1    3    3  502    0 -0.20882036976E+02  0.15087397889E+02  0.42002793421E+03  0.42083800561E+03  0.41800000000E+01 0.  1.
         -5    1    3    3    0  502  0.19633048547E+02  0.42749351066E+02  0.49155902811E+02  0.68166991961E+02  0.41800000000E+01 0.  1.
        -11    1    1    2    0    0  0.25161996985E+02  0.52739461546E+01  0.56529444958E+01  0.26322925024E+02  0.00000000000E+00 0.  1.
         11    1    1    2    0    0 -0.23913008556E+02 -0.63110695110E+02  0.13836100376E+03  0.15394336354E+03  0.00000000000E+00 0. -1.
</event>
<event>
 7    1  0.2719869E-009  0.9545740E+02  0.7561462E-02  0.1290149E+00
         -2   -1    0    0    0  501 -0.00000000000E+00  0.00000000000E+00  0.13429197226E+03  0.13429197226E+03  0.00000000000E+00 0.  1.
          2   -1    0    0  501    0  0.00000000000E+00 -0.00000000000E+00 -0.10927417058E+03  0.10927417058E+03  0.00000000000E+00 0. -1.
         25    2    1    2    0    0 -0.45764776712E+02 -0.40535985717E+01 -0.18285140946E+02  0.13451336970E+03  0.12509457942E+03 0.  0.
          5    1    3    3  502    0 -0.72761764489E+01  0.44604944581E+02 -0.47598129727E+02  0.65769279898E+02  0.41800000000E+01 0.  1.
         -5    1    3    3    0  502 -0.38488600263E+02 -0.48658543152E+02  0.29312988781E+02  0.68744089805E+02  0.41800000000E+01 0.  1.
        -11    1    1    2    0    0  0.48249413184E+02  0.30305216832E+02  0.55908346600E+02  0.79825780669E+02  0.00000000000E+00 0.  1.
         11    1    1    2    0    0 -0.24846364721E+01 -0.26251618260E+02 -0.12605403975E+02  0.29226992473E+02  0.00000000000E+00 0. -1.
</event>
<event>
 7    1  0.2719869E-009  0.1201797E+03  0.7561462E-02  0.1242801E+00
          2   -1    0    0  501    0  0.00000000000E+00  0.00000000000E+00  0.32120425340E+02  0.32120425340E+02  0.00000000000E+00 0. -1.
         -2   -1    0    0    0  501 -0.00000000000E+00 -0.00000000000E+00 -0.46661127416E+03  0.46661127416E+03  0.00000000000E+00 0.  1.
         25    2    1    2    0    0 -0.54264398685E+02  0.10439249353E+02 -0.27579817473E+03  0.30784013461E+03  0.12508921778E+03 0.  0.
          5    1    3    3  502    0  0.53511845663E+01  0.58010169801E+02 -0.14577995138E+03  0.15704483946E+03  0.41800000000E+01 0. -1.
         -5    1    3    3    0  502 -0.59615583252E+02 -0.47570920448E+02 -0.13001822335E+03  0.15079529516E+03  0.41800000000E+01 0. -1.
        -11    1    1    2    0    0  0.79338539445E+02 -0.29204491156E+01 -0.11073617456E+03  0.13625576399E+03  0.00000000000E+00 0. -1.
         11    1    1    2    0    0 -0.25074140760E+02 -0.75188002369E+01 -0.47956499530E+02  0.54635800891E+02  0.00000000000E+00 0.  1.
</event>
<event>
 7    1  0.2719869E-009  0.1502262E+03  0.7561462E-02  0.1200195E+00
         -2   -1    0    0    0  501 -0.00000000000E+00  0.00000000000E+00  0.64922712912E+02  0.64922712912E+02  0.00000000000E+00 0.  1.
          2   -1    0    0  501    0  0.00000000000E+00 -0.00000000000E+00 -0.68136809073E+03  0.68136809073E+03  0.00000000000E+00 0. -1.
         25    2    1    2    0    0  0.22511857688E+02 -0.13502270061E+03 -0.52259625114E+03  0.55451996912E+03  0.12509053135E+03 0.  0.
          5    1    3    3  502    0 -0.26362444052E+00 -0.93992199346E+02 -0.48556138140E+03  0.49459269156E+03  0.41800000000E+01 0.  1.
         -5    1    3    3    0  502  0.22775482129E+02 -0.41030501259E+02 -0.37034869745E+02  0.59927277569E+02  0.41800000000E+01 0.  1.
        -11    1    1    2    0    0  0.75210927141E+01  0.12824457709E+03 -0.96784316252E+02  0.16084291176E+03  0.00000000000E+00 0. -1.
         11    1    1    2    0    0 -0.30032950402E+02  0.67781235104E+01  0.29351895805E+01  0.30927922757E+02  0.00000000000E+00 0.  1.
</event>
<event>
 7    1  0.2719869E-009  0.9087790E+02  0.7561462E-02  0.1300740E+00
          2   -1    0    0  501    0  0.00000000000E+00  0.00000000000E+00  0.72703380384E+03  0.72703380384E+03  0.00000000000E+00 0. -1.
         -2   -1    0    0    0  501 -0.00000000000E+00 -0.00000000000E+00 -0.21128087260E+02  0.21128087260E+02  0.00000000000E+00 0.  1.
         25    2    1    2    0    0 -0.45065809490E+02  0.54449475470E+00  0.51701956572E+03  0.53384193567E+03  0.12508699886E+03 0.  0.
          5    1    3    3  502    0 -0.20975140085E+02 -0.51453620907E+02  0.39568867330E+03  0.39959283049E+03  0.41800000000E+01 0.  1.
         -5    1    3    3    0  502 -0.24090669406E+02  0.51998115662E+02  0.12133089243E+03  0.13424910518E+03  0.41800000000E+01 0.  1.
        -11    1    1    2    0    0  0.14153196992E+02 -0.25287454017E+02  0.16615582249E+03  0.16866394298E+03  0.00000000000E+00 0. -1.
         11    1    1    2    0    0  0.30912612498E+02  0.24742959262E+02  0.22730328368E+02  0.45656012444E+02  0.00000000000E+00 0.  1.
</event>
<event>
 7    1  0.2719869E-009  0.1152442E+03  0.7561462E-02  0.1251155E+00
         -1   -1    0    0    0  501 -0.00000000000E+00  0.00000000000E+00  0.26952218189E+03  0.26952218189E+03  0.00000000000E+00 0.  1.
          1   -1    0    0  501    0  0.00000000000E+00 -0.00000000000E+00 -0.56814954991E+02  0.56814954991E+02  0.00000000000E+00 0. -1.
         25    2    1    2    0    0 -0.60031430003E+02  0.72354426089E+01  0.11129603790E+03  0.17801806963E+03  0.12508997100E+03 0.  0.
          5    1    3    3  502    0 -0.62685120419E+02  0.50220824674E+02  0.29848314764E+02  0.85790150059E+02  0.41800000000E+01 0.  1.
         -5    1    3    3    0  502  0.26536904162E+01 -0.42985382065E+02  0.81447723136E+02  0.92227919570E+02  0.41800000000E+01 0.  1.
        -11    1    1    2    0    0 -0.11823977629E+02 -0.29321268907E+02  0.41624840252E+02  0.52270169153E+02  0.00000000000E+00 0.  1.
         11    1    1    2    0    0  0.71855407632E+02  0.22085826298E+02  0.59786348742E+02  0.96048898095E+02  0.00000000000E+00 0. -1.
</event>
<event>
 7    1  0.2719869E-009  0.1154651E+03  0.7561462E-02  0.1250771E+00
         -2   -1    0    0    0  501 -0.00000000000E+00  0.00000000000E+00  0.79618178192E+02  0.79618178192E+02  0.00000000000E+00 0.  1.
          2   -1    0    0  501    0  0.00000000000E+00 -0.00000000000E+00 -0.19578116125E+03  0.19578116125E+03  0.00000000000E+00 0. -1.
         25    2    1    2    0    0  0.57798533656E+02  0.67593193177E-01 -0.85759736227E+02  0.16230409993E+03  0.12508882218E+03 0.  0.
          5    1    3    3  502    0 -0.99063110081E+01  0.43116595824E+02 -0.66006292641E+02  0.79570590681E+02  0.41800000000E+01 0. -1.
         -5    1    3    3    0  502  0.67704844664E+02 -0.43049002630E+02 -0.19753443586E+02  0.82733509245E+02  0.41800000000E+01 0. -1.
        -11    1    1    2    0    0  0.92902617108E+01 -0.30937400054E+02  0.21817003333E+01  0.32375785722E+02  0.00000000000E+00 0.  1.
         11    1    1    2    0    0 -0.67088795367E+02  0.30869806861E+02 -0.32584947168E+02  0.80719453798E+02  0.00000000000E+00 0. -1.
</event>
<event>
 7    1  0.2719869E-009  0.1190100E+03  0.7561462E-02  0.1244739E+00
         -1   -1    0    0    0  501 -0.00000000000E+00  0.00000000000E+00  0.92864607921E+02  0.92864607921E+02  0.00000000000E+00 0.  1.
          1   -1    0    0  501    0  0.00000000000E+00 -0.00000000000E+00 -0.18925692382E+03  0.18925692382E+03  0.00000000000E+00 0. -1.
         25    2    1    2    0    0  0.62391224623E+02  0.16915096367E+02 -0.94816192040E+02  0.16975323579E+03  0.12508902987E+03 0.  0.
          5    1    3    3  502    0  0.29958508551E+02 -0.47000567045E+02 -0.70092007003E+01  0.56330869260E+02  0.41800000000E+01 0. -1.
         -5    1    3    3    0  502  0.32432716072E+02  0.63915663413E+02 -0.87806991340E+02  0.11342236653E+03  0.41800000000E+01 0. -1.
        -11    1    1    2    0    0 -0.85236007058E+02 -0.19203537795E+02 -0.99335752330E+01  0.87935366491E+02  0.00000000000E+00 0. -1.
         11    1    1    2    0    0  0.22844782435E+02  0.22884414281E+01  0.83574513712E+01  0.24432929462E+02  0.00000000000E+00 0.  1.
</event>
<event>
 7    1  0.2719869E-009  0.1060847E+03  0.7561462E-02  0.1267997E+00
          2   -1    0    0  501    0  0.00000000000E+00  0.00000000000E+00  0.11323031012E+04  0.11323031012E+04  0.00000000000E+00 0. -1.
         -2   -1    0    0    0  501 -0.00000000000E+00 -0.00000000000E+00 -0.13981550711E+02  0.13981550711E+02  0.00000000000E+00 0.  1.
         25    2    1    2    0    0 -0.33591225876E+00  0.40743413724E+02  0.85110805431E+03  0.86121658544E+03  0.12509575665E+03 0.  0.
          5    1    3    3  502    0  0.13500453672E+02  0.83019234943E+02  0.63318917768E+03  0.63876479454E+03  0.41800000000E+01 0. -1.
         -5    1    3    3    0  502 -0.13836365931E+02 -0.42275821219E+02  0.21791887663E+03  0.22245179090E+03  0.41800000000E+01 0. -1.
        -11    1    1    2    0    0 -0.13867079994E+02 -0.58738088017E+02  0.24775102173E+03  0.25499613264E+03  0.00000000000E+00 0. -1.
         11    1    1    2    0    0  0.14202992252E+02  0.17994674293E+02  0.19462474413E+02  0.30071933794E+02  0.00000000000E+00 0.  1.
</event>
<event>
 7    1  0.2719869E-009  0.8454579E+02  0.7561462E-02  0.1316625E+00
          2   -1    0    0  501    0  0.00000000000E+00  0.00000000000E+00  0.40939317005E+03  0.40939317005E+03  0.00000000000E+00 0. -1.
         -2   -1    0    0    0  501 -0.00000000000E+00 -0.00000000000E+00 -0.29661352483E+02  0.29661352483E+02  0.00000000000E+00 0.  1.
         25    2    1    2    0    0  0.11053574051E+02  0.14044953404E+02  0.23827776781E+03  0.26971266846E+03  0.12509670932E+03 0.  0.
          5    1    3    3  502    0 -0.97359478104E+01 -0.27756800716E+02  0.21560836419E+03  0.21764573916E+03  0.41800000000E+01 0. -1.
         -5    1    3    3    0  502  0.20789521861E+02  0.41801754120E+02  0.22669403618E+02  0.52066929304E+02  0.41800000000E+01 0. -1.
        -11    1    1    2    0    0 -0.23641451034E+02  0.34798152358E+02  0.54926075042E+02  0.69186005334E+02  0.00000000000E+00 0.  1.
         11    1    1    2    0    0  0.12587876983E+02 -0.48843105762E+02  0.86527974716E+02  0.10015584873E+03  0.00000000000E+00 0. -1.
</event>
<event>
 7    1  0.2719869E-009  0.9978433E+02  0.7561462E-02  0.1280750E+00
         -1   -1    0    0    0  501 -0.00000000000E+00  0.00000000000E+00  0.24616550300E+02  0.24616550300E+02  0.00000000000E+00 0.  1.
          1   -1    0    0  501    0  0.00000000000E+00 -0.00000000000E+00 -0.76029859110E+03  0.76029859110E+03  0.00000000000E+00 0. -1.
         25    2    1    2    0    0 -0.81194017467E+02  0.16519734948E+02 -0.42954121230E+03  0.45499291197E+03  0.12509007463E+03 0.  0.
          5    1    3    3  502    0 -0.64881059631E+02  0.16318292780E+02 -0.77163954119E+02  0.10221343744E+03  0.41800000000E+01 0. -1.
         -5    1    3    3    0  502 -0.16312957835E+02  0.20144216857E+00 -0.35237725818E+03  0.35277947453E+03  0.41800000000E+01 0. -1.
        -11    1    1    2    0    0  0.19078463863E+02  0.31742052080E+02 -0.51673016491E+02  0.63573943459E+02  0.00000000000E+00 0.  1.
         11    1    1    2    0    0  0.62115553603E+02 -0.48261787028E+02 -0.25446781202E+03  0.26634828597E+03  0.00000000000E+00 0. -1.
</event>
<event>
 7    1  0.2719869E-009  0.1070681E+03  0.7561462E-02  0.1266098E+00
         -1   -1    0    0    0  501 -0.00000000000E+00  0.00000000000E+00  0.97916407961E+01  0.97916407961E+01  0.00000000000E+00 0.  1.
          1   -1    0    0  501    0  0.00000000000E+00 -0.00000000000E+00 -0.19084601835E+04  0.19084601835E+04  0.00000000000E+00 0. -1.
         25    2    1    2    0    0  0.19880638512E+02  0.28624308997E+02 -0.15750623631E+04  0.15804061747E+04  0.12509052072E+03 0.  0.
          5    1    3    3  502    0  0.57617936491E+02  0.47957397221E+02 -0.64268376505E+03  0.64705458256E+03  0.41800000000E+01 0.  1.
         -5    1    3    3    0  502 -0.37737297979E+02 -0.19333088225E+02 -0.93237859808E+03  0.93335159212E+03  0.41800000000E+01 0.  1.
        -11    1    1    2    0    0 -0.15493992809E+02  0.32058705345E+02 -0.13813537281E+03  0.14265064186E+03  0.00000000000E+00 0. -1.
         11    1    1    2    0    0 -0.43866457035E+01 -0.60683014341E+02 -0.18547080675E+03  0.19519500774E+03  0.00000000000E+00 0.  1.
</event>
<event>
 7    1  0.2719869E-009  0.1097702E+03  0.7561462E-02  0.1260996E+00
          2   -1    0    0  501    0  0.00000000000E+00  0.00000000000E+00  0.73889564546E+03  0.73889564546E+03  0.00000000000E+00 0. -1.
         -2   -1    0    0    0  501 -0.00000000000E+00 -0.00000000000E+00 -0.33231513748E+02  0.33231513748E+02  0.00000000000E+00 0.  1.
         25    2    1    2    0    0  0.85059872851E+02 -0.17714125003E+02  0.55500330449E+03  0.57552202177E+03  0.12509179570E+03 0.  0.
          5    1    3    3  502    0 -0.13817593493E+02  0.19509761199E+02  0.27747096300E+03  0.27853036527E+03  0.41800000000E+01 0.  1.
         -5    1    3    3    0  502  0.98877466344E+02 -0.37223886202E+02  0.27753234149E+03  0.29699165650E+03  0.41800000000E+01 0.  1.
        -11    1    1    2    0    0 -0.93556733330E+01  0.95886186640E+01 -0.11373619165E+02  0.17573543874E+02  0.00000000000E+00 0.  1.
         11    1    1    2    0    0 -0.75704199518E+02  0.81255063386E+01  0.16203444638E+03  0.17903159356E+03  0.00000000000E+00 0. -1.
</event>
<event>
 7    1  0.2719869E-009  0.1209960E+03  0.7561462E-02  0.1241463E+00
          1   -1    0    0  501    0  0.00000000000E+00  0.00000000000E+00  0.94413993347E+03  0.94413993347E+03  0.00000000000E+00 0. -1.
         -1   -1    0    0    0  501 -0.00000000000E+00 -0.00000000000E+00 -0.23915547802E+02  0.23915547802E+02  0.00000000000E+00 0.  1.
         25    2    1    2    0    0 -0.82839114130E+02  0.26888852163E+02  0.67410960389E+03  0.69112902720E+03  0.12510093918E+03 0.  0.
          5    1    3    3  502    0 -0.19134019166E+02  0.53925856705E+02  0.12354854742E+03  0.13621976612E+03  0.41800000000E+01 0.  1.
         -5    1    3    3    0  502 -0.63705094964E+02 -0.27037004542E+02  0.55056105647E+03  0.55490926108E+03  0.41800000000E+01 0.  1.
        -11    1    1    2    0    0  0.11383271503E+02  0.24672607223E+02  0.12025508136E+03  0.12328666193E+03  0.00000000000E+00 0. -1.
         11    1    1    2    0    0  0.71455842627E+02 -0.51561459386E+02  0.12585970042E+03  0.15363979214E+03  0.00000000000E+00 0.  1.
</event>
<event>
 7    1  0.2719869E-009  0.1215320E+03  0.7561462E-02  0.1240591E+00
         -2   -1    0    0    0  501 -0.00000000000E+00  0.00000000000E+00  0.39414451959E+02  0.39414451959E+02  0.00000000000E+00 0.  1.
          2   -1    0    0  501    0  0.00000000000E+00 -0.00000000000E+00 -0.58034821339E+03  0.58034821339E+03  0.00000000000E+00 0. -1.
         25    2    1    2    0    0  0.10291495480E+03 -0.42551736043E+01 -0.25321695600E+03  0.30062600641E+03  0.12509026541E+03 0.  0.
          5    1    3    3  502    0  0.95194021303E+02 -0.76568612586E+01 -0.73295708450E+02  0.12045855093E+03  0.41800000000E+01 0. -1.
         -5    1    3    3    0  502  0.77209334979E+01  0.34016876543E+01 -0.17992124755E+03  0.18016745547E+03  0.41800000000E+01 0. -1.
        -11    1    1    2    0    0 -0.10223593852E+03  0.34426219252E+02 -0.22208692545E+03  0.24690069694E+03  0.00000000000E+00 0. -1.
         11    1    1    2    0    0 -0.67901628261E+00 -0.30171045648E+02 -0.65629879990E+02  0.72235962000E+02  0.00000000000E+00 0.  1.
</event>
<event>
 7    1  0.2719869E-009  0.1726757E+03  0.7561462E-02  0.1175086E+00
         -1   -1    0    0    0  501 -0.00000000000E+00  0.00000000000E+00  0.30772097927E+03  0.30772097927E+03  0.00000000000E+00 0.  1.
          1   -1    0    0  501    0  0.00000000000E+00 -0.00000000000E+00 -0.10092761784E+03  0.10092761784E+03  0.00000000000E+00 0. -1.
         25    2    1    2    0    0  0.11713616244E+03 -0.72874603388E+02  0.10326774477E+03  0.21294149096E+03  0.12509301777E+03 0.  0.
          5    1    3    3  502    0 -0.18694550886E+02  0.97997766107E+01  0.32181798190E+02  0.38712561130E+02  0.41800000000E+01 0. -1.
         -5    1    3    3    0  502  0.13583071332E+03 -0.82674379998E+02  0.71085946578E+02  0.17422892983E+03  0.41800000000E+01 0. -1.
        -11    1    1    2    0    0 -0.58686352588E+02 -0.13741560007E+02  0.49945191427E+02  0.78277970069E+02  0.00000000000E+00 0.  1.
         11    1    1    2    0    0 -0.58449809849E+02  0.86616163395E+02  0.53580425235E+02  0.11742913608E+03  0.00000000000E+00 0. -1.
</event>
<event>
 7    1  0.2719869E-009  0.1177520E+03  0.7561462E-02  0.1246852E+00
          2   -1    0    0  501    0  0.00000000000E+00  0.00000000000E+00  0.23285195810E+03  0.23285195810E+03  0.00000000000E+00 0. -1.
         -2   -1    0    0    0  501 -0.00000000000E+00 -0.00000000000E+00 -0.81811629591E+02  0.81811629591E+02  0.00000000000E+00 0.  1.
         25    2    1    2    0    0  0.37925125352E+02 -0.55408122924E+02  0.14440907740E+03  0.20251557248E+03  0.12510076037E+03 0.  0.
          5    1    3    3  502    0  0.49194798589E+02 -0.83625667172E+02  0.63609485590E+02  0.11609056583E+03  0.41800000000E+01 0.  1.
         -5    1    3    3    0  502 -0.11269673237E+02  0.28217544247E+02  0.80799591809E+02  0.86425006652E+02  0.41800000000E+01 0.  1.
        -11    1    1    2    0    0 -0.56935791803E+02  0.90953655075E+01 -0.11703437117E+02  0.58833498131E+02  0.00000000000E+00 0.  1.
         11    1    1    2    0    0  0.19010666451E+02  0.46312757417E+02  0.18334688223E+02  0.53314517072E+02  0.00000000000E+00 0. -1.
</event>
<event>
 7    1  0.3778989E-009  0.1353808E+03  0.7561462E-02  0.1219683E+00
          1   -1    0    0  501    0  0.00000000000E+00  0.00000000000E+00  0.13399932570E+04  0.13399932570E+04  0.00000000000E+00 0.  1.
         -1   -1    0    0    0  501 -0.00000000000E+00 -0.00000000000E+00 -0.14396454900E+02  0.14396454900E+02  0.00000000000E+00 0. -1.
         25    2    1    2    0    0 -0.56402075723E+01 -0.83040739994E+02  0.84560538695E+03  0.85885026684E+03  0.12509090282E+03 0.  0.
          5    1    3    3  502    0 -0.64169557674E+02 -0.40480626774E+02  0.36670456294E+03  0.37449448882E+03  0.41800000000E+01 0. -1.
         -5    1    3    3    0  502  0.58529350102E+02 -0.42560113220E+02  0.47890082401E+03  0.48435577801E+03  0.41800000000E+01 0. -1.
        -11    1    1    2    0    0 -0.41587347719E+02  0.30066272612E+02  0.23097862919E+03  0.23661068315E+03  0.00000000000E+00 0.  1.
         11    1    1    2    0    0  0.47227555291E+02  0.52974467382E+02  0.24901278596E+03  0.25892876191E+03  0.00000000000E+00 0. -1.
</event>
<event>
 6    1  0.2719869E-009  0.1226443E+03  0.7561462E-02  0.1238797E+00
          2   -1    0    0  501    0  0.00000000000E+00  0.00000000000E+00  0.20235830113E+03  0.20235830113E+03  0.00000000000E+00 0. -1.
         -2   -1    0    0    0  501 -0.00000000000E+00 -0.00000000000E+00 -0.11768687967E+03  0.11768687967E+03  0.00000000000E+00 0.  1.
          5    1    1    2  502    0  0.72192223601E+01  0.33950327940E+02 -0.41113550934E+02  0.53967938714E+02  0.41800000000E+01 0.  1.
         -5    1    1    2    0  502  0.61078923403E+02 -0.74280122320E+02  0.12580686259E+02  0.97076863993E+02  0.41800000000E+01 0.  1.
        -11    1    1    2    0    0 -0.44286687079E+01  0.49366452309E+02  0.85434970891E+02  0.98771422847E+02  0.00000000000E+00 0.  1.
         11    1    1    2    0    0 -0.63869477055E+02 -0.90366579286E+01  0.27769315242E+02  0.70228955245E+02  0.00000000000E+00 0. -1.
</event>
<event>
 7    1  0.2719869E-009  0.1484384E+03  0.7561462E-02  0.1202405E+00
         -1   -1    0    0    0  501 -0.00000000000E+00  0.00000000000E+00  0.41102563029E+03  0.41102563029E+03  0.00000000000E+00 0.  1.
          1   -1    0    0  501    0  0.00000000000E+00 -0.00000000000E+00 -0.11344098979E+03  0.11344098979E+03  0.00000000000E+00 0. -1.
         25    2    1    2    0    0  0.14376411403E+03 -0.28570178866E+02  0.29478427781E+03  0.35217940866E+03  0.12509272496E+03 0.  0.
          5    1    3    3  502    0  0.93961058761E+02 -0.19416575544E+02  0.28458977286E+03  0.30035727923E+03  0.41800000000E+01 0.  1.
         -5    1    3    3    0  502  0.49803055265E+02 -0.91536033226E+01  0.10194504949E+02  0.51822129430E+02  0.41800000000E+01 0.  1.
        -11    1    1    2    0    0 -0.45254752190E+02 -0.59569751549E+01  0.40779095939E+02  0.61207947314E+02  0.00000000000E+00 0.  1.
         11    1    1    2    0    0 -0.98509361837E+02  0.34527154021E+02 -0.37978733254E+02  0.11107926410E+03  0.00000000000E+00 0. -1.
</event>
<event>
 7    1  0.2719869E-009  0.1169964E+03  0.7561462E-02  0.1248136E+00
         -1   -1    0    0    0  501 -0.00000000000E+00  0.00000000000E+00  0.28887685896E+02  0.28887685896E+02  0.00000000000E+00 0.  1.
          1   -1    0    0  501    0  0.00000000000E+00 -0.00000000000E+00 -0.73805759727E+03  0.73805759727E+03  0.00000000000E+00 0. -1.
         25    2    1    2    0    0  0.17925270697E+01  0.74666195996E+02 -0.22374286992E+03  0.26698508123E+03  0.12506761284E+03 0.  0.
          5    1    3    3  502    0 -0.41986902814E+01  0.94896001638E+02 -0.22616717616E+03  0.24534046568E+03  0.41800000000E+01 0. -1.
         -5    1    3    3    0  502  0.59912173512E+01 -0.20229805642E+02  0.24243062419E+01  0.21644615553E+02  0.41800000000E+01 0. -1.
        -11    1    1    2    0    0 -0.57228760347E+01  0.20944410928E+02 -0.57454114826E+02  0.61419825542E+02  0.00000000000E+00 0.  1.
         11    1    1    2    0    0  0.39303489650E+01 -0.95610606924E+02 -0.42797292663E+03  0.43854037640E+03  0.00000000000E+00 0. -1.
</event>
<event>
 7    1  0.3181053E-009  0.1039793E+03  0.7561462E-02  0.1272144E+00
          1   -1    0    0  501    0  0.00000000000E+00  0.00000000000E+00  0.10898048511E+04  0.10898048511E+04  0.00000000000E+00 0. -1.
         -1   -1    0    0    0  501 -0.00000000000E+00 -0.00000000000E+00 -0.15759051101E+02  0.15759051101E+02  0.00000000000E+00 0.  1.
         25    2    1    2    0    0 -0.33999722271E+01  0.83637123125E+01  0.90171655140E+03  0.91039511361E+03  0.12508002364E+03 0.  0.
          5    1    3    3  502    0 -0.55301284337E+02 -0.17590255548E+02  0.62060151005E+03  0.62332283434E+03  0.41800000000E+01 0.  1.
         -5    1    3    3    0  502  0.51901312110E+02  0.25953967860E+02  0.28111504136E+03  0.28707227927E+03  0.41800000000E+01 0.  1.
        -11    1    1    2    0    0  0.14239332679E+02 -0.48227825315E+02  0.92652873030E+02  0.10541933699E+03  0.00000000000E+00 0.  1.
         11    1    1    2    0    0 -0.10839360452E+02  0.39864113002E+02  0.79676375571E+02  0.89749451612E+02  0.00000000000E+00 0. -1.
</event>
<event>
 6    1  0.2719869E-009  0.3418377E+03  0.7561462E-02  0.1066016E+00
          1   -1    0    0  501    0  0.00000000000E+00  0.00000000000E+00  0.32281459347E+04  0.32281459347E+04  0.00000000000E+00 0. -1.
         -1   -1    0    0    0  501 -0.00000000000E+00 -0.00000000000E+00 -0.42415153944E+02  0.42415153944E+02  0.00000000000E+00 0.  1.
          5    1    1    2  502    0 -0.21949471205E+03  0.89370363416E+01  0.15195860983E+04  0.15353882837E+04  0.41800000000E+01 0.  1.
         -5    1    1    2    0  502 -0.98958528544E+02  0.84218477045E+02  0.63715029629E+03  0.65027956658E+03  0.41800000000E+01 0.  1.
        -11    1    1    2    0    0  0.16857973830E+03 -0.68934853399E+02  0.68668656740E+03  0.71042915483E+03  0.00000000000E+00 0. -1.
         11    1    1    2    0    0  0.14987350229E+03 -0.24220659988E+02  0.34230781877E+03  0.37446408353E+03  0.00000000000E+00 0.  1.
</event>
<event>
 7    1  0.2719869E-009  0.4344022E+03  0.7561462E-02  0.1032478E+00
          2   -1    0    0  501    0  0.00000000000E+00  0.00000000000E+00  0.43174173679E+03  0.43174173679E+03  0.00000000000E+00 0.  1.
         -2   -1    0    0    0  501 -0.00000000000E+00 -0.00000000000E+00 -0.68456612361E+03  0.68456612361E+03  0.00000000000E+00 0. -1.
         25    2    1    2    0    0  0.21336138325E+03  0.36314861691E+03 -0.46154962478E+03  0.63724073182E+03  0.12509075236E+03 0.  0.
          5    1    3    3  502    0  0.18549610331E+03  0.36490623980E+03 -0.41593606614E+03  0.58359716561E+03  0.41800000000E+01 0.  1.
         -5    1    3    3    0  502  0.27865279942E+02 -0.17576228842E+01 -0.45613558637E+02  0.53643566213E+02  0.41800000000E+01 0.  1.
        -11    1    1    2    0    0 -0.50636418027E+02 -0.17631080987E+03  0.87934007617E+02  0.20342551021E+03  0.00000000000E+00 0.  1.
         11    1    1    2    0    0 -0.16272496522E+03 -0.18683780704E+03  0.12079123035E+03  0.27564161837E+03  0.00000000000E+00 0. -1.
</event>
<event>
 7    1  0.2719869E-009  0.1137599E+03  0.7561462E-02  0.1253761E+00
         -2   -1    0    0    0  501 -0.00000000000E+00  0.00000000000E+00  0.76889488488E+02  0.76889488488E+02  0.00000000000E+00 0.  1.
          2   -1    0    0  501    0  0.00000000000E+00 -0.00000000000E+00 -0.22636887343E+03  0.22636887343E+03  0.00000000000E+00 0. -1.
         25    2    1    2    0    0  0.12110587131E+02  0.34342340516E+02 -0.74210369408E+01  0.13047613247E+03  0.12507152627E+03 0.  0.
          5    1    3    3  502    0  0.12062187111E+01  0.81070619836E+02 -0.12099840131E+02  0.82083974656E+02  0.41800000000E+01 0. -1.
         -5    1    3    3    0  502  0.10904368420E+02 -0.46728279320E+02  0.46788031907E+01  0.48392157816E+02  0.41800000000E+01 0. -1.
        -11    1    1    2    0    0 -0.50842397326E+02 -0.30393955389E+02 -0.80483253452E+02  0.99931456390E+02  0.00000000000E+00 0.  1.
         11    1    1    2    0    0  0.38731810195E+02 -0.39483851267E+01 -0.61575094551E+02  0.72850773057E+02  0.00000000000E+00 0. -1.
</event>
<event>
 7    1  0.2719869E-009  0.1748504E+03  0.7561462E-02  0.1172882E+00
          4   -1    0    0  501    0  0.00000000000E+00  0.00000000000E+00  0.78306073854E+02  0.78306073854E+02  0.00000000000E+00 0. -1.
         -4   -1    0    0    0  501 -0.00000000000E+00 -0.00000000000E+00 -0.48843829439E+03  0.48843829439E+03  0.00000000000E+00 0.  1.
         25    2    1    2    0    0  0.82580963262E+02 -0.13365231452E+03 -0.15443167420E+03  0.25333541725E+03  0.12508850853E+03 0.  0.
          5    1    3    3  502    0 -0.60132506198E+01 -0.52002543647E+02  0.57811738090E+01  0.52832926281E+02  0.41800000000E+01 0.  1.
         -5    1    3    3    0  502  0.88594213881E+02 -0.81649770875E+02 -0.16021284801E+03  0.20050249097E+03  0.41800000000E+01 0.  1.
        -11    1    1    2    0    0  0.61338204418E+01  0.62792478740E+02 -0.59491110116E+02  0.86716269076E+02  0.00000000000E+00 0. -1.
         11    1    1    2    0    0 -0.88714783703E+02  0.70859835782E+02 -0.19620943621E+03  0.22669268191E+03  0.00000000000E+00 0.  1.
</event>
<event>
 7    1  0.2719869E-009  0.8949751E+02  0.7561462E-02  0.1304073E+00
          2   -1    0    0  501    0  0.00000000000E+00  0.00000000000E+00  0.24320991145E+03  0.24320991145E+03  0.00000000000E+00 0. -1.
         -2   -1    0    0    0  501 -0.00000000000E+00 -0.00000000000E+00 -0.75398064280E+02  0.75398064280E+02  0.00000000000E+00 0.  1.
         25    2    1    2    0    0  0.39015328862E+02 -0.22936943992E+02  0.14186989932E+02  0.13377821554E+03  0.12508813287E+03 0.  0.
          5    1    3    3  502    0 -0.18676000800E+02  0.41456192209E+02 -0.20685520445E+01  0.45707331861E+02  0.41800000000E+01 0.  1.
         -5    1    3    3    0  502  0.57691329662E+02 -0.64393136200E+02  0.16255541976E+02  0.88070883684E+02  0.41800000000E+01 0.  1.
        -11    1    1    2    0    0 -0.12752365288E+02  0.14230368584E+02 -0.81007022635E+01  0.20754459463E+02  0.00000000000E+00 0.  1.
         11    1    1    2    0    0 -0.26262963574E+02  0.87065754080E+01  0.16172555950E+03  0.16407530072E+03  0.00000000000E+00 0. -1.
</event>
<event>
 7    1  0.2719869E-009  0.2305704E+03  0.7561462E-02  0.1126239E+00
          1   -1    0    0  501    0  0.00000000000E+00  0.00000000000E+00  0.94345691081E+03  0.94345691081E+03  0.00000000000E+00 0. -1.
         -1   -1    0    0    0  501 -0.00000000000E+00 -0.00000000000E+00 -0.70616388463E+02  0.70616388463E+02  0.00000000000E+00 0.  1.
         25    2    1    2    0    0 -0.21919399528E+03  0.70599560482E+02  0.52435067685E+03  0.58619310914E+03  0.12509365845E+03 0.  0.
          5    1    3    3  502    0 -0.11939089006E+03  0.43944795556E+02  0.42173910512E+03  0.44052999316E+03  0.41800000000E+01 0.  1.
         -5    1    3    3    0  502 -0.99803105216E+02  0.26654764926E+02  0.10261157172E+03  0.14566311598E+03  0.41800000000E+01 0.  1.
        -11    1    1    2    0    0  0.76685650129E+02 -0.20132143212E+02  0.20354592077E+03  0.21844206094E+03  0.00000000000E+00 0. -1.
         11    1    1    2    0    0  0.14250834515E+03 -0.50467417270E+02  0.14494392473E+03  0.20943812919E+03  0.00000000000E+00 0.  1.
</event>
<event>
 6    1  0.2719869E-009  0.1002932E+03  0.7561462E-02  0.1279681E+00
          1   -1    0    0  501    0  0.00000000000E+00  0.00000000000E+00  0.56801646003E+02  0.56801646003E+02  0.00000000000E+00 0. -1.
         -1   -1    0    0    0  501 -0.00000000000E+00 -0.00000000000E+00 -0.45990960737E+03  0.45990960737E+03  0.00000000000E+00 0.  1.
          5    1    1    2  502    0  0.41527571753E+02  0.58736819283E+01 -0.51793438844E+02  0.66776283682E+02  0.41800000000E+01 0.  1.
         -5    1    1    2    0  502 -0.63565158083E+02  0.60825984217E+02 -0.31400094287E+03  0.32612021434E+03  0.41800000000E+01 0.  1.
        -11    1    1    2    0    0  0.73008092853E+01 -0.28369330607E+02 -0.67012353041E+02  0.73135327957E+02  0.00000000000E+00 0.  1.
         11    1    1    2    0    0  0.14736777044E+02 -0.38330335538E+02  0.29698773389E+02  0.50679427393E+02  0.00000000000E+00 0. -1.
</event>
<event>
 7    1  0.2719869E-009  0.1291384E+03  0.7561462E-02  0.1228740E+00
         -1   -1    0    0    0  501 -0.00000000000E+00  0.00000000000E+00  0.30602385621E+02  0.30602385621E+02  0.00000000000E+00 0.  1.
          1   -1    0    0  501    0  0.00000000000E+00 -0.00000000000E+00 -0.64066537481E+03  0.64066537481E+03  0.00000000000E+00 0. -1.
         25    2    1    2    0    0 -0.58990539963E+02 -0.59832132300E+02 -0.40243392992E+03  0.42972106502E+03  0.12508939967E+03 0.  0.
          5    1    3    3  502    0 -0.59024934066E+02  0.16504964750E+02 -0.96619025459E+02  0.11449482601E+03  0.41800000000E+01 0.  1.
         -5    1    3    3    0  502  0.34394103150E-01 -0.76337097049E+02 -0.30581490446E+03  0.31522623901E+03  0.41800000000E+01 0.  1.
        -11    1    1    2    0    0 -0.21883290459E+02  0.43317341202E+01 -0.62661428101E+02  0.66513884968E+02  0.00000000000E+00 0. -1.
         11    1    1    2    0    0  0.80873830422E+02  0.55500398179E+02 -0.14496763116E+03  0.17503281044E+03  0.00000000000E+00 0.  1.
</event>
<event>
 7    1  0.2719869E-009  0.1021659E+03  0.7561462E-02  0.1275806E+00
         -1   -1    0    0    0  501 -0.00000000000E+00  0.00000000000E+00  0.82897591805E+02  0.82897591805E+02  0.00000000000E+00 0.  1.
          1   -1    0    0  501    0  0.00000000000E+00 -0.00000000000E+00 -0.17815219098E+03  0.17815219098E+03  0.00000000000E+00 0. -1.
         25    2    1    2    0    0 -0.47306115492E+01 -0.53918597881E+02 -0.52443793361E+02  0.14603805700E+03  0.12508864355E+03 0.  0.
          5    1    3    3  502    0  0.58496786759E+02 -0.32968032716E+02 -0.39624254383E+02  0.78078929153E+02  0.41800000000E+01 0. -1.
         -5    1    3    3    0  502 -0.63227398308E+02 -0.20950565165E+02 -0.12819538978E+02  0.67959127843E+02  0.41800000000E+01 0. -1.
        -11    1    1    2    0    0  0.24011062005E+02  0.39556374465E+02  0.17976563159E+02  0.49642669977E+02  0.00000000000E+00 0.  1.
         11    1    1    2    0    0 -0.19280450456E+02  0.14362223417E+02 -0.60787368976E+02  0.65369055816E+02  0.00000000000E+00 0. -1.
</event>
<event>
 7    1  0.2719869E-009  0.8298895E+02  0.7561462E-02  0.1320777E+00
         -1   -1    0    0    0  501 -0.00000000000E+00  0.00000000000E+00  0.20233979719E+03  0.20233979719E+03  0.00000000000E+00 0.  1.
          1   -1    0    0  501    0  0.00000000000E+00 -0.00000000000E+00 -0.11423999485E+03  0.11423999485E+03  0.00000000000E+00 0. -1.
         25    2    1    2    0    0 -0.44689668330E+02  0.35749154725E+02 -0.44472779937E+02  0.14456916215E+03  0.12508895224E+03 0.  0.
          5    1    3    3  502    0 -0.29364125347E+02  0.65551937894E+02  0.17449933402E+02  0.74035673799E+02  0.41800000000E+01 0. -1.
         -5    1    3    3    0  502 -0.15325542982E+02 -0.29802783169E+02 -0.61922713338E+02  0.70533488355E+02  0.41800000000E+01 0. -1.
        -11    1    1    2    0    0  0.25174083550E+02 -0.31428853070E+02  0.14362996110E+03  0.14916793561E+03  0.00000000000E+00 0.  1.
         11    1    1    2    0    0  0.19515584780E+02 -0.43203016556E+01 -0.11057378825E+02  0.22842694285E+02  0.00000000000E+00 0. -1.
</event>
<event>
 7    1  0.2719869E-009  0.1057284E+03  0.7561462E-02  0.1268691E+00
          2   -1    0    0  501    0  0.00000000000E+00  0.00000000000E+00  0.11337308253E+03  0.11337308253E+03  0.00000000000E+00 0. -1.
         -2   -1    0    0    0  501 -0.00000000000E+00 -0.00000000000E+00 -0.14177024497E+03  0.14177024497E+03  0.00000000000E+00 0.  1.
         25    2    1    2    0    0  0.62427278049E+02  0.10415867103E+02  0.19337443857E+02  0.14151265245E+03  0.12508492609E+03 0.  0.
          5    1    3    3  502    0 -0.73311399213E+01  0.33913891342E+02 -0.35355472561E+02  0.49712970929E+02  0.41800000000E+01 0. -1.
         -5    1    3    3    0  502  0.69758417971E+02 -0.23498024239E+02  0.54692916418E+02  0.91799681520E+02  0.41800000000E+01 0. -1.
        -11    1    1    2    0    0 -0.60321569453E+01  0.31779540452E+02 -0.19350471522E+02  0.37693061124E+02  0.00000000000E+00 0.  1.
         11    1    1    2    0    0 -0.56395121104E+02 -0.42195407555E+02 -0.28384134770E+02  0.75937613932E+02  0.00000000000E+00 0. -1.
</event>
<event>
 7    1  0.2719869E-009  0.1303108E+03  0.7561462E-02  0.1226995E+00
         -2   -1    0    0    0  501 -0.00000000000E+00  0.00000000000E+00  0.74575245502E+02  0.74575245502E+02  0.00000000000E+00 0.  1.
          2   -1    0    0  501    0  0.00000000000E+00 -0.00000000000E+00 -0.35431814088E+03  0.35431814088E+03  0.00000000000E+00 0. -1.
         25    2    1    2    0    0  0.11990428733E+03 -0.73407046561E+01 -0.12635185239E+03  0.21457480377E+03  0.12508649705E+03 0.  0.
          5    1    3    3  502    0  0.11089041258E+03  0.15876068089E+02 -0.14493006484E+03  0.18322371363E+03  0.41800000000E+01 0. -1.
         -5    1    3    3    0  502  0.90138747587E+01 -0.23216772745E+02  0.18578212459E+02  0.31351090141E+02  0.41800000000E+01 0. -1.
        -11    1    1    2    0    0 -0.58126384421E+02  0.17406029388E+02 -0.15107983495E+02  0.62529173912E+02  0.00000000000E+00 0.  1.
         11    1    1    2    0    0 -0.61777902914E+02 -0.10065324732E+02 -0.13828305949E+03  0.15178940870E+03  0.00000000000E+00 0. -1.
</event>
<event>
 7    1  0.2719869E-009  0.1115821E+03  0.7561462E-02  0.1257668E+00
         -1   -1    0    0    0  501 -0.00000000000E+00  0.00000000000E+00  0.15572235396E+02  0.15572235396E+02  0.00000000000E+00 0.  1.
          1   -1    0    0  501    0  0.00000000000E+00 -0.00000000000E+00 -0.85795841741E+03  0.85795841741E+03  0.00000000000E+00 0. -1.
         25    2    1    2    0    0 -0.15584418386E+02  0.35183738242E+02 -0.49622209588E+03  0.51319151441E+03  0.12509353494E+03 0.  0.
          5    1    3    3  502    0 -0.13433906263E+02 -0.42836346858E+02 -0.27259169848E+03  0.27629536538E+03  0.41800000000E+01 0.  1.
         -5    1    3    3    0  502 -0.21505121223E+01  0.78020085100E+02 -0.22363039740E+03  0.23689614902E+03  0.41800000000E+01 0.  1.
        -11    1    1    2    0    0 -0.18763766754E+02  0.24616329150E+02 -0.98063839942E+02  0.10283267626E+03  0.00000000000E+00 0.  1.
         11    1    1    2    0    0  0.34348185140E+02 -0.59800067392E+02 -0.24810024619E+03  0.25750646214E+03  0.00000000000E+00 0. -1.
</event>
<event>
 7    1  0.2719869E-009  0.1036934E+03  0.7561462E-02  0.1272715E+00
          1   -1    0    0  501    0  0.00000000000E+00  0.00000000000E+00  0.18491913479E+03  0.18491913479E+03  0.00000000000E+00 0. -1.
         -1   -1    0    0    0  501 -0.00000000000E+00 -0.00000000000E+00 -0.85154103803E+02  0.85154103803E+02  0.00000000000E+00 0.  1.
         25    2    1    2    0    0  0.38304524962E+02  0.46930472032E+02  0.41533850349E+02  0.14505520783E+03  0.12508495815E+03 0.  0.
          5    1    3    3  502    0 -0.27457002945E+01  0.82135716233E+02  0.11594528944E+02  0.83100663371E+02  0.41800000000E+01 0.  1.
         -5    1    3    3    0  502  0.41050225257E+02 -0.35205244201E+02  0.29939321405E+02  0.61954544459E+02  0.41800000000E+01 0.  1.
        -11    1    1    2    0    0 -0.25190132935E+02 -0.51204722321E+02 -0.77690433944E+01  0.57591878078E+02  0.00000000000E+00 0.  1.
         11    1    1    2    0    0 -0.13114392027E+02  0.42742502897E+01  0.66000224027E+02  0.67426152681E+02  0.00000000000E+00 0. -1.
</event>
<event>
 7    1  0.2719869E-009  0.1212491E+03  0.7561462E-02  0.1241051E+00
          1   -1    0    0  501    0  0.00000000000E+00  0.00000000000E+00  0.30177540877E+03  0.30177540877E+03  0.00000000000E+00 0. -1.
         -1   -1    0    0    0  501 -0.00000000000E+00 -0.00000000000E+00 -0.68370092435E+02  0.68370092435E+02  0.00000000000E+00 0.  1.
         25    2    1    2    0    0 -0.39622033900E+02  0.81924373102E+02  0.16264804157E+03  0.22445945662E+03  0.12508458642E+03 0.  0.
          5    1    3    3  502    0 -0.60425074711E+02  0.66750978887E+02  0.17403922796E+03  0.19599491857E+03  0.41800000000E+01 0.  1.
         -5    1    3    3    0  502  0.20803040811E+02  0.15173394216E+02 -0.11391186389E+02  0.28464538049E+02  0.41800000000E+01 0.  1.
        -11    1    1    2    0    0  0.67255668751E+02 -0.66724277366E+02  0.44599757121E+02  0.10471195015E+03  0.00000000000E+00 0. -1.
         11    1    1    2    0    0 -0.27633634851E+02 -0.15200095736E+02  0.26157517640E+02  0.40974094432E+02  0.00000000000E+00 0.  1.
</event>
<event>
 7    1  0.2719869E-009  0.1273181E+03  0.7561462E-02  0.1231490E+00
         -2   -1    0    0    0  501 -0.00000000000E+00  0.00000000000E+00  0.16182673859E+03  0.16182673859E+03  0.00000000000E+00 0.  1.
          2   -1    0    0  501    0  0.00000000000E+00 -0.00000000000E+00 -0.16699406577E+03  0.16699406577E+03  0.00000000000E+00 0. -1.
         25    2    1    2    0    0 -0.36632218175E+02  0.11816507971E+03  0.56189492750E+01  0.17601410175E+03  0.12507791953E+03 0.  0.
          5    1    3    3  502    0 -0.43145459461E+02  0.71887267090E+02  0.60748845210E+02  0.10362048271E+03  0.41800000000E+01 0.  1.
         -5    1    3    3    0  502  0.65132412867E+01  0.46277812616E+02 -0.55129895935E+02  0.72393619045E+02  0.41800000000E+01 0.  1.
        -11    1    1    2    0    0  0.84681530232E+01 -0.22284300833E+02  0.35431613265E+02  0.42704787762E+02  0.00000000000E+00 0.  1.
         11    1    1    2    0    0  0.28164065152E+02 -0.95880778873E+02 -0.46217889725E+02  0.11010191485E+03  0.00000000000E+00 0. -1.
</event>
<event>
 7    1  0.2719869E-009  0.1060276E+03  0.7561462E-02  0.1268108E+00
         -2   -1    0    0    0  501 -0.00000000000E+00  0.00000000000E+00  0.77991512229E+03  0.77991512229E+03  0.00000000000E+00 0.  1.
          2   -1    0    0  501    0  0.00000000000E+00 -0.00000000000E+00 -0.16739275892E+02  0.16739275892E+02  0.00000000000E+00 0. -1.
         25    2    1    2    0    0  0.27782256842E+02 -0.27005098501E+01  0.35127266405E+03  0.37392356369E+03  0.12508877016E+03 0.  0.
          5    1    3    3  502    0  0.61902545196E+02 -0.35305582214E+02  0.27516151920E+03  0.28427054593E+03  0.41800000000E+01 0. -1.
         -5    1    3    3    0  502 -0.34120288354E+02  0.32605072364E+02  0.76111144856E+02  0.89653017754E+02  0.41800000000E+01 0. -1.
        -11    1    1    2    0    0 -0.59410900947E+02  0.11384400608E+02  0.30369569958E+03  0.30966165030E+03  0.00000000000E+00 0.  1.
         11    1    1    2    0    0  0.31628644105E+02 -0.86838907582E+01  0.10820748276E+03  0.11306918419E+03  0.00000000000E+00 0. -1.
</event>
<event>
 7    1  0.3158551E-009  0.1272728E+03  0.7561462E-02  0.1231559E+00
          2   -1    0    0  501    0  0.00000000000E+00  0.00000000000E+00  0.33768608716E+03  0.33768608716E+03  0.00000000000E+00 0. -1.
         -2   -1    0    0    0  501 -0.00000000000E+00 -0.00000000000E+00 -0.54087196553E+02  0.54087196553E+02  0.00000000000E+00 0.  1.
         25    2    1    2    0    0 -0.71290862901E+02  0.25623300970E+02  0.11887830201E+03  0.18846397538E+03  0.12509068167E+03 0.  0.
          5    1    3    3  502    0  0.16164946887E+02  0.45339590404E+02  0.73336943790E+02  0.87822341635E+02  0.41800000000E+01 0. -1.
         -5    1    3    3    0  502 -0.87455809788E+02 -0.19716289434E+02  0.45541358225E+02  0.10064163375E+03  0.41800000000E+01 0. -1.
        -11    1    1    2    0    0  0.39211667525E+02 -0.58578341095E+02  0.77892657706E+02  0.10505352464E+03  0.00000000000E+00 0.  1.
         11    1    1    2    0    0  0.32079195376E+02  0.32955040125E+02  0.86827930885E+02  0.98255783684E+02  0.00000000000E+00 0. -1.
</event>
<event>
 7    1  0.2719869E-009  0.1006663E+03  0.7561462E-02  0.1278901E+00
          1   -1    0    0  501    0  0.00000000000E+00  0.00000000000E+00  0.22849300534E+02  0.22849300534E+02  0.00000000000E+00 0. -1.
         -1   -1    0    0    0  501 -0.00000000000E+00 -0.00000000000E+00 -0.64588342596E+03  0.64588342596E+03  0.00000000000E+00 0.  1.
         25    2    1    2    0    0  0.18115206246E+02 -0.35095738367E+02 -0.24226315413E+03  0.27550042678E+03  0.12509667365E+03 0.  0.
          5    1    3    3  502    0 -0.19868517506E+02  0.29064019816E+02 -0.19305508294E+02  0.40368927237E+02  0.41800000000E+01 0. -1.
         -5    1    3    3    0  502  0.37983723752E+02 -0.64159758184E+02 -0.22295764584E+03  0.23513149954E+03  0.41800000000E+01 0. -1.
        -11    1    1    2    0    0  0.19324933930E+02  0.47885044204E+02 -0.28450568651E+03  0.28915379332E+03  0.00000000000E+00 0.  1.
         11    1    1    2    0    0 -0.37440140176E+02 -0.12789305837E+02 -0.96265284786E+02  0.10407850640E+03  0.00000000000E+00 0. -1.
</event>
<event>
 7    1  0.2719869E-009  0.1091876E+03  0.7561462E-02  0.1262082E+00
         -2   -1    0    0    0  501 -0.00000000000E+00  0.00000000000E+00  0.10978244242E+03  0.10978244242E+03  0.00000000000E+00 0.  1.
          2   -1    0    0  501    0  0.00000000000E+00 -0.00000000000E+00 -0.19559346346E+03  0.19559346346E+03  0.00000000000E+00 0. -1.
         25    2    1    2    0    0 -0.62136977577E+02  0.32267093994E+02  0.29164925694E+02  0.14628620457E+03  0.12508753503E+03 0.  0.
          5    1    3    3  502    0  0.24622426874E+02 -0.27089154908E+02 -0.94914696204E+00  0.36857285558E+02  0.41800000000E+01 0. -1.
         -5    1    3    3    0  502 -0.86759404450E+02  0.59356248902E+02  0.30114072656E+02  0.10942891901E+03  0.41800000000E+01 0. -1.
        -11    1    1    2    0    0  0.48174583883E+02 -0.87296252166E+01 -0.91811772934E+01  0.49812557706E+02  0.00000000000E+00 0.  1.
         11    1    1    2    0    0  0.13962393694E+02 -0.23537468777E+02 -0.10579476944E+03  0.10927714361E+03  0.00000000000E+00 0. -1.
</event>
<event>
 7    1  0.2719869E-009  0.7683591E+02  0.7561462E-02  0.1338278E+00
         -1   -1    0    0    0  501 -0.00000000000E+00  0.00000000000E+00  0.60521811598E+02  0.60521811598E+02  0.00000000000E+00 0. -1.
          1   -1    0    0  501    0  0.00000000000E+00 -0.00000000000E+00 -0.21637642884E+03  0.21637642884E+03  0.00000000000E+00 0.  1.
         25    2    1    2    0    0 -0.22396128384E+02  0.23255863134E+02 -0.89512107260E+02  0.15716796439E+03  0.12508768903E+03 0.  0.
          5    1    3    3  502    0 -0.39497072265E+02  0.48849097357E+01 -0.11463018433E+03  0.12141430155E+03  0.41800000000E+01 0. -1.
         -5    1    3    3    0  502  0.17100943881E+02  0.18370953399E+02  0.25118077072E+02  0.35753662836E+02  0.41800000000E+01 0. -1.
        -11    1    1    2    0    0  0.35285389058E+02  0.21713193000E+02 -0.59424598149E+02  0.72441730352E+02  0.00000000000E+00 0.  1.
         11    1    1    2    0    0 -0.12889260675E+02 -0.44969056135E+02 -0.69179118330E+01  0.47288545701E+02  0.00000000000E+00 0. -1.
</event>
<event>
 7    1  0.2719869E-009  0.9921978E+02  0.7561462E-02  0.1281945E+00
          2   -1    0    0  501    0  0.00000000000E+00  0.00000000000E+00  0.15358436454E+03  0.15358436454E+03  0.00000000000E+00 0. -1.
         -2   -1    0    0    0  501 -0.00000000000E+00 -0.00000000000E+00 -0.22053073413E+03  0.22053073413E+03  0.00000000000E+00 0.  1.
         25    2    1    2    0    0  0.64465551002E+02 -0.59715819353E+02 -0.16370686680E+03  0.22398728120E+03  0.12509427466E+03 0.  0.
          5    1    3    3  502    0  0.28142192347E+02 -0.18269356782E+02 -0.16527290071E+03  0.16869604766E+03  0.41800000000E+01 0.  1.
         -5    1    3    3    0  502  0.36323358655E+02 -0.41446462570E+02  0.15660339101E+01  0.55291233535E+02  0.41800000000E+01 0.  1.
        -11    1    1    2    0    0  0.13457908883E+02  0.11677552809E+02  0.36258016942E+02  0.40399558706E+02  0.00000000000E+00 0.  1.
         11    1    1    2    0    0 -0.77923459885E+02  0.48038266544E+02  0.60502480267E+02  0.10972825876E+03  0.00000000000E+00 0. -1.
</event>
<event>
 7    1  0.2736524E-009  0.1160584E+03  0.7561462E-02  0.1249745E+00
          2   -1    0    0  501    0  0.00000000000E+00  0.00000000000E+00  0.11530932814E+04  0.11530932814E+04  0.00000000000E+00 0. -1.
         -2   -1    0    0    0  501 -0.00000000000E+00 -0.00000000000E+00 -0.12540347217E+02  0.12540347217E+02  0.00000000000E+00 0.  1.
         25    2    1    2    0    0 -0.51035029773E+02  0.39958250724E+01  0.59362721475E+03  0.60881896153E+03  0.12508683760E+03 0.  0.
          5    1    3    3  502    0  0.34313902207E+00 -0.51632597367E+02  0.14847267225E+03  0.15725027714E+03  0.41800000000E+01 0.  1.
         -5    1    3    3    0  502 -0.51378168795E+02  0.55628422439E+02  0.44515454250E+03  0.45156868439E+03  0.41800000000E+01 0.  1.
        -11    1    1    2    0    0 -0.10812006045E+02 -0.34039926365E+02  0.18696082502E+03  0.19034170892E+03  0.00000000000E+00 0. -1.
         11    1    1    2    0    0  0.61847035818E+02  0.30044101292E+02  0.35996489443E+03  0.36647295819E+03  0.00000000000E+00 0.  1.
</event>
<event>
 7    1  0.2719869E-009  0.1514811E+03  0.7561462E-02  0.1198665E+00
          1   -1    0    0  501    0  0.00000000000E+00  0.00000000000E+00  0.30739998962E+03  0.30739998962E+03  0.00000000000E+00 0. -1.
         -1   -1    0    0    0  501 -0.00000000000E+00 -0.00000000000E+00 -0.11548273687E+03  0.11548273687E+03  0.00000000000E+00 0.  1.
         25    2    1    2    0    0 -0.71244266223E+02  0.10563087921E+03  0.11051902109E+02  0.17890172241E+03  0.12510017438E+03 0.  0.
          5    1    3    3  502    0  0.28862637267E+01 -0.21835878535E+02  0.21441377482E+02  0.31021624362E+02  0.41800000000E+01 0.  1.
         -5    1    3    3    0  502 -0.74130529950E+02  0.12746675775E+03 -0.10389475373E+02  0.14788009805E+03  0.41800000000E+01 0.  1.
        -11    1    1    2    0    0  0.59100471967E+02 -0.54223695827E+02  0.32584458386E+02  0.86572639466E+02  0.00000000000E+00 0.  1.
         11    1    1    2    0    0  0.12143794256E+02 -0.51407183387E+02  0.14828089226E+03  0.15740836462E+03  0.00000000000E+00 0. -1.
</event>
<event>
 7    1  0.2719869E-009  0.1641756E+03  0.7561462E-02  0.1184062E+00
         -2   -1    0    0    0  501 -0.00000000000E+00  0.00000000000E+00  0.62349021838E+02  0.62349021838E+02  0.00000000000E+00 0.  1.
          2   -1    0    0  501    0  0.00000000000E+00 -0.00000000000E+00 -0.51898760683E+03  0.51898760683E+03  0.00000000000E+00 0. -1.
         25    2    1    2    0    0 -0.55655411407E+02 -0.13049253286E+03 -0.22282226878E+03  0.29227278025E+03  0.12509112142E+03 0.  0.
          5    1    3    3  502    0  0.89298580128E+01  0.19124382757E+02 -0.88192206071E+01  0.23253718672E+02  0.41800000000E+01 0. -1.
         -5    1    3    3    0  502 -0.64585269420E+02 -0.14961691562E+03 -0.21400304818E+03  0.26901906158E+03  0.41800000000E+01 0. -1.
        -11    1    1    2    0    0  0.42565874172E+02  0.69990757320E+02 -0.20504412531E+03  0.22080229410E+03  0.00000000000E+00 0. -1.
         11    1    1    2    0    0  0.13089537235E+02  0.60501775540E+02 -0.28772190895E+02  0.68261554315E+02  0.00000000000E+00 0.  1.
</event>
<event>
 7    1  0.2719869E-009  0.1216232E+03  0.7561462E-02  0.1240443E+00
         -1   -1    0    0    0  501 -0.00000000000E+00  0.00000000000E+00  0.14867210826E+03  0.14867210826E+03  0.00000000000E+00 0.  1.
          1   -1    0    0  501    0  0.00000000000E+00 -0.00000000000E+00 -0.10612119127E+03  0.10612119127E+03  0.00000000000E+00 0. -1.
         25    2    1    2    0    0  0.27112158911E+02  0.49242661379E+02  0.53242076365E+02  0.14711606819E+03  0.12509400451E+03 0.  0.
          5    1    3    3  502    0  0.76766803321E+02  0.35882207540E+02  0.40302364394E+02  0.93927780160E+02  0.41800000000E+01 0.  1.
         -5    1    3    3    0  502 -0.49654644409E+02  0.13360453839E+02  0.12939711971E+02  0.53188288035E+02  0.41800000000E+01 0.  1.
        -11    1    1    2    0    0  0.11532444572E+02 -0.64310245490E+02 -0.24102756134E+01  0.65380535186E+02  0.00000000000E+00 0.  1.
         11    1    1    2    0    0 -0.38644603484E+02  0.15067584110E+02 -0.82808837572E+01  0.42296696149E+02  0.00000000000E+00 0. -1.
</event>
<event>
 7    1  0.2719869E-009  0.9879131E+02  0.7561462E-02  0.1282858E+00
         -4   -1    0    0    0  501 -0.00000000000E+00  0.00000000000E+00  0.86533425715E+02  0.86533425715E+02  0.00000000000E+00 0.  1.
          4   -1    0    0  501    0  0.00000000000E+00 -0.00000000000E+00 -0.16114098049E+03  0.16114098049E+03  0.00000000000E+00 0. -1.
         25    2    1    2    0    0  0.30861166233E+02  0.22847855671E+02 -0.69764839921E+02  0.14829016127E+03  0.12509357677E+03 0.  0.
          5    1    3    3  502    0  0.58359812238E+02 -0.33683185614E+02 -0.41410480474E+02  0.79200536429E+02  0.41800000000E+01 0.  1.
         -5    1    3    3    0  502 -0.27498646005E+02  0.56531041285E+02 -0.28354359447E+02  0.69089624840E+02  0.41800000000E+01 0.  1.
        -11    1    1    2    0    0 -0.41048898627E+02  0.10775786533E+01  0.33541533700E+02  0.53020823619E+02  0.00000000000E+00 0.  1.
         11    1    1    2    0    0  0.10187732394E+02 -0.23925434325E+02 -0.38384248552E+02  0.46363421314E+02  0.00000000000E+00 0. -1.
</event>
<event>
 7    1  0.2719869E-009  0.1181464E+03  0.7561462E-02  0.1246187E+00
         -3   -1    0    0    0  501 -0.00000000000E+00  0.00000000000E+00  0.41061458869E+03  0.41061458869E+03  0.00000000000E+00 0.  1.
          3   -1    0    0  501    0  0.00000000000E+00 -0.00000000000E+00 -0.55947708042E+02  0.55947708042E+02  0.00000000000E+00 0. -1.
         25    2    1    2    0    0  0.16181172178E+02  0.10144272264E+03  0.23085067426E+03  0.28192492375E+03  0.12504868060E+03 0.  0.
          5    1    3    3  502    0  0.14005285229E+02  0.70815772572E+02  0.29321277989E+02  0.78027119659E+02  0.41800000000E+01 0. -1.
         -5    1    3    3    0  502  0.21758869494E+01  0.30626950067E+02  0.20152939627E+03  0.20389780410E+03  0.41800000000E+01 0. -1.
        -11    1    1    2    0    0 -0.49964698325E+02 -0.45135923000E+02  0.40571140391E+02  0.78611322698E+02  0.00000000000E+00 0. -1.
         11    1    1    2    0    0  0.33783526147E+02 -0.56306799640E+02  0.83245065995E+02  0.10602605028E+03  0.00000000000E+00 0.  1.
</event>
<event>
 7    1  0.2719869E-009  0.3392498E+03  0.7561462E-02  0.1067116E+00
         -1   -1    0    0    0  501 -0.00000000000E+00  0.00000000000E+00  0.12332525653E+03  0.12332525653E+03  0.00000000000E+00 0.  1.
          1   -1    0    0  501    0  0.00000000000E+00 -0.00000000000E+00 -0.97492601998E+03  0.97492601998E+03  0.00000000000E+00 0. -1.
         25    2    1    2    0    0 -0.32802288388E+03 -0.22080911099E+02 -0.40045081421E+03  0.53300513562E+03  0.12508813296E+03 0.  0.
          5    1    3    3  502    0  0.47010197558E+01 -0.12780583836E+02 -0.29796669987E+01  0.14553134554E+02  0.41800000000E+01 0.  1.
         -5    1    3    3    0  502 -0.33272390364E+03 -0.93003272632E+01 -0.39747114721E+03  0.51845200107E+03  0.41800000000E+01 0.  1.
        -11    1    1    2    0    0  0.20301184186E+03  0.33835855041E+02 -0.34059353719E+03  0.39794802499E+03  0.00000000000E+00 0.  1.
         11    1    1    2    0    0  0.12501104202E+03 -0.11754943941E+02 -0.11055641205E+03  0.16729811589E+03  0.00000000000E+00 0. -1.
</event>
<event>
 7    1  0.2719869E-009  0.1276573E+03  0.7561462E-02  0.1230974E+00
          3   -1    0    0  501    0  0.00000000000E+00  0.00000000000E+00  0.79097879241E+02  0.79097879241E+02  0.00000000000E+00 0. -1.
         -3   -1    0    0    0  501 -0.00000000000E+00 -0.00000000000E+00 -0.27863754440E+03  0.27863754440E+03  0.00000000000E+00 0.  1.
         25    2    1    2    0    0  0.10148399143E+03 -0.11586639963E+02 -0.11085721791E+03  0.19587418735E+03  0.12507647166E+03 0.  0.
          5    1    3    3  502    0 -0.24791337915E+02  0.53239999553E+01  0.17907288408E+01  0.25761104808E+02  0.41800000000E+01 0.  1.
         -5    1    3    3    0  502  0.12627532934E+03 -0.16910639918E+02 -0.11264794675E+03  0.17011308254E+03  0.41800000000E+01 0.  1.
        -11    1    1    2    0    0 -0.83751867849E+02  0.97588896093E+01 -0.10704756827E+03  0.13626735914E+03  0.00000000000E+00 0.  1.
         11    1    1    2    0    0 -0.17732123577E+02  0.18277503538E+01  0.18365121020E+02  0.25593877158E+02  0.00000000000E+00 0. -1.
</event>
<event>
 7    1  0.2719869E-009  0.1441099E+03  0.7561462E-02  0.1207903E+00
          2   -1    0    0  501    0  0.00000000000E+00  0.00000000000E+00  0.30449822005E+03  0.30449822005E+03  0.00000000000E+00 0.  1.
         -2   -1    0    0    0  501 -0.00000000000E+00 -0.00000000000E+00 -0.84269024931E+02  0.84269024931E+02  0.00000000000E+00 0. -1.
         25    2    1    2    0    0  0.33410853275E+02  0.99672797600E+02  0.53121018323E+02  0.17181547377E+03  0.12509101783E+03 0.  0.
          5    1    3    3  502    0  0.47709858377E+02 -0.82324944202E+01  0.38318998982E+02  0.61885560786E+02  0.41800000000E+01 0.  1.
         -5    1    3    3    0  502 -0.14299005102E+02  0.10790529202E+03  0.14802019341E+02  0.10992991299E+03  0.41800000000E+01 0.  1.
        -11    1    1    2    0    0  0.23826469292E+02 -0.47982967205E+02  0.10519802632E+03  0.11805376115E+03  0.00000000000E+00 0. -1.
         11    1    1    2    0    0 -0.57237322567E+02 -0.51689830395E+02  0.61910150474E+02  0.98898010054E+02  0.00000000000E+00 0.  1.
</event>
<event>
 6    1  0.2719869E-009  0.1231808E+03  0.7561462E-02  0.1237940E+00
          2   -1    0    0  501    0  0.00000000000E+00  0.00000000000E+00  0.14248731741E+03  0.14248731741E+03  0.00000000000E+00 0. -1.
         -2   -1    0    0    0  501 -0.00000000000E+00 -0.00000000000E+00 -0.15715458426E+03  0.15715458426E+03  0.00000000000E+00 0.  1.
          5    1    1    2  502    0 -0.61446917016E+02 -0.13963975748E+02  0.40315102893E+02  0.74923268420E+02  0.41800000000E+01 0. -1.
         -5    1    1    2    0  502  0.33771344290E+02 -0.76250393459E+02 -0.12019056238E+02  0.84359684154E+02  0.41800000000E+01 0. -1.
        -11    1    1    2    0    0 -0.66402329674E+01  0.26758050292E+02 -0.60178020968E+02  0.66192750033E+02  0.00000000000E+00 0.  1.
         11    1    1    2    0    0  0.34315805693E+02  0.63456318915E+02  0.17214707466E+02  0.74166199065E+02  0.00000000000E+00 0. -1.
</event>
<event>
 7    1  0.2719869E-009  0.1119159E+03  0.7561462E-02  0.1257063E+00
         -2   -1    0    0    0  501 -0.00000000000E+00  0.00000000000E+00  0.18340982583E+02  0.18340982583E+02  0.00000000000E+00 0.  1.
          2   -1    0    0  501    0  0.00000000000E+00 -0.00000000000E+00 -0.10368075745E+04  0.10368075745E+04  0.00000000000E+00 0. -1.
         25    2    1    2    0    0  0.17628164888E+02  0.22186554533E+02 -0.86097196785E+03  0.87047321705E+03  0.12509155360E+03 0.  0.
          5    1    3    3  502    0  0.45694701708E+01 -0.51894391401E+02 -0.39678464700E+03  0.40021173948E+03  0.41800000000E+01 0.  1.
         -5    1    3    3    0  502  0.13058694717E+02  0.74080945933E+02 -0.46418732084E+03  0.47026147757E+03  0.41800000000E+01 0.  1.
        -11    1    1    2    0    0 -0.54377271941E+02 -0.23995640227E+02 -0.91293663968E+02  0.10893673180E+03  0.00000000000E+00 0.  1.
         11    1    1    2    0    0  0.36749107053E+02  0.18090856938E+01 -0.66200960145E+02  0.75738608281E+02  0.00000000000E+00 0. -1.
</event>
<event>
 7    1  0.2719869E-009  0.1006644E+03  0.7561462E-02  0.1278905E+00
          1   -1    0    0  501    0  0.00000000000E+00  0.00000000000E+00  0.24738020294E+03  0.24738020294E+03  0.00000000000E+00 0. -1.
         -1   -1    0    0    0  501 -0.00000000000E+00 -0.00000000000E+00 -0.72131893882E+02  0.72131893882E+02  0.00000000000E+00 0.  1.
         25    2    1    2    0    0  0.41503833272E+02 -0.55295099881E+02  0.14047297795E+03  0.20039886152E+03  0.12508768891E+03 0.  0.
          5    1    3    3  502    0  0.45182457528E+02 -0.75510730704E+02  0.38238753212E+02  0.96036449158E+02  0.41800000000E+01 0. -1.
         -5    1    3    3    0  502 -0.36786242559E+01  0.20215630823E+02  0.10223422474E+03  0.10436241236E+03  0.41800000000E+01 0. -1.
        -11    1    1    2    0    0 -0.45637094857E+02  0.99209928818E+01  0.52462354596E+02  0.70238658704E+02  0.00000000000E+00 0. -1.
         11    1    1    2    0    0  0.41332615850E+01  0.45374106999E+02 -0.17687023492E+02  0.48874576595E+02  0.00000000000E+00 0.  1.
</event>
<event>
 7    1  0.2719869E-009  0.7289245E+02  0.7561462E-02  0.1350524E+00
          4   -1    0    0  501    0  0.00000000000E+00  0.00000000000E+00  0.94935673458E+03  0.94935673458E+03  0.00000000000E+00 0. -1.
         -4   -1    0    0    0  501 -0.00000000000E+00 -0.00000000000E+00 -0.15069396208E+02  0.15069396208E+02  0.00000000000E+00 0.  1.
         25    2    1    2    0    0  0.37010762790E+02 -0.34552601189E+02  0.51775431328E+03  0.53505220881E+03  0.12509060089E+03 0.  0.
          5    1    3    3  502    0  0.15389825942E+02 -0.21041433028E+01  0.48111547358E+03  0.48138430124E+03  0.41800000000E+01 0.  1.
         -5    1    3    3    0  502  0.21620936848E+02 -0.32448457886E+02  0.36638839699E+02  0.53667907579E+02  0.41800000000E+01 0.  1.
        -11    1    1    2    0    0  0.19577929142E+02 -0.64377140648E+01  0.28913801860E+02  0.35507005082E+02  0.00000000000E+00 0.  1.
         11    1    1    2    0    0 -0.56588691932E+02  0.40990315254E+02  0.38761922324E+03  0.39386691690E+03  0.00000000000E+00 0. -1.
</event>
<event>
 7    1  0.2719869E-009  0.7902143E+02  0.7561462E-02  0.1331852E+00
         -3   -1    0    0    0  501 -0.00000000000E+00  0.00000000000E+00  0.12682979271E+03  0.12682979271E+03  0.00000000000E+00 0.  1.
          3   -1    0    0  501    0  0.00000000000E+00 -0.00000000000E+00 -0.13479496591E+03  0.13479496591E+03  0.00000000000E+00 0. -1.
         25    2    1    2    0    0  0.52536020586E+02  0.26366310674E+02 -0.49474687691E+02  0.14679711829E+03  0.12508570430E+03 0.  0.
          5    1    3    3  502    0  0.15399286805E+02  0.28342461641E+02  0.38970529690E+02  0.50760296988E+02  0.41800000000E+01 0. -1.
         -5    1    3    3    0  502  0.37136733781E+02 -0.19761509671E+01 -0.88445217381E+02  0.96036821304E+02  0.41800000000E+01 0. -1.
        -11    1    1    2    0    0 -0.35718390196E+02  0.18467200976E+02  0.52074431958E+02  0.65792000834E+02  0.00000000000E+00 0.  1.
         11    1    1    2    0    0 -0.16817630391E+02 -0.44833511650E+02 -0.10564917468E+02  0.49035639488E+02  0.00000000000E+00 0. -1.
</event>
<event>
 7    1  0.2719869E-009  0.3560755E+03  0.7561462E-02  0.1060149E+00
          2   -1    0    0  501    0  0.00000000000E+00  0.00000000000E+00  0.63684307141E+03  0.63684307141E+03  0.00000000000E+00 0. -1.
         -2   -1    0    0    0  501 -0.00000000000E+00 -0.00000000000E+00 -0.27348705345E+03  0.27348705345E+03  0.00000000000E+00 0.  1.
         25    2    1    2    0    0 -0.16418007152E+03  0.31193103193E+03  0.39760686291E+03  0.54588887239E+03  0.12508948396E+03 0.  0.
          5    1    3    3  502    0 -0.18649414262E+02  0.41265824844E+02  0.28037326823E+01  0.45563167903E+02  0.41800000000E+01 0.  1.
         -5    1    3    3    0  502 -0.14553065726E+03  0.27066520709E+03  0.39480313023E+03  0.50032570449E+03  0.41800000000E+01 0.  1.
        -11    1    1    2    0    0  0.11589409028E+03 -0.14534615652E+03  0.74958971952E+01  0.18604605304E+03  0.00000000000E+00 0.  1.
         11    1    1    2    0    0  0.48285981244E+02 -0.16658487541E+03 -0.41746742146E+02  0.17839519943E+03  0.00000000000E+00 0. -1.
</event>
<event>
 7    1  0.2719869E-009  0.1205897E+03  0.7561462E-02  0.1242127E+00
         -1   -1    0    0    0  501 -0.00000000000E+00  0.00000000000E+00  0.48897172261E+02  0.48897172261E+02  0.00000000000E+00 0.  1.
          1   -1    0    0  501    0  0.00000000000E+00 -0.00000000000E+00 -0.39752831132E+03  0.39752831132E+03  0.00000000000E+00 0. -1.
         25    2    1    2    0    0  0.16515793896E+02  0.85283215513E+02 -0.17506262746E+03  0.23203450669E+03  0.12508833064E+03 0.  0.
          5    1    3    3  502    0  0.56136138135E+02  0.67837946429E+02 -0.53952586136E+02  0.10335185983E+03  0.41800000000E+01 0.  1.
         -5    1    3    3    0  502 -0.39620344238E+02  0.17445269084E+02 -0.12111004133E+03  0.12868264685E+03  0.41800000000E+01 0.  1.
        -11    1    1    2    0    0  0.64206496974E+01  0.98048800690E+01  0.33875174129E+01  0.12199823356E+02  0.00000000000E+00 0.  1.
         11    1    1    2    0    0 -0.22936443594E+02 -0.95088095582E+02 -0.17695602901E+03  0.20219115354E+03  0.00000000000E+00 0. -1.
</event>
<event>
 7    1  0.2719869E-009  0.1238631E+03  0.7561462E-02  0.1236857E+00
          1   -1    0    0  501    0  0.00000000000E+00  0.00000000000E+00  0.48691787314E+03  0.48691787314E+03  0.00000000000E+00 0. -1.
         -1   -1    0    0    0  501 -0.00000000000E+00 -0.00000000000E+00 -0.55375133230E+02  0.55375133230E+02  0.00000000000E+00 0.  1.
         25    2    1    2    0    0  0.52115742301E+02 -0.41239885427E+02  0.40047121014E+03  0.42478441796E+03  0.12509129803E+03 0.  0.
          5    1    3    3  502    0  0.64849232126E+02 -0.77565788049E+02  0.25766674487E+03  0.27682394801E+03  0.41800000000E+01 0.  1.
         -5    1    3    3    0  502 -0.12733489825E+02  0.36325902622E+02  0.14280446528E+03  0.14796046995E+03  0.41800000000E+01 0.  1.
        -11    1    1    2    0    0  0.11064085188E+02  0.43212725454E+02  0.30959729114E+02  0.54297867813E+02  0.00000000000E+00 0. -1.
         11    1    1    2    0    0 -0.63179827489E+02 -0.19728400277E+01  0.11180065642E+00  0.63210720599E+02  0.00000000000E+00 0.  1.
</event>
<event>
 7    1  0.2719869E-009  0.1060579E+03  0.7561462E-02  0.1268049E+00
          1   -1    0    0  501    0  0.00000000000E+00  0.00000000000E+00  0.97229531050E+02  0.97229531050E+02  0.00000000000E+00 0. -1.
         -1   -1    0    0    0  501 -0.00000000000E+00 -0.00000000000E+00 -0.14396649770E+03  0.14396649770E+03  0.00000000000E+00 0.  1.
         25    2    1    2    0    0 -0.24751573495E+02 -0.29794597113E+02 -0.54076349500E+02  0.14169068005E+03  0.12510650995E+03 0.  0.
          5    1    3    3  502    0 -0.63885006683E+01  0.47195119881E+02 -0.40857747193E+01  0.47982895248E+02  0.41800000000E+01 0. -1.
         -5    1    3    3    0  502 -0.18363072827E+02 -0.76989716993E+02 -0.49990574781E+02  0.93707784806E+02  0.41800000000E+01 0. -1.
        -11    1    1    2    0    0  0.51294691882E+02  0.10829698815E+02  0.29416886688E+02  0.60114732089E+02  0.00000000000E+00 0.  1.
         11    1    1    2    0    0 -0.26543118387E+02  0.18964898298E+02 -0.22077503842E+02  0.39390616612E+02  0.00000000000E+00 0. -1.
</event>
<event>
 7    1  0.2719869E-009  0.1195020E+03  0.7561462E-02  0.1243921E+00
         -2   -1    0    0    0  501 -0.00000000000E+00  0.00000000000E+00  0.27165394242E+03  0.27165394242E+03  0.00000000000E+00 0.  1.
          2   -1    0    0  501    0  0.00000000000E+00 -0.00000000000E+00 -0.75003735647E+02  0.75003735647E+02  0.00000000000E+00 0. -1.
         25    2    1    2    0    0 -0.73444600276E+02 -0.30202829667E+00  0.17592645733E+03  0.22801772731E+03  0.12509102705E+03 0.  0.
          5    1    3    3  502    0 -0.47238746904E+02  0.56896884511E+02  0.57194885019E+02  0.93581418820E+02  0.41800000000E+01 0.  1.
         -5    1    3    3    0  502 -0.26205853373E+02 -0.57198912807E+02  0.11873157231E+03  0.13443630849E+03  0.41800000000E+01 0.  1.
        -11    1    1    2    0    0  0.36531270370E+02 -0.35152689988E+02 -0.18697996278E+02  0.54035732558E+02  0.00000000000E+00 0. -1.
         11    1    1    2    0    0  0.36913329906E+02  0.35454718285E+02  0.39421745725E+02  0.64604218202E+02  0.00000000000E+00 0.  1.
</event>
<event>
 7    1  0.2719869E-009  0.1082318E+03  0.7561462E-02  0.1263880E+00
         -1   -1    0    0    0  501 -0.00000000000E+00  0.00000000000E+00  0.77092531917E+02  0.77092531917E+02  0.00000000000E+00 0.  1.
          1   -1    0    0  501    0  0.00000000000E+00 -0.00000000000E+00 -0.24080701679E+03  0.24080701679E+03  0.00000000000E+00 0. -1.
         25    2    1    2    0    0  0.72556341583E+02 -0.33643970814E+01 -0.42619232023E+02  0.15080532638E+03  0.12510038231E+03 0.  0.
          5    1    3    3  502    0  0.72490902430E+02  0.51296614577E+02 -0.34611864496E+02  0.95402972522E+02  0.41800000000E+01 0. -1.
         -5    1    3    3    0  502  0.65439152734E-01 -0.54661011658E+02 -0.80073675267E+01  0.55402353853E+02  0.41800000000E+01 0. -1.
        -11    1    1    2    0    0 -0.48685242482E+02  0.40999436128E+01 -0.56252903823E+01  0.49180344296E+02  0.00000000000E+00 0.  1.
         11    1    1    2    0    0 -0.23871099101E+02 -0.73554653132E+00 -0.11546996247E+03  0.11791387804E+03  0.00000000000E+00 0. -1.
</event>
<event>
 7    1  0.2719869E-009  0.8284131E+02  0.7561462E-02  0.1321176E+00
         -1   -1    0    0    0  501 -0.00000000000E+00  0.00000000000E+00  0.27956621878E+02  0.27956621878E+02  0.00000000000E+00 0.  1.
          1   -1    0    0  501    0  0.00000000000E+00 -0.00000000000E+00 -0.78087016700E+03  0.78087016700E+03  0.00000000000E+00 0. -1.
         25    2    1    2    0    0  0.49796559731E+01 -0.46656885473E+02 -0.65502985325E+03  0.66851548713E+03  0.12508871235E+03 0.  0.
          5    1    3    3  502    0 -0.27356403754E+02  0.20846499069E+02 -0.42861134659E+03  0.43000942800E+03  0.41800000000E+01 0.  1.
         -5    1    3    3    0  502  0.32336059727E+02 -0.67503384541E+02 -0.22641850666E+03  0.23850605913E+03  0.41800000000E+01 0.  1.
        -11    1    1    2    0    0  0.12552664927E+02  0.26715484607E+02  0.84574394045E+01  0.30705289379E+02  0.00000000000E+00 0.  1.
         11    1    1    2    0    0 -0.17532320900E+02  0.19941400865E+02 -0.10634113128E+03  0.10960601236E+03  0.00000000000E+00 0. -1.
</event>
<event>
 7    1  0.2719869E-009  0.1320106E+03  0.7561462E-02  0.1224503E+00
         -1   -1    0    0    0  501 -0.00000000000E+00  0.00000000000E+00  0.34576813594E+02  0.34576813594E+02  0.00000000000E+00 0.  1.
          1   -1    0    0  501    0  0.00000000000E+00 -0.00000000000E+00 -0.72235335527E+03  0.72235335527E+03  0.00000000000E+00 0. -1.
         25    2    1    2    0    0 -0.83783931467E+02 -0.29622097355E+02 -0.19541667332E+03  0.24845876280E+03  0.12508742854E+03 0.  0.
          5    1    3    3  502    0  0.24323180286E+02 -0.13419818584E+02 -0.45406390263E+01  0.28456957547E+02  0.41800000000E+01 0.  1.
         -5    1    3    3    0  502 -0.10810711175E+03 -0.16202278772E+02 -0.19087603429E+03  0.22000180526E+03  0.41800000000E+01 0.  1.
        -11    1    1    2    0    0  0.10237524263E+03  0.16304886722E+02 -0.41875325910E+03  0.43139405611E+03  0.00000000000E+00 0.  1.
         11    1    1    2    0    0 -0.18591311163E+02  0.13317210633E+02 -0.73606609258E+02  0.77077349956E+02  0.00000000000E+00 0. -1.
</event>
<event>
 7    1  0.2719869E-009  0.1023422E+03  0.7561462E-02  0.1275446E+00
         -2   -1    0    0    0  501 -0.00000000000E+00  0.00000000000E+00  0.26629908728E+02  0.26629908728E+02  0.00000000000E+00 0. -1.
          2   -1    0    0  501    0  0.00000000000E+00 -0.00000000000E+00 -0.47645366999E+03  0.47645366999E+03  0.00000000000E+00 0.  1.
         25    2    1    2    0    0  0.28009949485E+02  0.25662194352E+02 -0.27796775531E+03  0.30717493138E+03  0.12508900824E+03 0.  0.
          5    1    3    3  502    0  0.62419544781E+02 -0.79414231436E+01 -0.72393967973E+02  0.96008461977E+02  0.41800000000E+01 0.  1.
         -5    1    3    3    0  502 -0.34409595296E+02  0.33603617496E+02 -0.20557378734E+03  0.21116646940E+03  0.41800000000E+01 0.  1.
        -11    1    1    2    0    0 -0.57424536537E+02 -0.55064545493E+01 -0.94258022823E+02  0.11051005974E+03  0.00000000000E+00 0.  1.
         11    1    1    2    0    0  0.29414587052E+02 -0.20155739803E+02 -0.77597983129E+02  0.85398587601E+02  0.00000000000E+00 0. -1.
</event>
<event>
 7    1  0.2719869E-009  0.7533098E+02  0.7561462E-02  0.1342849E+00
         -2   -1    0    0    0  501 -0.00000000000E+00  0.00000000000E+00  0.11885875414E+03  0.11885875414E+03  0.00000000000E+00 0.  1.
          2   -1    0    0  501    0  0.00000000000E+00 -0.00000000000E+00 -0.12351669147E+03  0.12351669147E+03  0.00000000000E+00 0. -1.
         25    2    1    2    0    0  0.49062330719E+02 -0.21286972459E+02 -0.46255211467E+01  0.13612253605E+03  0.12509077458E+03 0.  0.
          5    1    3    3  502    0  0.37471127665E+02 -0.23301363087E+02  0.57587336583E+02  0.72669200250E+02  0.41800000000E+01 0. -1.
         -5    1    3    3    0  502  0.11591203054E+02  0.20143906281E+01 -0.62212857730E+02  0.63453335805E+02  0.41800000000E+01 0. -1.
        -11    1    1    2    0    0 -0.47287963512E+02  0.47825200166E+02 -0.23031721053E+02  0.71090515814E+02  0.00000000000E+00 0. -1.
         11    1    1    2    0    0 -0.17743672074E+01 -0.26538227708E+02  0.22999304876E+02  0.35162393741E+02  0.00000000000E+00 0.  1.
</event>
<event>
 7    1  0.2719869E-009  0.1023635E+03  0.7561462E-02  0.1275403E+00
         -2   -1    0    0    0  501 -0.00000000000E+00  0.00000000000E+00  0.15925797683E+02  0.15925797683E+02  0.00000000000E+00 0.  1.
          2   -1    0    0  501    0  0.00000000000E+00 -0.00000000000E+00 -0.11429731528E+04  0.11429731528E+04  0.00000000000E+00 0. -1.
         25    2    1    2    0    0  0.37194550648E+02 -0.66496897765E+02 -0.73052264028E+03  0.74506127271E+03  0.12509076749E+03 0.  0.
          5    1    3    3  502    0  0.22913904619E+02  0.60694762983E+01 -0.54160670245E+03  0.54214128980E+03  0.41800000000E+01 0. -1.
         -5    1    3    3    0  502  0.14280646029E+02 -0.72566374064E+02 -0.18891593783E+03  0.20291998291E+03  0.41800000000E+01 0. -1.
        -11    1    1    2    0    0 -0.36701355591E+01  0.72440738011E+02 -0.34160267163E+03  0.34921843548E+03  0.00000000000E+00 0. -1.
         11    1    1    2    0    0 -0.33524415088E+02 -0.59438402456E+01 -0.54922043177E+02  0.64619242263E+02  0.00000000000E+00 0.  1.
</event>
<event>
 7    1  0.2719869E-009  0.3609447E+03  0.7561462E-02  0.1058210E+00
         -2   -1    0    0    0  501 -0.00000000000E+00  0.00000000000E+00  0.30709709635E+03  0.30709709635E+03  0.00000000000E+00 0.  1.
          2   -1    0    0  501    0  0.00000000000E+00 -0.00000000000E+00 -0.44731775803E+03  0.44731775803E+03  0.00000000000E+00 0. -1.
         25    2    1    2    0    0 -0.55526117018E+02 -0.34900308389E+03 -0.93872443774E+02  0.38645197166E+03  0.12508712348E+03 0.  0.
          5    1    3    3  502    0 -0.56208153740E+02 -0.92154809393E+02 -0.69420336381E+02  0.12840763585E+03  0.41800000000E+01 0.  1.
         -5    1    3    3    0  502  0.68203672271E+00 -0.25684827450E+03 -0.24452107393E+02  0.25804433581E+03  0.41800000000E+01 0.  1.
        -11    1    1    2    0    0  0.56697492404E+02  0.19758173569E+03 -0.64536421637E+02  0.21544859628E+03  0.00000000000E+00 0.  1.
         11    1    1    2    0    0 -0.11713753867E+01  0.15142134820E+03  0.18188203728E+02  0.15251428644E+03  0.00000000000E+00 0. -1.
</event>
<event>
 7    1  0.2719869E-009  0.1367464E+03  0.7561462E-02  0.1217775E+00
         -2   -1    0    0    0  501 -0.00000000000E+00  0.00000000000E+00  0.54238958569E+02  0.54238958569E+02  0.00000000000E+00 0. -1.
          2   -1    0    0  501    0  0.00000000000E+00 -0.00000000000E+00 -0.48229819327E+03  0.48229819327E+03  0.00000000000E+00 0.  1.
         25    2    1    2    0    0 -0.12007632457E+03 -0.10968044221E+02 -0.20386984701E+03  0.26785891198E+03  0.12508741139E+03 0.  0.
          5    1    3    3  502    0 -0.22011296117E+02  0.37311297167E+02 -0.12676980660E+03  0.13403240772E+03  0.41800000000E+01 0.  1.
         -5    1    3    3    0  502 -0.98065028453E+02 -0.48279341388E+02 -0.77100040411E+02  0.13382650426E+03  0.41800000000E+01 0.  1.
        -11    1    1    2    0    0  0.36866434288E+02  0.26444609780E+01 -0.93327594152E+01  0.38121221771E+02  0.00000000000E+00 0. -1.
         11    1    1    2    0    0  0.83209890281E+02  0.83235832432E+01 -0.21485662827E+03  0.23055701809E+03  0.00000000000E+00 0.  1.
</event>
<event>
 7    1  0.2719869E-009  0.8728367E+02  0.7561462E-02  0.1309566E+00
          1   -1    0    0  501    0  0.00000000000E+00  0.00000000000E+00  0.45161449245E+02  0.45161449245E+02  0.00000000000E+00 0. -1.
         -1   -1    0    0    0  501 -0.00000000000E+00 -0.00000000000E+00 -0.24829447810E+03  0.24829447810E+03  0.00000000000E+00 0.  1.
         25    2    1    2    0    0 -0.86013073097E+01  0.11911298929E+02 -0.13108044615E+03  0.18178336620E+03  0.12508895768E+03 0.  0.
          5    1    3    3  502    0  0.17236223227E+02  0.63210986426E+02 -0.88345877643E+02  0.11006899060E+03  0.41800000000E+01 0.  1.
         -5    1    3    3    0  502 -0.25837530537E+02 -0.51299687497E+02 -0.42734568507E+02  0.71714375595E+02  0.41800000000E+01 0.  1.
        -11    1    1    2    0    0  0.10578120512E+02 -0.30679745366E+02 -0.83510520250E+02  0.89594365904E+02  0.00000000000E+00 0.  1.
         11    1    1    2    0    0 -0.19768132023E+01  0.18768446437E+02  0.11457937549E+02  0.22078195239E+02  0.00000000000E+00 0. -1.
</event>
<event>
 7    1  0.2719869E-009  0.6866918E+02  0.7561462E-02  0.1364678E+00
         -1   -1    0    0    0  501 -0.00000000000E+00  0.00000000000E+00  0.27032362987E+02  0.27032362987E+02  0.00000000000E+00 0.  1.
          1   -1    0    0  501    0  0.00000000000E+00 -0.00000000000E+00 -0.52862457010E+03  0.52862457010E+03  0.00000000000E+00 0. -1.
         25    2    1    2    0    0  0.41026637637E+02 -0.46273705811E+01 -0.35655845818E+03  0.38011326418E+03  0.12509021525E+03 0.  0.
          5    1    3    3  502    0  0.51936474508E+02 -0.15185107146E+02 -0.35993903248E+03  0.36400764328E+03  0.41800000000E+01 0. -1.
         -5    1    3    3    0  502 -0.10909836870E+02  0.10557736565E+02  0.33805743023E+01  0.16105620898E+02  0.41800000000E+01 0. -1.
        -11    1    1    2    0    0  0.50037058033E+01 -0.16083880644E+02  0.47357564499E+01  0.17497304864E+02  0.00000000000E+00 0.  1.
         11    1    1    2    0    0 -0.46030343441E+02  0.20711251225E+02 -0.14976950539E+03  0.15804636405E+03  0.00000000000E+00 0. -1.
</event>
<event>
 7    1  0.2719869E-009  0.1297116E+03  0.7561462E-02  0.1227884E+00
          1   -1    0    0  501    0  0.00000000000E+00  0.00000000000E+00  0.24113615486E+02  0.24113615486E+02  0.00000000000E+00 0. -1.
         -1   -1    0    0    0  501 -0.00000000000E+00 -0.00000000000E+00 -0.89986389695E+03  0.89986389695E+03  0.00000000000E+00 0.  1.
         25    2    1    2    0    0 -0.72633388746E+02  0.62599564558E+02 -0.56428172063E+03  0.58588000326E+03  0.12508878184E+03 0.  0.
          5    1    3    3  502    0  0.33135331284E+02  0.34295828472E+02 -0.15926216416E+03  0.16630112256E+03  0.41800000000E+01 0. -1.
         -5    1    3    3    0  502 -0.10576872003E+03  0.28303736086E+02 -0.40501955646E+03  0.41957888070E+03  0.41800000000E+01 0. -1.
        -11    1    1    2    0    0  0.18766764312E+02 -0.38783757872E+02 -0.24718832112E+03  0.25091519965E+03  0.00000000000E+00 0.  1.
         11    1    1    2    0    0  0.53866624434E+02 -0.23815806687E+02 -0.64280239715E+02  0.87182309524E+02  0.00000000000E+00 0. -1.
</event>
<event>
 7    1  0.2719869E-009  0.1585009E+03  0.7561462E-02  0.1190400E+00
         -1   -1    0    0    0  501 -0.00000000000E+00  0.00000000000E+00  0.60939534152E+02  0.60939534152E+02  0.00000000000E+00 0.  1.
          1   -1    0    0  501    0  0.00000000000E+00 -0.00000000000E+00 -0.51381307516E+03  0.51381307516E+03  0.00000000000E+00 0. -1.
         25    2    1    2    0    0 -0.12424796488E+03 -0.25866735678E+02 -0.19761529236E+03  0.26609393881E+03  0.12509011034E+03 0.  0.
          5    1    3    3  502    0 -0.47319207624E+02  0.48234464401E+02 -0.10348207137E+03  0.12365954254E+03  0.41800000000E+01 0. -1.
         -5    1    3    3    0  502 -0.76928757257E+02 -0.74101200079E+02 -0.94133220983E+02  0.14243439626E+03  0.41800000000E+01 0. -1.
        -11    1    1    2    0    0  0.10413583005E+03  0.46096278193E+02 -0.25593110964E+03  0.28012474158E+03  0.00000000000E+00 0. -1.
         11    1    1    2    0    0  0.20112134832E+02 -0.20229542515E+02  0.67286099269E+00  0.28533928923E+02  0.00000000000E+00 0.  1.
</event>
<event>
 7    1  0.2719869E-009  0.1288712E+03  0.7561462E-02  0.1229140E+00
          2   -1    0    0  501    0  0.00000000000E+00  0.00000000000E+00  0.78518109711E+03  0.78518109711E+03  0.00000000000E+00 0. -1.
         -2   -1    0    0    0  501 -0.00000000000E+00 -0.00000000000E+00 -0.31556500157E+02  0.31556500157E+02  0.00000000000E+00 0.  1.
         25    2    1    2    0    0  0.11195059862E+03 -0.18979638919E+02  0.45735959643E+03  0.48756427281E+03  0.12509179211E+03 0.  0.
          5    1    3    3  502    0  0.66913242653E+02 -0.45322583893E+01  0.69004628096E+02  0.96317363477E+02  0.41800000000E+01 0. -1.
         -5    1    3    3    0  502  0.45037355971E+02 -0.14447380529E+02  0.38835496833E+03  0.39124690933E+03  0.41800000000E+01 0. -1.
        -11    1    1    2    0    0 -0.38461017198E+02 -0.34902758282E+02  0.95947805342E+02  0.10910285849E+03  0.00000000000E+00 0.  1.
         11    1    1    2    0    0 -0.73489581426E+02  0.53882397201E+02  0.20031719519E+03  0.22007046598E+03  0.00000000000E+00 0. -1.
</event>
<event>
 7    1  0.2719869E-009  0.1269840E+03  0.7561462E-02  0.1232001E+00
         -2   -1    0    0    0  501 -0.00000000000E+00  0.00000000000E+00  0.10532194331E+03  0.10532194331E+03  0.00000000000E+00 0. -1.
          2   -1    0    0  501    0  0.00000000000E+00 -0.00000000000E+00 -0.18295196493E+03  0.18295196493E+03  0.00000000000E+00 0.  1.
         25    2    1    2    0    0 -0.41794551924E+02 -0.70715051683E+02 -0.79362172339E+02  0.16939251363E+03  0.12509223066E+03 0.  0.
          5    1    3    3  502    0  0.34683237463E+02 -0.44200789473E+02 -0.55162123617E+00  0.56341933202E+02  0.41800000000E+01 0.  1.
         -5    1    3    3    0  502 -0.76477789386E+02 -0.26514262210E+02 -0.78810551103E+02  0.11305058043E+03  0.41800000000E+01 0.  1.
        -11    1    1    2    0    0  0.16303247957E+02 -0.17992291615E+02 -0.91454422224E+01  0.25945280206E+02  0.00000000000E+00 0. -1.
         11    1    1    2    0    0  0.25491303966E+02  0.88707343298E+02  0.10877592947E+02  0.92936114407E+02  0.00000000000E+00 0.  1.
</event>
<event>
 7    1  0.2719869E-009  0.9063806E+02  0.7561462E-02  0.1301314E+00
         -1   -1    0    0    0  501 -0.00000000000E+00  0.00000000000E+00  0.22823669375E+03  0.22823669375E+03  0.00000000000E+00 0.  1.
          1   -1    0    0  501    0  0.00000000000E+00 -0.00000000000E+00 -0.56298155161E+02  0.56298155161E+02  0.00000000000E+00 0. -1.
         25    2    1    2    0    0  0.92079077744E+01 -0.20877116092E+02  0.59222646199E+02  0.14026886977E+03  0.12508954577E+03 0.  0.
          5    1    3    3  502    0 -0.51878757162E+02 -0.35054341301E+02  0.18660017608E+02  0.65466639946E+02  0.41800000000E+01 0. -1.
         -5    1    3    3    0  502  0.61086664937E+02  0.14177225209E+02  0.40562628592E+02  0.74802229820E+02  0.41800000000E+01 0. -1.
        -11    1    1    2    0    0 -0.30404971052E+02  0.11727608314E+02  0.36601993595E+01  0.32793232850E+02  0.00000000000E+00 0. -1.
         11    1    1    2    0    0  0.21197063277E+02  0.91495077779E+01  0.10905569303E+03  0.11147274629E+03  0.00000000000E+00 0.  1.
</event>
<event>
 7    1  0.2719869E-009  0.1165633E+03  0.7561462E-02  0.1248877E+00
          2   -1    0    0  501    0  0.00000000000E+00  0.00000000000E+00  0.46923584817E+03  0.46923584817E+03  0.00000000000E+00 0. -1.
         -2   -1    0    0    0  501 -0.00000000000E+00 -0.00000000000E+00 -0.51544153738E+02  0.51544153738E+02  0.00000000000E+00 0.  1.
         25    2    1    2    0    0 -0.64091770414E+02  0.54590553362E+02  0.34915588540E+03  0.38032119104E+03  0.12508594045E+03 0.  0.
          5    1    3    3  502    0 -0.80036090891E+02  0.91530817255E+01  0.30276170209E+03  0.31332359535E+03  0.41800000000E+01 0.  1.
         -5    1    3    3    0  502  0.15944320477E+02  0.45437471636E+02  0.46394183307E+02  0.66997595695E+02  0.41800000000E+01 0.  1.
        -11    1    1    2    0    0  0.24443220928E+02  0.11531960269E+02 -0.11461044701E+02  0.29356646651E+02  0.00000000000E+00 0.  1.
         11    1    1    2    0    0  0.39648549486E+02 -0.66122513631E+02  0.79996853739E+02  0.11110216422E+03  0.00000000000E+00 0. -1.
</event>
<event>
 7    1  0.2719869E-009  0.1255215E+03  0.7561462E-02  0.1234256E+00
         -1   -1    0    0    0  501 -0.00000000000E+00  0.00000000000E+00  0.26986550507E+02  0.26986550507E+02  0.00000000000E+00 0.  1.
          1   -1    0    0  501    0  0.00000000000E+00 -0.00000000000E+00 -0.66954561107E+03  0.66954561107E+03  0.00000000000E+00 0. -1.
         25    2    1    2    0    0  0.19824124544E+02 -0.45055252227E+00 -0.44812958729E+03  0.46568317122E+03  0.12508992783E+03 0.  0.
          5    1    3    3  502    0  0.34755077712E+02  0.57114434216E+02 -0.24342591028E+03  0.25247498929E+03  0.41800000000E+01 0. -1.
         -5    1    3    3    0  502 -0.14930953168E+02 -0.57564986739E+02 -0.20470367701E+03  0.21320818193E+03  0.41800000000E+01 0. -1.
        -11    1    1    2    0    0 -0.64671813500E+02  0.29418421984E+02 -0.10926717020E+03  0.13033495884E+03  0.00000000000E+00 0.  1.
         11    1    1    2    0    0  0.44847688955E+02 -0.28967869462E+02 -0.85162303074E+02  0.10051403151E+03  0.00000000000E+00 0. -1.
</event>
<event>
 7    1  0.2719869E-009  0.1544901E+03  0.7561462E-02  0.1195062E+00
         -2   -1    0    0    0  501 -0.00000000000E+00  0.00000000000E+00  0.10508387963E+03  0.10508387963E+03  0.00000000000E+00 0.  1.
          2   -1    0    0  501    0  0.00000000000E+00 -0.00000000000E+00 -0.31020616262E+03  0.31020616262E+03  0.00000000000E+00 0. -1.
         25    2    1    2    0    0  0.11121669892E+03 -0.90587106723E+02 -0.13224017669E+03  0.23175416707E+03  0.12508937444E+03 0.  0.
          5    1    3    3  502    0  0.10045641887E+03 -0.72992507002E+02 -0.30599294546E+02  0.12795775630E+03  0.41800000000E+01 0.  1.
         -5    1    3    3    0  502  0.10760280058E+02 -0.17594599721E+02 -0.10164088214E+03  0.10379641077E+03  0.41800000000E+01 0.  1.
        -11    1    1    2    0    0 -0.26555551688E+02 -0.13280737831E+02 -0.31508501464E+02  0.43293890877E+02  0.00000000000E+00 0.  1.
         11    1    1    2    0    0 -0.84661147236E+02  0.10386784455E+03 -0.41373604847E+02  0.14024198430E+03  0.00000000000E+00 0. -1.
</event>
<event>
 7    1  0.2719869E-009  0.1525111E+03  0.7561462E-02  0.1197421E+00
          2   -1    0    0  501    0  0.00000000000E+00  0.00000000000E+00  0.14207807655E+04  0.14207807655E+04  0.00000000000E+00 0. -1.
         -2   -1    0    0    0  501 -0.00000000000E+00 -0.00000000000E+00 -0.22993439640E+02  0.22993439640E+02  0.00000000000E+00 0.  1.
         25    2    1    2    0    0  0.13091444480E+03 -0.39367782759E+02  0.91345504979E+03  0.93206040578E+03  0.12509219739E+03 0.  0.
          5    1    3    3  502    0  0.11174925778E+03 -0.22630833714E+02  0.88974621079E+03  0.89703168465E+03  0.41800000000E+01 0.  1.
         -5    1    3    3    0  502  0.19165187022E+02 -0.16736949045E+02  0.23708838999E+02  0.35028721124E+02  0.41800000000E+01 0.  1.
        -11    1    1    2    0    0 -0.12523622065E+01 -0.21758097441E+02  0.62701547649E+02  0.66381226962E+02  0.00000000000E+00 0.  1.
         11    1    1    2    0    0 -0.12966208259E+03  0.61125880200E+02  0.42163072838E+03  0.44533257237E+03  0.00000000000E+00 0. -1.
</event>
<event>
 7    1  0.2719869E-009  0.1140159E+03  0.7561462E-02  0.1253309E+00
          2   -1    0    0  501    0  0.00000000000E+00  0.00000000000E+00  0.17951382441E+03  0.17951382441E+03  0.00000000000E+00 0. -1.
         -2   -1    0    0    0  501 -0.00000000000E+00 -0.00000000000E+00 -0.96966245120E+02  0.96966245120E+02  0.00000000000E+00 0.  1.
         25    2    1    2    0    0  0.76699210661E+01 -0.75793243643E+02  0.37110801556E+02  0.15108956937E+03  0.12508957953E+03 0.  0.
          5    1    3    3  502    0 -0.46609253317E+02 -0.25759589675E+02 -0.20642899040E+02  0.57267622927E+02  0.41800000000E+01 0. -1.
         -5    1    3    3    0  502  0.54279174383E+02 -0.50033653968E+02  0.57753700596E+02  0.93821946439E+02  0.41800000000E+01 0. -1.
        -11    1    1    2    0    0 -0.21822636003E+02  0.82266497785E+02  0.87757395247E+01  0.85562945860E+02  0.00000000000E+00 0.  1.
         11    1    1    2    0    0  0.14152714937E+02 -0.64732541426E+01  0.36661038208E+02  0.39827554303E+02  0.00000000000E+00 0. -1.
</event>
<event>
 7    1  0.2719869E-009  0.3302615E+03  0.7561462E-02  0.1071021E+00
         -4   -1    0    0    0  501 -0.00000000000E+00  0.00000000000E+00  0.25789561870E+03  0.25789561870E+03  0.00000000000E+00 0.  1.
          4   -1    0    0  501    0  0.00000000000E+00 -0.00000000000E+00 -0.57179505268E+03  0.57179505268E+03  0.00000000000E+00 0. -1.
         25    2    1    2    0    0  0.33560140156E+02 -0.31620710356E+03  0.42277834114E+02  0.34430904657E+03  0.12509232168E+03 0.  0.
          5    1    3    3  502    0  0.81082917239E+02 -0.20032303854E+03  0.20626718369E+02  0.21713289283E+03  0.41800000000E+01 0. -1.
         -5    1    3    3    0  502 -0.47522777083E+02 -0.11588406502E+03  0.21651115746E+02  0.12717615374E+03  0.41800000000E+01 0. -1.
        -11    1    1    2    0    0 -0.14328401440E+02  0.24099279149E+03 -0.31688546702E+03  0.39837071661E+03  0.00000000000E+00 0.  1.
         11    1    1    2    0    0 -0.19231738716E+02  0.75214312067E+02 -0.39291801070E+02  0.87010908196E+02  0.00000000000E+00 0. -1.
</event>
<event>
 7    1  0.2719869E-009  0.1178537E+03  0.7561462E-02  0.1246680E+00
         -2   -1    0    0    0  501 -0.00000000000E+00  0.00000000000E+00  0.14402098920E+03  0.14402098920E+03  0.00000000000E+00 0. -1.
          2   -1    0    0  501    0  0.00000000000E+00 -0.00000000000E+00 -0.10486305891E+03  0.10486305891E+03  0.00000000000E+00 0.  1.
         25    2    1    2    0    0 -0.55985016889E+02 -0.79454194562E+01  0.22735548478E+02  0.13914728464E+03  0.12509040671E+03 0.  0.
          5    1    3    3  502    0  0.33877156298E+02 -0.24701480628E+02 -0.74555982896E+01  0.42788821085E+02  0.41800000000E+01 0.  1.
         -5    1    3    3    0  502 -0.89862173186E+02  0.16756061171E+02  0.30191146768E+02  0.96358463556E+02  0.41800000000E+01 0.  1.
        -11    1    1    2    0    0  0.88340600588E+01  0.42628048542E+02  0.25578496878E+02  0.50492084946E+02  0.00000000000E+00 0. -1.
         11    1    1    2    0    0  0.47150956830E+02 -0.34682629086E+02 -0.91561150710E+01  0.59244678525E+02  0.00000000000E+00 0.  1.
</event>
<event>
 7    1  0.2719869E-009  0.1053558E+03  0.7561462E-02  0.1269420E+00
          1   -1    0    0  501    0  0.00000000000E+00  0.00000000000E+00  0.50039149865E+03  0.50039149865E+03  0.00000000000E+00 0. -1.
         -1   -1    0    0    0  501 -0.00000000000E+00 -0.00000000000E+00 -0.44848436246E+02  0.44848436246E+02  0.00000000000E+00 0.  1.
         25    2    1    2    0    0 -0.30180837840E+02 -0.22548894031E+02  0.42325157452E+03  0.44295340024E+03  0.12508590590E+03 0.  0.
          5    1    3    3  502    0 -0.20785289782E+02 -0.68734300514E+02  0.33684920207E+03  0.34444344916E+03  0.41800000000E+01 0. -1.
         -5    1    3    3    0  502 -0.93955480585E+01  0.46185406484E+02  0.86402372451E+02  0.98509951074E+02  0.41800000000E+01 0. -1.
        -11    1    1    2    0    0 -0.69756634602E+01 -0.27928769305E+02 -0.51974271336E+01  0.29252167175E+02  0.00000000000E+00 0.  1.
         11    1    1    2    0    0  0.37156501300E+02  0.50477663336E+02  0.37488915025E+02  0.73034367489E+02  0.00000000000E+00 0. -1.
</event>
<event>
 7    1  0.2719869E-009  0.1287718E+03  0.7561462E-02  0.1229290E+00
         -2   -1    0    0    0  501 -0.00000000000E+00  0.00000000000E+00  0.24336378470E+02  0.24336378470E+02  0.00000000000E+00 0.  1.
          2   -1    0    0  501    0  0.00000000000E+00 -0.00000000000E+00 -0.82633567873E+03  0.82633567873E+03  0.00000000000E+00 0. -1.
         25    2    1    2    0    0  0.84414407962E+02  0.19886366790E+02 -0.37207448984E+03  0.40200720466E+03  0.12509638984E+03 0.  0.
          5    1    3    3  502    0  0.71556496273E+01  0.60328726905E+02 -0.10942548917E+03  0.12522846598E+03  0.41800000000E+01 0.  1.
         -5    1    3    3    0  502  0.77258758335E+02 -0.40442360115E+02 -0.26264900067E+03  0.27677873868E+03  0.41800000000E+01 0.  1.
        -11    1    1    2    0    0  0.11326309295E+02 -0.52777624917E+01 -0.60808637693E+01  0.13896652955E+02  0.00000000000E+00 0.  1.
         11    1    1    2    0    0 -0.95740717258E+02 -0.14608604299E+02 -0.42384394665E+03  0.43476819958E+03  0.00000000000E+00 0. -1.
</event>
<event>
 7    1  0.2719869E-009  0.1046231E+03  0.7561462E-02  0.1270864E+00
         -1   -1    0    0    0  501 -0.00000000000E+00  0.00000000000E+00  0.27904625498E+02  0.27904625498E+02  0.00000000000E+00 0.  1.
          1   -1    0    0  501    0  0.00000000000E+00 -0.00000000000E+00 -0.57753242098E+03  0.57753242098E+03  0.00000000000E+00 0. -1.
         25    2    1    2    0    0 -0.48656628807E+02 -0.51306415455E+02 -0.25602981802E+03  0.29360080676E+03  0.12510135978E+03 0.  0.
          5    1    3    3  502    0 -0.75037315071E+02 -0.25581990943E+02 -0.76386336989E+02  0.11016978620E+03  0.41800000000E+01 0.  1.
         -5    1    3    3    0  502  0.26380686264E+02 -0.25724424512E+02 -0.17964348103E+03  0.18343102055E+03  0.41800000000E+01 0.  1.
        -11    1    1    2    0    0  0.52079194125E+01  0.48988229760E+02 -0.80788398152E+02  0.94624174266E+02  0.00000000000E+00 0.  1.
         11    1    1    2    0    0  0.43448709394E+02  0.23181856959E+01 -0.21280957931E+03  0.21721206546E+03  0.00000000000E+00 0. -1.
</event>
<event>
 7    1  0.2719869E-009  0.1272083E+03  0.7561462E-02  0.1231658E+00
         -1   -1    0    0    0  501 -0.00000000000E+00  0.00000000000E+00  0.21369975241E+03  0.21369975241E+03  0.00000000000E+00 0.  1.
          1   -1    0    0  501    0  0.00000000000E+00 -0.00000000000E+00 -0.14851449481E+03  0.14851449481E+03  0.00000000000E+00 0. -1.
         25    2    1    2    0    0  0.86549698864E+02  0.42154350213E+02 -0.86410341210E+02  0.17995006686E+03  0.12508972731E+03 0.  0.
          5    1    3    3  502    0 -0.46940713738E+01  0.62976099178E+02 -0.44210745246E+02  0.77201591751E+02  0.41800000000E+01 0. -1.
         -5    1    3    3    0  502  0.91243770238E+02 -0.20821748965E+02 -0.42199595964E+02  0.10274847511E+03  0.41800000000E+01 0. -1.
        -11    1    1    2    0    0 -0.34656238247E+02 -0.87975770612E+01  0.80826355713E+02  0.88381853281E+02  0.00000000000E+00 0.  1.
         11    1    1    2    0    0 -0.51893460617E+02 -0.33356773152E+02  0.70769243097E+02  0.93882327083E+02  0.00000000000E+00 0. -1.
</event>
<event>
 7    1  0.2719869E-009  0.1006341E+03  0.7561462E-02  0.1278968E+00
         -1   -1    0    0    0  501 -0.00000000000E+00  0.00000000000E+00  0.15145063459E+03  0.15145063459E+03  0.00000000000E+00 0.  1.
          1   -1    0    0  501    0  0.00000000000E+00 -0.00000000000E+00 -0.90020233682E+02  0.90020233682E+02  0.00000000000E+00 0. -1.
         25    2    1    2    0    0  0.31028548998E+02  0.23807469839E+02  0.13233940217E+02  0.13172384957E+03  0.12508584611E+03 0.  0.
          5    1    3    3  502    0 -0.13052900539E+02  0.50310694791E+02  0.46879766793E+02  0.70119392163E+02  0.41800000000E+01 0.  1.
         -5    1    3    3    0  502  0.44081449538E+02 -0.26503224952E+02 -0.33645826575E+02  0.61604457405E+02  0.41800000000E+01 0.  1.
        -11    1    1    2    0    0  0.44087769600E+01 -0.52030130693E+02  0.33843905114E+02  0.62225249920E+02  0.00000000000E+00 0.  1.
         11    1    1    2    0    0 -0.35437325958E+02  0.28222660854E+02  0.14352555575E+02  0.47521768783E+02  0.00000000000E+00 0. -1.
</event>
<event>
 7    1  0.2719869E-009  0.1165342E+03  0.7561462E-02  0.1248926E+00
          3   -1    0    0  501    0  0.00000000000E+00  0.00000000000E+00  0.96469611499E+02  0.96469611499E+02  0.00000000000E+00 0. -1.
         -3   -1    0    0    0  501 -0.00000000000E+00 -0.00000000000E+00 -0.46835712533E+03  0.46835712533E+03  0.00000000000E+00 0.  1.
         25    2    1    2    0    0  0.74471367157E+02 -0.65670120770E+02 -0.39588484414E+03  0.42688502792E+03  0.12508983952E+03 0.  0.
          5    1    3    3  502    0  0.38058856049E+02 -0.37346477271E+02 -0.36995412486E+03  0.37380043176E+03  0.41800000000E+01 0. -1.
         -5    1    3    3    0  502  0.36412511108E+02 -0.28323643499E+02 -0.25930719284E+02  0.53084596154E+02  0.41800000000E+01 0. -1.
        -11    1    1    2    0    0 -0.87112804935E+02  0.77016200195E+02  0.11480116404E+02  0.11684146930E+03  0.00000000000E+00 0. -1.
         11    1    1    2    0    0  0.12641437778E+02 -0.11346079426E+02  0.12517213908E+02  0.21100239606E+02  0.00000000000E+00 0.  1.
</event>
<event>
 7    1  0.2971550E-009  0.1202457E+03  0.7561462E-02  0.1242692E+00
          2   -1    0    0  501    0  0.00000000000E+00  0.00000000000E+00  0.13657120850E+04  0.13657120850E+04  0.00000000000E+00 0. -1.
         -2   -1    0    0    0  501 -0.00000000000E+00 -0.00000000000E+00 -0.15573763827E+02  0.15573763827E+02  0.00000000000E+00 0.  1.
         25    2    1    2    0    0 -0.30354706370E+02 -0.82316722078E+02  0.92526250347E+03  0.93779387800E+03  0.12509678796E+03 0.  0.
          5    1    3    3  502    0 -0.23636503042E+02  0.63500489609E+01  0.34021494557E+02  0.42118189535E+02  0.41800000000E+01 0. -1.
         -5    1    3    3    0  502 -0.67182033287E+01 -0.88666771039E+02  0.89124100891E+03  0.89567568846E+03  0.41800000000E+01 0. -1.
        -11    1    1    2    0    0 -0.29124264752E+02  0.52668235019E+02  0.18235407792E+03  0.19202910069E+03  0.00000000000E+00 0.  1.
         11    1    1    2    0    0  0.59478971122E+02  0.29648487060E+02  0.24252173981E+03  0.25146287017E+03  0.00000000000E+00 0. -1.
</event>
<event>
 7    1  0.2719869E-009  0.9203261E+02  0.7561462E-02  0.1298003E+00
         -1   -1    0    0    0  501 -0.00000000000E+00  0.00000000000E+00  0.39823444321E+02  0.39823444321E+02  0.00000000000E+00 0.  1.
          1   -1    0    0  501    0  0.00000000000E+00 -0.00000000000E+00 -0.42651381492E+03  0.42651381492E+03  0.00000000000E+00 0. -1.
         25    2    1    2    0    0 -0.67983973408E+01 -0.74406213712E+01 -0.33799674434E+03  0.36054246458E+03  0.12508992178E+03 0.  0.
          5    1    3    3  502    0 -0.47177409356E+02 -0.38219859215E+02 -0.26251710712E+03  0.26947944174E+03  0.41800000000E+01 0.  1.
         -5    1    3    3    0  502  0.40379012016E+02  0.30779237844E+02 -0.75479637217E+02  0.91063022836E+02  0.41800000000E+01 0.  1.
        -11    1    1    2    0    0 -0.81631655266E+01  0.37663357774E+02 -0.59053706978E+02  0.70515998880E+02  0.00000000000E+00 0. -1.
         11    1    1    2    0    0  0.14961562867E+02 -0.30222736403E+02  0.10360080719E+02  0.35278795779E+02  0.00000000000E+00 0.  1.
</event>
<event>
 7    1  0.2719869E-009  0.8671562E+02  0.7561462E-02  0.1311006E+00
          2   -1    0    0  501    0  0.00000000000E+00  0.00000000000E+00  0.47092791983E+02  0.47092791983E+02  0.00000000000E+00 0. -1.
         -2   -1    0    0    0  501 -0.00000000000E+00 -0.00000000000E+00 -0.30014732587E+03  0.30014732587E+03  0.00000000000E+00 0.  1.
         25    2    1    2    0    0 -0.47960205684E+02 -0.29394370532E+01 -0.15150817791E+03  0.20226574105E+03  0.12509148816E+03 0.  0.
          5    1    3    3  502    0 -0.58656011575E+02 -0.31921194220E+02 -0.24129748053E+02  0.71128106087E+02  0.41800000000E+01 0. -1.
         -5    1    3    3    0  502  0.10695805891E+02  0.28981757167E+02 -0.12737842985E+03  0.13113763497E+03  0.41800000000E+01 0. -1.
        -11    1    1    2    0    0 -0.83602061821E+01  0.15529382599E+02  0.93488881373E+01  0.19961374720E+02  0.00000000000E+00 0. -1.
         11    1    1    2    0    0  0.56320411867E+02 -0.12589945545E+02 -0.11089524412E+03  0.12501300208E+03  0.00000000000E+00 0.  1.
</event>
<event>
 7    1  0.2719869E-009  0.1294798E+03  0.7561462E-02  0.1228230E+00
         -2   -1    0    0    0  501 -0.00000000000E+00  0.00000000000E+00  0.56573289377E+03  0.56573289377E+03  0.00000000000E+00 0.  1.
          2   -1    0    0  501    0  0.00000000000E+00 -0.00000000000E+00 -0.73141427782E+02  0.73141427782E+02  0.00000000000E+00 0. -1.
         25    2    1    2    0    0 -0.10480796352E+03 -0.51320977299E+02  0.45629527306E+03  0.48731041276E+03  0.12509000854E+03 0.  0.
          5    1    3    3  502    0 -0.62730307427E+02 -0.55740199301E+02  0.42816614782E+03  0.43633219436E+03  0.41800000000E+01 0. -1.
         -5    1    3    3    0  502 -0.42077656090E+02  0.44192220026E+01  0.28129125240E+02  0.50978218407E+02  0.41800000000E+01 0. -1.
        -11    1    1    2    0    0  0.53400795380E+02  0.59963553162E+02  0.53711337040E+02  0.96603211032E+02  0.00000000000E+00 0.  1.
         11    1    1    2    0    0  0.51407168137E+02 -0.86425758638E+01 -0.17415144117E+02  0.54960697758E+02  0.00000000000E+00 0. -1.
</event>
<event>
 7    1  0.2719869E-009  0.1299318E+03  0.7561462E-02  0.1227557E+00
          1   -1    0    0  501    0  0.00000000000E+00  0.00000000000E+00  0.14564418233E+04  0.14564418233E+04  0.00000000000E+00 0. -1.
         -1   -1    0    0    0  501 -0.00000000000E+00 -0.00000000000E+00 -0.18875042922E+02  0.18875042922E+02  0.00000000000E+00 0.  1.
         25    2    1    2    0    0 -0.87761208873E+02  0.58221370529E+02  0.10696857470E+04  0.10821125045E+04  0.12509243435E+03 0.  0.
          5    1    3    3  502    0 -0.16304129467E+02 -0.16162350402E+02  0.33665721352E+02  0.40962170381E+02  0.41800000000E+01 0.  1.
         -5    1    3    3    0  502 -0.71457079406E+02  0.74383720931E+02  0.10360200257E+04  0.10411503341E+04  0.41800000000E+01 0.  1.
        -11    1    1    2    0    0 -0.19945902982E+01 -0.42049979365E+02  0.70087856788E+02  0.81758710999E+02  0.00000000000E+00 0.  1.
         11    1    1    2    0    0  0.89755799171E+02 -0.16171391164E+02  0.29779317657E+03  0.31144565078E+03  0.00000000000E+00 0. -1.
</event>
<event>
 7    1  0.2719869E-009  0.8411878E+02  0.7561462E-02  0.1317753E+00
          4   -1    0    0  501    0  0.00000000000E+00  0.00000000000E+00  0.33447172920E+02  0.33447172920E+02  0.00000000000E+00 0. -1.
         -4   -1    0    0    0  501 -0.00000000000E+00 -0.00000000000E+00 -0.44920001737E+03  0.44920001737E+03  0.00000000000E+00 0.  1.
         25    2    1    2    0    0 -0.57041749470E+02 -0.67028044001E+01 -0.23986814363E+03  0.27655979096E+03  0.12509957185E+03 0.  0.
          5    1    3    3  502    0 -0.54449977163E+01 -0.33354634212E+02 -0.20683175545E+03  0.20961638077E+03  0.41800000000E+01 0. -1.
         -5    1    3    3    0  502 -0.51596751754E+02  0.26651829812E+02 -0.33036388177E+02  0.66943410188E+02  0.41800000000E+01 0. -1.
        -11    1    1    2    0    0  0.38191201642E+02  0.28121374204E+02 -0.17059979146E+03  0.17706967108E+03  0.00000000000E+00 0.  1.
         11    1    1    2    0    0  0.18850547828E+02 -0.21418569804E+02 -0.52849093594E+01  0.29017728250E+02  0.00000000000E+00 0. -1.
</event>
<event>
 7    1  0.2719869E-009  0.9090893E+02  0.7561462E-02  0.1300665E+00
         -1   -1    0    0    0  501 -0.00000000000E+00  0.00000000000E+00  0.51504120735E+02  0.51504120735E+02  0.00000000000E+00 0.  1.
          1   -1    0    0  501    0  0.00000000000E+00 -0.00000000000E+00 -0.26170516501E+03  0.26170516501E+03  0.00000000000E+00 0. -1.
         25    2    1    2    0    0  0.25512346580E+02  0.42296570524E+02 -0.11253201701E+03  0.17535855974E+03  0.12508912789E+03 0.  0.
          5    1    3    3  502    0  0.38182743789E+02  0.76423847181E+02 -0.40706230609E+02  0.94725899054E+02  0.41800000000E+01 0.  1.
         -5    1    3    3    0  502 -0.12670397209E+02 -0.34127276657E+02 -0.71825786402E+02  0.80632660688E+02  0.41800000000E+01 0.  1.
        -11    1    1    2    0    0 -0.15612032425E+01 -0.34380893018E+02 -0.10587176737E+03  0.11132526347E+03  0.00000000000E+00 0. -1.
         11    1    1    2    0    0 -0.23951143338E+02 -0.79156775065E+01  0.82027401041E+01  0.26525462537E+02  0.00000000000E+00 0.  1.
</event>
<event>
 7    1  0.2719869E-009  0.1331881E+03  0.7561462E-02  0.1222800E+00
         -2   -1    0    0    0  501 -0.00000000000E+00  0.00000000000E+00  0.49642313268E+02  0.49642313268E+02  0.00000000000E+00 0.  1.
          2   -1    0    0  501    0  0.00000000000E+00 -0.00000000000E+00 -0.48759115213E+03  0.48759115213E+03  0.00000000000E+00 0. -1.
         25    2    1    2    0    0  0.96189855591E+02 -0.11095942386E+02 -0.14315765099E+03  0.21334846543E+03  0.12509135225E+03 0.  0.
          5    1    3    3  502    0  0.86160663397E+01  0.50140331610E+02 -0.51331447955E+02  0.72392536924E+02  0.41800000000E+01 0. -1.
         -5    1    3    3    0  502  0.87573789251E+02 -0.61236273997E+02 -0.91826203039E+02  0.14095592851E+03  0.41800000000E+01 0. -1.
        -11    1    1    2    0    0 -0.48577809996E+02 -0.18888676222E+02 -0.23910941110E+03  0.24472412262E+03  0.00000000000E+00 0. -1.
         11    1    1    2    0    0 -0.47612045594E+02  0.29984618609E+02 -0.55681776766E+02  0.79160877349E+02  0.00000000000E+00 0.  1.
</event>
<event>
 7    1  0.2719869E-009  0.1165229E+03  0.7561462E-02  0.1248946E+00
         -1   -1    0    0    0  501 -0.00000000000E+00  0.00000000000E+00  0.51013377494E+02  0.51013377494E+02  0.00000000000E+00 0.  1.
          1   -1    0    0  501    0  0.00000000000E+00 -0.00000000000E+00 -0.31932177561E+03  0.31932177561E+03  0.00000000000E+00 0. -1.
         25    2    1    2    0    0  0.53849862959E+02 -0.36392313947E+02 -0.16330728045E+03  0.21572068758E+03  0.12506773744E+03 0.  0.
          5    1    3    3  502    0 -0.28266761026E+02  0.24611694865E+02 -0.33888749047E+02  0.50701725957E+02  0.41800000000E+01 0.  1.
         -5    1    3    3    0  502  0.82116623984E+02 -0.61004008812E+02 -0.12941853140E+03  0.16501896162E+03  0.41800000000E+01 0.  1.
        -11    1    1    2    0    0 -0.66118547809E+02  0.43141792066E+02 -0.40730400278E+02  0.88836040512E+02  0.00000000000E+00 0.  1.
         11    1    1    2    0    0  0.12268684851E+02 -0.67494781189E+01 -0.64270717387E+02  0.65778425006E+02  0.00000000000E+00 0. -1.
</event>
<event>
 7    1  0.2719869E-009  0.1191795E+03  0.7561462E-02  0.1244457E+00
         -1   -1    0    0    0  501 -0.00000000000E+00  0.00000000000E+00  0.20488765751E+03  0.20488765751E+03  0.00000000000E+00 0.  1.
          1   -1    0    0  501    0  0.00000000000E+00 -0.00000000000E+00 -0.76922361530E+02  0.76922361530E+02  0.00000000000E+00 0. -1.
         25    2    1    2    0    0 -0.74375649548E+02  0.26647989130E+02  0.44361640132E+02  0.15445574322E+03  0.12508704541E+03 0.  0.
          5    1    3    3  502    0 -0.85543136905E+02  0.61936858636E+02  0.14437847380E+02  0.10667580122E+03  0.41800000000E+01 0. -1.
         -5    1    3    3    0  502  0.11167487357E+02 -0.35288869507E+02  0.29923792751E+02  0.47779942000E+02  0.41800000000E+01 0. -1.
        -11    1    1    2    0    0  0.54934316383E+02  0.81691483897E+01  0.55892436034E+02  0.78793898925E+02  0.00000000000E+00 0. -1.
         11    1    1    2    0    0  0.19441333165E+02 -0.34817137519E+02  0.27711219811E+02  0.48560376890E+02  0.00000000000E+00 0.  1.
</event>
<event>
 7    1  0.2719869E-009  0.1377808E+03  0.7561462E-02  0.1216347E+00
         -1   -1    0    0    0  501 -0.00000000000E+00  0.00000000000E+00  0.15889562705E+03  0.15889562705E+03  0.00000000000E+00 0.  1.
          1   -1    0    0  501    0  0.00000000000E+00 -0.00000000000E+00 -0.12865336010E+03  0.12865336010E+03  0.00000000000E+00 0. -1.
         25    2    1    2    0    0  0.88850803079E+02  0.10739493428E+02  0.45887894888E+02  0.16050906842E+03  0.12509060805E+03 0.  0.
          5    1    3    3  502    0  0.12042150795E+03  0.39122363316E+01  0.42205060710E+02  0.12773169035E+03  0.41800000000E+01 0.  1.
         -5    1    3    3    0  502 -0.31570704873E+02  0.68272570962E+01  0.36828341786E+01  0.32777378072E+02  0.41800000000E+01 0.  1.
        -11    1    1    2    0    0 -0.93122179410E+02  0.16748476161E+02 -0.24697116915E+02  0.97786498740E+02  0.00000000000E+00 0. -1.
         11    1    1    2    0    0  0.42713763314E+01 -0.27487969589E+02  0.90514889795E+01  0.29253419982E+02  0.00000000000E+00 0.  1.
</event>
<event>
 7    1  0.2719869E-009  0.1459531E+03  0.7561462E-02  0.1205536E+00
          2   -1    0    0  501    0  0.00000000000E+00  0.00000000000E+00  0.54132459370E+02  0.54132459370E+02  0.00000000000E+00 0. -1.
         -2   -1    0    0    0  501 -0.00000000000E+00 -0.00000000000E+00 -0.45135409433E+03  0.45135409433E+03  0.00000000000E+00 0.  1.
         25    2    1    2    0    0  0.82270487169E+02  0.77703915633E+02 -0.24158289855E+03  0.29465245693E+03  0.12510572305E+03 0.  0.
          5    1    3    3  502    0 -0.29810821929E+02 -0.21062217819E+01 -0.32762218693E+02  0.44541628259E+02  0.41800000000E+01 0.  1.
         -5    1    3    3    0  502  0.11208130910E+03  0.79810137415E+02 -0.20882067985E+03  0.25011082867E+03  0.41800000000E+01 0.  1.
        -11    1    1    2    0    0 -0.30658179224E+01 -0.32963850835E+02 -0.31270052876E+01  0.33253463932E+02  0.00000000000E+00 0. -1.
         11    1    1    2    0    0 -0.79204669247E+02 -0.44740064798E+02 -0.15251173113E+03  0.17758063284E+03  0.00000000000E+00 0.  1.
</event>
<event>
 7    1  0.2954276E-009  0.2359820E+03  0.7561462E-02  0.1122499E+00
          3   -1    0    0  501    0  0.00000000000E+00  0.00000000000E+00  0.23720800112E+03  0.23720800112E+03  0.00000000000E+00 0. -1.
         -3   -1    0    0    0  501 -0.00000000000E+00 -0.00000000000E+00 -0.27195628951E+03  0.27195628951E+03  0.00000000000E+00 0.  1.
         25    2    1    2    0    0  0.19792112502E+03  0.11579791956E+03 -0.22661972793E+02  0.26218959481E+03  0.12509152134E+03 0.  0.
          5    1    3    3  502    0  0.17165454118E+03  0.61894971142E+02 -0.59159747787E+02  0.19186874972E+03  0.41800000000E+01 0.  1.
         -5    1    3    3    0  502  0.26266583841E+02  0.53902948417E+02  0.36497774994E+02  0.70320845091E+02  0.41800000000E+01 0.  1.
        -11    1    1    2    0    0 -0.11074224314E+03 -0.62715887502E+02 -0.51863503056E+02  0.13742979994E+03  0.00000000000E+00 0. -1.
         11    1    1    2    0    0 -0.87178881874E+02 -0.53082032057E+02  0.39777187455E+02  0.10954489588E+03  0.00000000000E+00 0.  1.
</event>
<event>
 7    1  0.2719869E-009  0.1162511E+03  0.7561462E-02  0.1249413E+00
         -2   -1    0    0    0  501 -0.00000000000E+00  0.00000000000E+00  0.53874551416E+03  0.53874551416E+03  0.00000000000E+00 0. -1.
          2   -1    0    0  501    0  0.00000000000E+00 -0.00000000000E+00 -0.28983654866E+02  0.28983654866E+02  0.00000000000E+00 0.  1.
         25    2    1    2    0    0 -0.50962492088E+02  0.22501799206E+02  0.33494118016E+03  0.36184974725E+03  0.12508452682E+03 0.  0.
          5    1    3    3  502    0 -0.45672293298E+02  0.66029380154E+02  0.13509201719E+03  0.15720420773E+03  0.41800000000E+01 0. -1.
         -5    1    3    3    0  502 -0.52901987903E+01 -0.43527580948E+02  0.19984916297E+03  0.20464553952E+03  0.41800000000E+01 0. -1.
        -11    1    1    2    0    0 -0.25919809429E+02  0.50189185403E+01  0.33384295246E+02  0.42562157291E+02  0.00000000000E+00 0.  1.
         11    1    1    2    0    0  0.76882301517E+02 -0.27520717746E+02  0.14143638388E+03  0.16331726448E+03  0.00000000000E+00 0. -1.
</event>
<event>
 7    1  0.2719869E-009  0.1013773E+03  0.7561462E-02  0.1277426E+00
          1   -1    0    0  501    0  0.00000000000E+00  0.00000000000E+00  0.39558565328E+03  0.39558565328E+03  0.00000000000E+00 0. -1.
         -1   -1    0    0    0  501 -0.00000000000E+00 -0.00000000000E+00 -0.36647654960E+02  0.36647654960E+02  0.00000000000E+00 0.  1.
         25    2    1    2    0    0  0.14290716340E+02  0.38134062617E+02  0.13386313842E+03  0.18768567857E+03  0.12509253697E+03 0.  0.
          5    1    3    3  502    0 -0.45067354511E+02  0.15643204595E+02  0.10959419304E+03  0.11959989900E+03  0.41800000000E+01 0. -1.
         -5    1    3    3    0  502  0.59358070851E+02  0.22490858023E+02  0.24268945385E+02  0.68085779571E+02  0.41800000000E+01 0. -1.
        -11    1    1    2    0    0 -0.30231862923E+02  0.16430042314E+02  0.51798383353E+02  0.62185081364E+02  0.00000000000E+00 0. -1.
         11    1    1    2    0    0  0.15941146583E+02 -0.54564104931E+02  0.17327647655E+03  0.18236254831E+03  0.00000000000E+00 0.  1.
</event>
<event>
 7    1  0.2719869E-009  0.2379849E+03  0.7561462E-02  0.1121143E+00
         -1   -1    0    0    0  501 -0.00000000000E+00  0.00000000000E+00  0.17734034143E+03  0.17734034143E+03  0.00000000000E+00 0.  1.
          1   -1    0    0  501    0  0.00000000000E+00 -0.00000000000E+00 -0.38325313150E+03  0.38325313150E+03  0.00000000000E+00 0. -1.
         25    2    1    2    0    0 -0.23326898396E+03 -0.32748670417E+02 -0.79869616038E+02  0.27841176337E+03  0.12508820938E+03 0.  0.
          5    1    3    3  502    0 -0.20590807745E+03 -0.29035674596E+02 -0.15878524915E+02  0.20859244164E+03  0.41800000000E+01 0. -1.
         -5    1    3    3    0  502 -0.27360906512E+02 -0.37129958213E+01 -0.63991091123E+02  0.69819321726E+02  0.41800000000E+01 0. -1.
        -11    1    1    2    0    0  0.78040335447E+02 -0.10923901413E+02 -0.21543598693E+01  0.78830621241E+02  0.00000000000E+00 0.  1.
         11    1    1    2    0    0  0.15522864851E+03  0.43672571830E+02 -0.12388881416E+03  0.20335108833E+03  0.00000000000E+00 0. -1.
</event>
<event>
 7    1  0.2719869E-009  0.1077840E+03  0.7561462E-02  0.1264730E+00
          1   -1    0    0  501    0  0.00000000000E+00  0.00000000000E+00  0.31611075865E+02  0.31611075865E+02  0.00000000000E+00 0. -1.
         -1   -1    0    0    0  501 -0.00000000000E+00 -0.00000000000E+00 -0.42456383268E+03  0.42456383268E+03  0.00000000000E+00 0.  1.
         25    2    1    2    0    0 -0.12827093025E+02 -0.64439525133E+01 -0.25489675784E+03  0.28429876778E+03  0.12508946145E+03 0.  0.
          5    1    3    3  502    0  0.48955544919E+02  0.24054479618E+02 -0.87051391017E+02  0.10281381447E+03  0.41800000000E+01 0.  1.
         -5    1    3    3    0  502 -0.61782637945E+02 -0.30498432132E+02 -0.16784536682E+03  0.18148495331E+03  0.41800000000E+01 0.  1.
        -11    1    1    2    0    0 -0.38978061773E+02  0.88647689842E+01 -0.99570296786E+02  0.10729453588E+03  0.00000000000E+00 0.  1.
         11    1    1    2    0    0  0.51805154798E+02 -0.24208164708E+01 -0.38485702196E+02  0.64581604885E+02  0.00000000000E+00 0. -1.
</event>
<event>
 7    1  0.2719869E-009  0.1110522E+03  0.7561462E-02  0.1258634E+00
         -1   -1    0    0    0  501 -0.00000000000E+00  0.00000000000E+00  0.21241695246E+03  0.21241695246E+03  0.00000000000E+00 0.  1.
          1   -1    0    0  501    0  0.00000000000E+00 -0.00000000000E+00 -0.14798855193E+03  0.14798855193E+03  0.00000000000E+00 0. -1.
         25    2    1    2    0    0  0.32616520826E+02 -0.52222411215E+02 -0.92986692115E+02  0.16758516945E+03  0.12508895412E+03 0.  0.
          5    1    3    3  502    0  0.24237451253E+02  0.24601255985E+02 -0.82438167097E+02  0.89477369393E+02  0.41800000000E+01 0. -1.
         -5    1    3    3    0  502  0.83790695729E+01 -0.76823667200E+02 -0.10548525019E+02  0.78107800053E+02  0.41800000000E+01 0. -1.
        -11    1    1    2    0    0  0.51924520701E+01  0.68546223550E+02  0.83009465185E+02  0.10777809440E+03  0.00000000000E+00 0. -1.
         11    1    1    2    0    0 -0.37808972896E+02 -0.16323812335E+02  0.74405627455E+02  0.85042240549E+02  0.00000000000E+00 0.  1.
</event>
<event>
 7    1  0.2719869E-009  0.1322572E+03  0.7561462E-02  0.1224144E+00
          4   -1    0    0  501    0  0.00000000000E+00  0.00000000000E+00  0.26647726681E+03  0.26647726681E+03  0.00000000000E+00 0.  1.
         -4   -1    0    0    0  501 -0.00000000000E+00 -0.00000000000E+00 -0.70930003639E+02  0.70930003639E+02  0.00000000000E+00 0. -1.
         25    2    1    2    0    0 -0.59637312290E+02  0.53880761153E+02  0.13557941120E+03  0.20121878952E+03  0.12508988399E+03 0.  0.
          5    1    3    3  502    0 -0.84435177551E+02  0.75880736987E+02  0.11661373073E+03  0.16279871022E+03  0.41800000000E+01 0. -1.
         -5    1    3    3    0  502  0.24797865261E+02 -0.21999975834E+02  0.18965680465E+02  0.38420079304E+02  0.41800000000E+01 0. -1.
        -11    1    1    2    0    0 -0.14832496123E+01 -0.56314588035E+02  0.10021996521E+02  0.57218644419E+02  0.00000000000E+00 0. -1.
         11    1    1    2    0    0  0.61120561902E+02  0.24338268815E+01  0.49945855450E+02  0.78969836502E+02  0.00000000000E+00 0.  1.
</event>
<event>
 7    1  0.2719869E-009  0.6258994E+02  0.7561462E-02  0.1387273E+00
         -1   -1    0    0    0  501 -0.00000000000E+00  0.00000000000E+00  0.26881700456E+02  0.26881700456E+02  0.00000000000E+00 0.  1.
          1   -1    0    0  501    0  0.00000000000E+00 -0.00000000000E+00 -0.50054269967E+03  0.50054269967E+03  0.00000000000E+00 0. -1.
         25    2    1    2    0    0 -0.12225605384E+02 -0.23324123836E+02 -0.28646213665E+03  0.31368979497E+03  0.12508897457E+03 0.  0.
          5    1    3    3  502    0  0.58326476223E+01  0.63656473636E+01 -0.27735867708E+03  0.27752450233E+03  0.41800000000E+01 0.  1.
         -5    1    3    3    0  502 -0.18058253006E+02 -0.29689771200E+02 -0.91034595679E+01  0.36165292639E+02  0.41800000000E+01 0.  1.
        -11    1    1    2    0    0 -0.11011757525E+02  0.46488984733E+02 -0.38210960327E+02  0.61176482364E+02  0.00000000000E+00 0.  1.
         11    1    1    2    0    0  0.23237362909E+02 -0.23164860896E+02 -0.14898790224E+03  0.15255812279E+03  0.00000000000E+00 0. -1.
</event>
<event>
 7    1  0.2719869E-009  0.7689984E+02  0.7561462E-02  0.1338087E+00
         -1   -1    0    0    0  501 -0.00000000000E+00  0.00000000000E+00  0.13868404081E+03  0.13868404081E+03  0.00000000000E+00 0.  1.
          1   -1    0    0  501    0  0.00000000000E+00 -0.00000000000E+00 -0.10917132743E+03  0.10917132743E+03  0.00000000000E+00 0. -1.
         25    2    1    2    0    0  0.23919675039E+02  0.21371245461E+02  0.65183526136E+02  0.14465591121E+03  0.12509020578E+03 0.  0.
          5    1    3    3  502    0  0.39151950737E+02  0.14363525414E+02 -0.27660722246E+02  0.50217268584E+02  0.41800000000E+01 0. -1.
         -5    1    3    3    0  502 -0.15232275698E+02  0.70077200467E+01  0.92844248383E+02  0.94438642625E+02  0.41800000000E+01 0. -1.
        -11    1    1    2    0    0  0.10313844220E+02 -0.49336532808E+02 -0.79598066139E+01  0.51027711819E+02  0.00000000000E+00 0.  1.
         11    1    1    2    0    0 -0.34233519259E+02  0.27965287348E+02 -0.27711006140E+02  0.52171745213E+02  0.00000000000E+00 0. -1.
</event>
<event>
 7    1  0.2719869E-009  0.2519035E+03  0.7561462E-02  0.1112108E+00
          1   -1    0    0  501    0  0.00000000000E+00  0.00000000000E+00  0.24684843542E+04  0.24684843542E+04  0.00000000000E+00 0. -1.
         -1   -1    0    0    0  501 -0.00000000000E+00 -0.00000000000E+00 -0.26307858869E+02  0.26307858869E+02  0.00000000000E+00 0.  1.
         25    2    1    2    0    0 -0.13782152008E+02  0.22679326213E+03  0.10852526500E+04  0.11158160891E+04  0.12508836385E+03 0.  0.
          5    1    3    3  502    0 -0.65292288644E+02  0.77770837290E+02  0.42977404173E+03  0.44162720187E+03  0.41800000000E+01 0.  1.
         -5    1    3    3    0  502  0.51510136636E+02  0.14902242484E+03  0.65547860830E+03  0.67418888719E+03  0.41800000000E+01 0.  1.
        -11    1    1    2    0    0  0.52471134640E+02 -0.12656483774E+03  0.82678484424E+03  0.83806029424E+03  0.00000000000E+00 0.  1.
         11    1    1    2    0    0 -0.38688982632E+02 -0.10022842440E+03  0.53013900111E+03  0.54091582980E+03  0.00000000000E+00 0. -1.
</event>
<event>
 7    1  0.2719869E-009  0.1351192E+03  0.7561462E-02  0.1220052E+00
         -1   -1    0    0    0  501 -0.00000000000E+00  0.00000000000E+00  0.23400508639E+02  0.23400508639E+02  0.00000000000E+00 0.  1.
          1   -1    0    0  501    0  0.00000000000E+00 -0.00000000000E+00 -0.99168262628E+03  0.99168262628E+03  0.00000000000E+00 0. -1.
         25    2    1    2    0    0  0.99738013253E+02 -0.32211523973E+02 -0.48833819472E+03  0.51488713575E+03  0.12509722848E+03 0.  0.
          5    1    3    3  502    0  0.91731041681E+02 -0.70191736600E+02 -0.42541975341E+03  0.44084113112E+03  0.41800000000E+01 0. -1.
         -5    1    3    3    0  502  0.80069715719E+01  0.37980212626E+02 -0.62918441308E+02  0.74046004629E+02  0.41800000000E+01 0. -1.
        -11    1    1    2    0    0 -0.25518024685E+02 -0.13074994892E+02 -0.28397880535E+02  0.40355479109E+02  0.00000000000E+00 0.  1.
         11    1    1    2    0    0 -0.74219988568E+02  0.45286518865E+02 -0.45154604239E+03  0.45984052006E+03  0.00000000000E+00 0. -1.
</event>
<event>
 7    1  0.2719869E-009  0.1316546E+03  0.7561462E-02  0.1225021E+00
          2   -1    0    0  501    0  0.00000000000E+00  0.00000000000E+00  0.29201034342E+03  0.29201034342E+03  0.00000000000E+00 0. -1.
         -2   -1    0    0    0  501 -0.00000000000E+00 -0.00000000000E+00 -0.75773663524E+02  0.75773663524E+02  0.00000000000E+00 0.  1.
         25    2    1    2    0    0  0.10039305385E+03  0.56978332540E+01  0.13658088798E+03  0.21074375204E+03  0.12508940601E+03 0.  0.
          5    1    3    3  502    0  0.20533506908E+02 -0.51579741250E+02  0.79374934209E+02  0.96953324822E+02  0.41800000000E+01 0.  1.
         -5    1    3    3    0  502  0.79859546947E+02  0.57277574504E+02  0.57205953775E+02  0.11379042722E+03  0.41800000000E+01 0.  1.
        -11    1    1    2    0    0 -0.81552896205E+02 -0.21877175991E+02  0.12394854280E+02  0.85341186548E+02  0.00000000000E+00 0.  1.
         11    1    1    2    0    0 -0.18840157650E+02  0.16179342737E+02  0.67260937635E+02  0.71699068356E+02  0.00000000000E+00 0. -1.
</event>
<event>
 7    1  0.2719869E-009  0.2656494E+03  0.7561462E-02  0.1103796E+00
         -2   -1    0    0    0  501 -0.00000000000E+00  0.00000000000E+00  0.11062177404E+03  0.11062177404E+03  0.00000000000E+00 0. -1.
          2   -1    0    0  501    0  0.00000000000E+00 -0.00000000000E+00 -0.71371789747E+03  0.71371789747E+03  0.00000000000E+00 0.  1.
         25    2    1    2    0    0  0.14267342731E+03 -0.20727498440E+03 -0.20067766214E+03  0.34530880255E+03  0.12509204218E+03 0.  0.
          5    1    3    3  502    0 -0.10251699702E+02 -0.58359375232E+02 -0.81356782416E+02  0.10073386952E+03  0.41800000000E+01 0. -1.
         -5    1    3    3    0  502  0.15292512701E+03 -0.14891560917E+03 -0.11932087972E+03  0.24457493303E+03  0.41800000000E+01 0. -1.
        -11    1    1    2    0    0 -0.72786677344E+02  0.15464388060E+03 -0.28945530822E+03  0.33615027244E+03  0.00000000000E+00 0.  1.
         11    1    1    2    0    0 -0.69886749967E+02  0.52631103803E+02 -0.11296315307E+03  0.14288059651E+03  0.00000000000E+00 0. -1.
</event>
<event>
 7    1  0.2719869E-009  0.9385377E+02  0.7561462E-02  0.1293779E+00
         -1   -1    0    0    0  501 -0.00000000000E+00  0.00000000000E+00  0.77179799632E+02  0.77179799632E+02  0.00000000000E+00 0.  1.
          1   -1    0    0  501    0  0.00000000000E+00 -0.00000000000E+00 -0.16404111183E+03  0.16404111183E+03  0.00000000000E+00 0. -1.
         25    2    1    2    0    0  0.16653403975E+02  0.81772420791E+01 -0.75149136997E+02  0.14710091559E+03  0.12508830251E+03 0.  0.
          5    1    3    3  502    0 -0.38226509030E+02  0.35855229835E+02 -0.66680158221E+02  0.84915130568E+02  0.41800000000E+01 0.  1.
         -5    1    3    3    0  502  0.54879913005E+02 -0.27677987756E+02 -0.84689787764E+01  0.62185785025E+02  0.41800000000E+01 0.  1.
        -11    1    1    2    0    0 -0.41733697165E+02 -0.19430139547E+02  0.21666519611E+02  0.50878972808E+02  0.00000000000E+00 0.  1.
         11    1    1    2    0    0  0.25080293190E+02  0.11252897468E+02 -0.33378694807E+02  0.43241023056E+02  0.00000000000E+00 0. -1.
</event>
<event>
 7    1  0.2719869E-009  0.1157923E+03  0.7561462E-02  0.1250204E+00
         -1   -1    0    0    0  501 -0.00000000000E+00  0.00000000000E+00  0.21805065054E+03  0.21805065054E+03  0.00000000000E+00 0.  1.
          1   -1    0    0  501    0  0.00000000000E+00 -0.00000000000E+00 -0.84778151468E+02  0.84778151468E+02  0.00000000000E+00 0. -1.
         25    2    1    2    0    0 -0.39352600440E+02  0.55248682095E+02  0.12681017064E+03  0.19059886435E+03  0.12508422634E+03 0.  0.
          5    1    3    3  502    0 -0.76919146663E+01  0.85109156471E+02  0.42287952116E+02  0.95438343241E+02  0.41800000000E+01 0.  1.
         -5    1    3    3    0  502 -0.31660685774E+02 -0.29860474376E+02  0.84522218522E+02  0.95160521108E+02  0.41800000000E+01 0.  1.
        -11    1    1    2    0    0  0.37064101651E+02 -0.74345351624E+02  0.23716712798E+02  0.86391327141E+02  0.00000000000E+00 0.  1.
         11    1    1    2    0    0  0.22884987887E+01  0.19096669529E+02 -0.17254384363E+02  0.25838610519E+02  0.00000000000E+00 0. -1.
</event>
<event>
 7    1  0.2719869E-009  0.1602730E+03  0.7561462E-02  0.1188389E+00
         -2   -1    0    0    0  501 -0.00000000000E+00  0.00000000000E+00  0.65857915849E+02  0.65857915849E+02  0.00000000000E+00 0.  1.
          2   -1    0    0  501    0  0.00000000000E+00 -0.00000000000E+00 -0.45964975870E+03  0.45964975870E+03  0.00000000000E+00 0. -1.
         25    2    1    2    0    0  0.12202774264E+03 -0.56194095537E+02 -0.17788288081E+03  0.25561579577E+03  0.12509424213E+03 0.  0.
          5    1    3    3  502    0 -0.24838093772E+02 -0.11278492991E+02 -0.43416505100E+02  0.51445122426E+02  0.41800000000E+01 0.  1.
         -5    1    3    3    0  502  0.14686583641E+03 -0.44915602546E+02 -0.13446637571E+03  0.20417067334E+03  0.41800000000E+01 0.  1.
        -11    1    1    2    0    0 -0.10743391831E+03  0.33881547668E+02 -0.98964012844E+02  0.14994626342E+03  0.00000000000E+00 0.  1.
         11    1    1    2    0    0 -0.14593824326E+02  0.22312547868E+02 -0.11694494921E+03  0.11994561537E+03  0.00000000000E+00 0. -1.
</event>
<event>
 7    1  0.2719869E-009  0.1050081E+03  0.7561462E-02  0.1270104E+00
          1   -1    0    0  501    0  0.00000000000E+00  0.00000000000E+00  0.44253764527E+03  0.44253764527E+03  0.00000000000E+00 0. -1.
         -1   -1    0    0    0  501 -0.00000000000E+00 -0.00000000000E+00 -0.52372762821E+02  0.52372762821E+02  0.00000000000E+00 0.  1.
         25    2    1    2    0    0  0.75070674772E+01  0.21509379097E+02  0.37835421912E+03  0.39914676045E+03  0.12508881564E+03 0.  0.
          5    1    3    3  502    0  0.65734456618E+02  0.80229420408E+01  0.17531382287E+03  0.18745078094E+03  0.41800000000E+01 0. -1.
         -5    1    3    3    0  502 -0.58227389140E+02  0.13486437056E+02  0.20304039625E+03  0.21169597951E+03  0.41800000000E+01 0. -1.
        -11    1    1    2    0    0 -0.11520974971E+02  0.29971827968E+02  0.26984517948E+02  0.41942908160E+02  0.00000000000E+00 0. -1.
         11    1    1    2    0    0  0.40139074942E+01 -0.51481207065E+02 -0.15173854621E+02  0.53820739482E+02  0.00000000000E+00 0.  1.
</event>
<event>
 7    1  0.2719869E-009  0.1650158E+03  0.7561462E-02  0.1183148E+00
          2   -1    0    0  501    0  0.00000000000E+00  0.00000000000E+00  0.40384683748E+03  0.40384683748E+03  0.00000000000E+00 0. -1.
         -2   -1    0    0    0  501 -0.00000000000E+00 -0.00000000000E+00 -0.92297888651E+02  0.92297888651E+02  0.00000000000E+00 0.  1.
         25    2    1    2    0    0  0.55820307205E+02  0.13683916178E+03  0.24736871503E+03  0.31413344165E+03  0.12509066751E+03 0.  0.
          5    1    3    3  502    0  0.79886947676E+02  0.56426189842E+02  0.78401242911E+02  0.12541956227E+03  0.41800000000E+01 0. -1.
         -5    1    3    3    0  502 -0.24066640471E+02  0.80412971937E+02  0.16896747212E+03  0.18871387939E+03  0.41800000000E+01 0. -1.
        -11    1    1    2    0    0 -0.35874518159E+02 -0.75378589971E+02 -0.94912034011E+01  0.84017830376E+02  0.00000000000E+00 0.  1.
         11    1    1    2    0    0 -0.19945789046E+02 -0.61460571809E+02  0.73671437205E+02  0.97993454106E+02  0.00000000000E+00 0. -1.
</event>
<event>
 7    1  0.2719869E-009  0.9479646E+02  0.7561462E-02  0.1291635E+00
          3   -1    0    0  501    0  0.00000000000E+00  0.00000000000E+00  0.25421916097E+03  0.25421916097E+03  0.00000000000E+00 0. -1.
         -3   -1    0    0    0  501 -0.00000000000E+00 -0.00000000000E+00 -0.47892679485E+02  0.47892679485E+02  0.00000000000E+00 0.  1.
         25    2    1    2    0    0 -0.22672295399E+01 -0.57884888668E+01  0.12618253400E+03  0.17778640700E+03  0.12508927890E+03 0.  0.
          5    1    3    3  502    0 -0.60596645312E+02  0.13162652589E+02  0.77679671831E+02  0.99482725445E+02  0.41800000000E+01 0. -1.
         -5    1    3    3    0  502  0.58329415772E+02 -0.18951141456E+02  0.48502862170E+02  0.78303681557E+02  0.41800000000E+01 0. -1.
        -11    1    1    2    0    0  0.15858771620E+02  0.32408336004E+02  0.86539690615E+02  0.93759900446E+02  0.00000000000E+00 0. -1.
         11    1    1    2    0    0 -0.13591542080E+02 -0.26619847137E+02 -0.63957431322E+01  0.30565533006E+02  0.00000000000E+00 0.  1.
</event>
<event>
 7    1  0.2719869E-009  0.6269238E+02  0.7561462E-02  0.1386868E+00
         -1   -1    0    0    0  501 -0.00000000000E+00  0.00000000000E+00  0.13908488388E+02  0.13908488388E+02  0.00000000000E+00 0.  1.
          1   -1    0    0  501    0  0.00000000000E+00 -0.00000000000E+00 -0.10179072889E+04  0.10179072889E+04  0.00000000000E+00 0. -1.
         25    2    1    2    0    0 -0.14699339020E+02 -0.12782256122E+02 -0.77685281212E+03  0.78710080271E+03  0.12509166752E+03 0.  0.
          5    1    3    3  502    0 -0.84197136484E+01 -0.23717887175E+02 -0.27061333234E+02  0.37191637586E+02  0.41800000000E+01 0.  1.
         -5    1    3    3    0  502 -0.62796253713E+01  0.10935631052E+02 -0.74979147888E+03  0.74990916512E+03  0.41800000000E+01 0.  1.
        -11    1    1    2    0    0  0.37153202477E+02 -0.23469065437E+02 -0.15295389510E+03  0.15914160837E+03  0.00000000000E+00 0.  1.
         11    1    1    2    0    0 -0.22453863457E+02  0.36251321559E+02 -0.74192093313E+02  0.85573366237E+02  0.00000000000E+00 0. -1.
</event>
<event>
 7    1  0.2719869E-009  0.1666328E+03  0.7561462E-02  0.1181405E+00
          2   -1    0    0  501    0  0.00000000000E+00  0.00000000000E+00  0.14886234009E+03  0.14886234009E+03  0.00000000000E+00 0. -1.
         -2   -1    0    0    0  501 -0.00000000000E+00 -0.00000000000E+00 -0.27823304006E+03  0.27823304006E+03  0.00000000000E+00 0.  1.
         25    2    1    2    0    0 -0.49896341666E+02 -0.15046425168E+03 -0.13665909273E+03  0.24382537318E+03  0.12508384803E+03 0.  0.
          5    1    3    3  502    0  0.37213766083E+01 -0.77127291066E+02 -0.13172785429E+03  0.15274870758E+03  0.41800000000E+01 0.  1.
         -5    1    3    3    0  502 -0.53617718275E+02 -0.73336960614E+02 -0.49312384397E+01  0.91076665604E+02  0.41800000000E+01 0.  1.
        -11    1    1    2    0    0  0.58252488713E+02  0.11982655849E+03  0.38557441197E+02  0.13870267781E+03  0.00000000000E+00 0. -1.
         11    1    1    2    0    0 -0.83561470470E+01  0.30637693191E+02 -0.31269048434E+02  0.44567329150E+02  0.00000000000E+00 0.  1.
</event>
<event>
 7    1  0.2719869E-009  0.1363122E+03  0.7561462E-02  0.1218379E+00
         -2   -1    0    0    0  501 -0.00000000000E+00  0.00000000000E+00  0.68061841785E+02  0.68061841785E+02  0.00000000000E+00 0. -1.
          2   -1    0    0  501    0  0.00000000000E+00 -0.00000000000E+00 -0.38668077029E+03  0.38668077029E+03  0.00000000000E+00 0.  1.
         25    2    1    2    0    0  0.75501599322E+02  0.93697922727E+02 -0.16577964355E+03  0.24002050286E+03  0.12508860601E+03 0.  0.
          5    1    3    3  502    0 -0.36120461279E+01  0.12643845924E+02 -0.11499857851E+03  0.11582339650E+03  0.41800000000E+01 0.  1.
         -5    1    3    3    0  502  0.79113645450E+02  0.81054076803E+02 -0.50781065046E+02  0.12419710637E+03  0.41800000000E+01 0.  1.
        -11    1    1    2    0    0  0.12691221434E+02 -0.40609986836E+02 -0.72827443694E+02  0.84344974286E+02  0.00000000000E+00 0.  1.
         11    1    1    2    0    0 -0.88192820755E+02 -0.53087935891E+02 -0.80011841256E+02  0.13037713492E+03  0.00000000000E+00 0. -1.
</event>
<event>
 7    1  0.2719869E-009  0.1076807E+03  0.7561462E-02  0.1264926E+00
         -2   -1    0    0    0  501 -0.00000000000E+00  0.00000000000E+00  0.29976092515E+02  0.29976092515E+02  0.00000000000E+00 0.  1.
          2   -1    0    0  501    0  0.00000000000E+00 -0.00000000000E+00 -0.44653370531E+03  0.44653370531E+03  0.00000000000E+00 0. -1.
         25    2    1    2    0    0 -0.14042881268E+02 -0.13782475777E+02 -0.16517008257E+03  0.20812200215E+03  0.12508578037E+03 0.  0.
          5    1    3    3  502    0  0.32141596897E+01  0.52489076907E+02 -0.43221551837E+02  0.68198306139E+02  0.41800000000E+01 0.  1.
         -5    1    3    3    0  502 -0.17257040958E+02 -0.66271552683E+02 -0.12194853073E+03  0.13992369601E+03  0.41800000000E+01 0.  1.
        -11    1    1    2    0    0 -0.38945502993E+02 -0.10978731267E+01 -0.10321187219E+03  0.11032066030E+03  0.00000000000E+00 0.  1.
         11    1    1    2    0    0  0.52988384261E+02  0.14880348903E+02 -0.14817565804E+03  0.15806713537E+03  0.00000000000E+00 0. -1.
</event>
<event>
 6    1  0.2719869E-009  0.2276464E+03  0.7561462E-02  0.1128307E+00
          2   -1    0    0  501    0  0.00000000000E+00  0.00000000000E+00  0.20596632048E+03  0.20596632048E+03  0.00000000000E+00 0. -1.
         -2   -1    0    0    0  501 -0.00000000000E+00 -0.00000000000E+00 -0.28912561253E+03  0.28912561253E+03  0.00000000000E+00 0.  1.
          5    1    1    2  502    0 -0.12595824604E+02 -0.10910944311E+03  0.10820813836E+02  0.11044495365E+03  0.41800000000E+01 0.  1.
         -5    1    1    2    0  502 -0.93491473042E+02 -0.81149049550E+02 -0.89257311192E+02  0.15267666415E+03  0.41800000000E+01 0.  1.
        -11    1    1    2    0    0  0.15187132822E+02  0.64966511448E+02 -0.33291573197E+02  0.74562895994E+02  0.00000000000E+00 0.  1.
         11    1    1    2    0    0  0.90900164824E+02  0.12529198121E+03  0.28568778504E+02  0.15740741922E+03  0.00000000000E+00 0. -1.
</event>
<event>
 7    1  0.2719869E-009  0.2807515E+03  0.7561462E-02  0.1095279E+00
         -4   -1    0    0    0  501 -0.00000000000E+00  0.00000000000E+00  0.55466841165E+03  0.55466841165E+03  0.00000000000E+00 0.  1.
          4   -1    0    0  501    0  0.00000000000E+00 -0.00000000000E+00 -0.14950886122E+03  0.14950886122E+03  0.00000000000E+00 0. -1.
         25    2    1    2    0    0  0.23045523952E+03  0.12903924847E+03  0.16222517293E+03  0.33425174297E+03  0.12508587401E+03 0.  0.
          5    1    3    3  502    0  0.21861147256E+03  0.15184086386E+03  0.14856167585E+03  0.30485187846E+03  0.41800000000E+01 0. -1.
         -5    1    3    3    0  502  0.11843766966E+02 -0.22801615394E+02  0.13663497076E+02  0.29399864504E+02  0.41800000000E+01 0. -1.
        -11    1    1    2    0    0 -0.14515759046E+03 -0.10932584505E+03  0.11551410521E+03  0.21532852799E+03  0.00000000000E+00 0.  1.
         11    1    1    2    0    0 -0.85297649064E+02 -0.19713403416E+02  0.12742027229E+03  0.15459700192E+03  0.00000000000E+00 0. -1.
</event>
<event>
 7    1  0.2719869E-009  0.1908625E+03  0.7561462E-02  0.1157686E+00
         -1   -1    0    0    0  501 -0.00000000000E+00  0.00000000000E+00  0.11506639124E+03  0.11506639124E+03  0.00000000000E+00 0.  1.
          1   -1    0    0  501    0  0.00000000000E+00 -0.00000000000E+00 -0.36513739957E+03  0.36513739957E+03  0.00000000000E+00 0. -1.
         25    2    1    2    0    0 -0.92986118956E+02  0.14661216858E+03 -0.13642087803E+03  0.25377673792E+03  0.12510168045E+03 0.  0.
          5    1    3    3  502    0 -0.51041587626E+02  0.15069737860E+03 -0.67498104913E+02  0.17288264850E+03  0.41800000000E+01 0.  1.
         -5    1    3    3    0  502 -0.41944531331E+02 -0.40852100189E+01 -0.68922773117E+02  0.80894089423E+02  0.41800000000E+01 0.  1.
        -11    1    1    2    0    0  0.79591662779E+01 -0.53626552743E+02  0.35717481437E+01  0.54331509014E+02  0.00000000000E+00 0.  1.
         11    1    1    2    0    0  0.85026952678E+02 -0.92985615837E+02 -0.11722187845E+03  0.17209554387E+03  0.00000000000E+00 0. -1.
</event>
<event>
 7    1  0.2719869E-009  0.1954127E+03  0.7561462E-02  0.1153668E+00
         -2   -1    0    0    0  501 -0.00000000000E+00  0.00000000000E+00  0.18083020264E+03  0.18083020264E+03  0.00000000000E+00 0.  1.
          2   -1    0    0  501    0  0.00000000000E+00 -0.00000000000E+00 -0.35432820880E+03  0.35432820880E+03  0.00000000000E+00 0. -1.
         25    2    1    2    0    0 -0.15297670800E+03 -0.70913900683E+02 -0.25121498800E+03  0.32739432500E+03  0.12508964524E+03 0.  0.
          5    1    3    3  502    0  0.10404885846E+02 -0.42208176577E+02 -0.60133089848E+02  0.74318589290E+02  0.41800000000E+01 0. -1.
         -5    1    3    3    0  502 -0.16338159385E+03 -0.28705724106E+02 -0.19108189815E+03  0.25307573571E+03  0.41800000000E+01 0. -1.
        -11    1    1    2    0    0  0.51333393910E+02  0.60039741032E+02  0.69493637334E+02  0.10521051974E+03  0.00000000000E+00 0.  1.
         11    1    1    2    0    0  0.10164331409E+03  0.10874159651E+02  0.82233445121E+01  0.10255356670E+03  0.00000000000E+00 0. -1.
</event>
<event>
 7    1  0.2719869E-009  0.1021327E+03  0.7561462E-02  0.1275874E+00
         -1   -1    0    0    0  501 -0.00000000000E+00  0.00000000000E+00  0.57749659261E+03  0.57749659261E+03  0.00000000000E+00 0.  1.
          1   -1    0    0  501    0  0.00000000000E+00 -0.00000000000E+00 -0.25640983902E+02  0.25640983902E+02  0.00000000000E+00 0. -1.
         25    2    1    2    0    0 -0.33174181193E+02  0.32474204339E+02  0.39309815940E+03  0.41512497159E+03  0.12508988317E+03 0.  0.
          5    1    3    3  502    0  0.17659503276E+02  0.57206861218E+02  0.10025628492E+03  0.11684724256E+03  0.41800000000E+01 0.  1.
         -5    1    3    3    0  502 -0.50833684469E+02 -0.24732656879E+02  0.29284187447E+03  0.29827772904E+03  0.41800000000E+01 0.  1.
        -11    1    1    2    0    0  0.57064333838E+02 -0.19049095081E+02  0.14575124817E+03  0.15767889067E+03  0.00000000000E+00 0.  1.
         11    1    1    2    0    0 -0.23890152646E+02 -0.13425109259E+02  0.13006201140E+02  0.30333714249E+02  0.00000000000E+00 0. -1.
</event>
<event>
 7    1  0.2719869E-009  0.2620204E+03  0.7561462E-02  0.1105935E+00
          2   -1    0    0  501    0  0.00000000000E+00  0.00000000000E+00  0.15347415170E+03  0.15347415170E+03  0.00000000000E+00 0. -1.
         -2   -1    0    0    0  501 -0.00000000000E+00 -0.00000000000E+00 -0.50327956255E+03  0.50327956255E+03  0.00000000000E+00 0.  1.
         25    2    1    2    0    0  0.23285778815E+03 -0.91538362337E+02 -0.24549190846E+03  0.37217864681E+03  0.12509455120E+03 0.  0.
          5    1    3    3  502    0  0.18217176174E+03 -0.33091915120E+02 -0.10808040790E+03  0.21443057756E+03  0.41800000000E+01 0. -1.
         -5    1    3    3    0  502  0.50686026410E+02 -0.58446447216E+02 -0.13741150056E+03  0.15774806925E+03  0.41800000000E+01 0. -1.
        -11    1    1    2    0    0 -0.11161349442E+03  0.84360588084E+02 -0.78427364332E+02  0.16039056217E+03  0.00000000000E+00 0. -1.
         11    1    1    2    0    0 -0.12124429373E+03  0.71777742525E+01 -0.25886138058E+02  0.12418450527E+03  0.00000000000E+00 0.  1.
</event>
<event>
 7    1  0.2719869E-009  0.7535303E+02  0.7561462E-02  0.1342781E+00
          2   -1    0    0  501    0  0.00000000000E+00  0.00000000000E+00  0.15720787016E+03  0.15720787016E+03  0.00000000000E+00 0. -1.
         -2   -1    0    0    0  501 -0.00000000000E+00 -0.00000000000E+00 -0.71206455725E+02  0.71206455725E+02  0.00000000000E+00 0.  1.
         25    2    1    2    0    0  0.61614794183E+01  0.88020878548E+01  0.37174257112E+02  0.13093565357E+03  0.12508708728E+03 0.  0.
          5    1    3    3  502    0  0.29154704369E+02  0.36057005062E+02  0.68812039385E+02  0.83082330042E+02  0.41800000000E+01 0. -1.
         -5    1    3    3    0  502 -0.22993224950E+02 -0.27254917207E+02 -0.31637782273E+02  0.47853323529E+02  0.41800000000E+01 0. -1.
        -11    1    1    2    0    0  0.18542520885E+02 -0.30283174777E+02 -0.35775757539E+01  0.35688861058E+02  0.00000000000E+00 0.  1.
         11    1    1    2    0    0 -0.24704000303E+02  0.21481086922E+02  0.52404733076E+02  0.61789811256E+02  0.00000000000E+00 0. -1.
</event>
<event>
 6    1  0.2719869E-009  0.1843291E+03  0.7561462E-02  0.1163678E+00
         -2   -1    0    0    0  501 -0.00000000000E+00  0.00000000000E+00  0.16920789872E+03  0.16920789872E+03  0.00000000000E+00 0.  1.
          2   -1    0    0  501    0  0.00000000000E+00 -0.00000000000E+00 -0.26973999180E+03  0.26973999180E+03  0.00000000000E+00 0. -1.
          5    1    1    2  502    0 -0.41676543392E+02  0.11918681610E+02  0.52294965473E+02  0.68053104662E+02  0.41800000000E+01 0. -1.
         -5    1    1    2    0  502 -0.11616812076E+03 -0.77932460452E+02 -0.36500312780E+02  0.14463141397E+03  0.41800000000E+01 0. -1.
        -11    1    1    2    0    0  0.79285259104E+02  0.71018302884E+02 -0.32552065234E+02  0.11130763050E+03  0.00000000000E+00 0.  1.
         11    1    1    2    0    0  0.78559405046E+02 -0.50045240419E+01 -0.83774680532E+02  0.11495574140E+03  0.00000000000E+00 0. -1.
</event>
<event>
 7    1  0.2719869E-009  0.1228943E+03  0.7561462E-02  0.1238397E+00
         -2   -1    0    0    0  501 -0.00000000000E+00  0.00000000000E+00  0.10384529241E+03  0.10384529241E+03  0.00000000000E+00 0.  1.
          2   -1    0    0  501    0  0.00000000000E+00 -0.00000000000E+00 -0.14701915597E+03  0.14701915597E+03  0.00000000000E+00 0. -1.
         25    2    1    2    0    0  0.13746536563E+02 -0.56328531783E+02 -0.28125269956E+02  0.14071755763E+03  0.12509408242E+03 0.  0.
          5    1    3    3  502    0 -0.42855287159E+02 -0.66575615232E+02 -0.82467338101E+01  0.79714297334E+02  0.41800000000E+01 0.  1.
         -5    1    3    3    0  502  0.56601823722E+02  0.10247083449E+02 -0.19878536146E+02  0.61003260300E+02  0.41800000000E+01 0.  1.
        -11    1    1    2    0    0  0.33390205028E+02  0.51591819756E+02 -0.45432275277E+01  0.61621932572E+02  0.00000000000E+00 0.  1.
         11    1    1    2    0    0 -0.47136741592E+02  0.47367120270E+01 -0.10505366079E+02  0.48524958168E+02  0.00000000000E+00 0. -1.
</event>
<event>
 7    1  0.2719869E-009  0.1247817E+03  0.7561462E-02  0.1235411E+00
          1   -1    0    0  501    0  0.00000000000E+00  0.00000000000E+00  0.12369031309E+03  0.12369031309E+03  0.00000000000E+00 0. -1.
         -1   -1    0    0    0  501 -0.00000000000E+00 -0.00000000000E+00 -0.16080858920E+03  0.16080858920E+03  0.00000000000E+00 0.  1.
         25    2    1    2    0    0 -0.90336517854E+02 -0.92264438384E+00 -0.24868545835E+02  0.15628821266E+03  0.12508406419E+03 0.  0.
          5    1    3    3  502    0 -0.56677311288E+02 -0.59158189043E+02 -0.32968372553E+02  0.88410377979E+02  0.41800000000E+01 0.  1.
         -5    1    3    3    0  502 -0.33659206567E+02  0.58235544659E+02  0.80998267180E+01  0.67877834683E+02  0.41800000000E+01 0.  1.
        -11    1    1    2    0    0  0.40789313451E+02  0.21941133138E+02 -0.45516908001E+02  0.64938203926E+02  0.00000000000E+00 0.  1.
         11    1    1    2    0    0  0.49547204403E+02 -0.21018488754E+02  0.33267177726E+02  0.63272485707E+02  0.00000000000E+00 0. -1.
</event>
<event>
 7    1  0.2719869E-009  0.1372110E+03  0.7561462E-02  0.1217132E+00
          1   -1    0    0  501    0  0.00000000000E+00  0.00000000000E+00  0.84460407825E+03  0.84460407825E+03  0.00000000000E+00 0. -1.
         -1   -1    0    0    0  501 -0.00000000000E+00 -0.00000000000E+00 -0.32192062911E+02  0.32192062911E+02  0.00000000000E+00 0.  1.
         25    2    1    2    0    0 -0.28006360189E+02 -0.11964807394E+03  0.40538674576E+03  0.44168454982E+03  0.12508721000E+03 0.  0.
          5    1    3    3  502    0 -0.78204157138E+01 -0.98279878414E+02  0.39938252442E+03  0.41139271580E+03  0.41800000000E+01 0.  1.
         -5    1    3    3    0  502 -0.20185944475E+02 -0.21368195521E+02  0.60042213380E+01  0.30291834016E+02  0.41800000000E+01 0.  1.
        -11    1    1    2    0    0  0.55879374280E+02  0.78968418016E+02  0.32794599720E+03  0.34191679192E+03  0.00000000000E+00 0. -1.
         11    1    1    2    0    0 -0.27873014091E+02  0.40679655919E+02  0.79079272381E+02  0.93194799429E+02  0.00000000000E+00 0.  1.
</event>
<event>
 7    1  0.2719869E-009  0.1209143E+03  0.7561462E-02  0.1241596E+00
          1   -1    0    0  501    0  0.00000000000E+00  0.00000000000E+00  0.22305207303E+03  0.22305207303E+03  0.00000000000E+00 0.  1.
         -1   -1    0    0    0  501 -0.00000000000E+00 -0.00000000000E+00 -0.69281597537E+02  0.69281597537E+02  0.00000000000E+00 0. -1.
         25    2    1    2    0    0  0.11676034008E+02  0.54772023025E+02  0.11492174270E+03  0.17885110687E+03  0.12507760474E+03 0.  0.
          5    1    3    3  502    0 -0.53834406452E+02  0.43863788072E+02  0.69125477711E+02  0.98071296978E+02  0.41800000000E+01 0. -1.
         -5    1    3    3    0  502  0.65510440461E+02  0.10908234953E+02  0.45796264991E+02  0.80779809893E+02  0.41800000000E+01 0. -1.
        -11    1    1    2    0    0  0.29050701933E+02 -0.57993843447E+02  0.16558680470E+02  0.66943401912E+02  0.00000000000E+00 0.  1.
         11    1    1    2    0    0 -0.40726735942E+02  0.32218204229E+01  0.22290052322E+02  0.46539161787E+02  0.00000000000E+00 0. -1.
</event>
<event>
 7    1  0.2719869E-009  0.1765280E+03  0.7561462E-02  0.1171206E+00
         -1   -1    0    0    0  501 -0.00000000000E+00  0.00000000000E+00  0.15433815578E+03  0.15433815578E+03  0.00000000000E+00 0.  1.
          1   -1    0    0  501    0  0.00000000000E+00 -0.00000000000E+00 -0.25038675100E+03  0.25038675100E+03  0.00000000000E+00 0. -1.
         25    2    1    2    0    0  0.14750732811E+03  0.47491696004E+02 -0.10629801790E+03  0.22574482723E+03  0.12509030888E+03 0.  0.
          5    1    3    3  502    0  0.46824118511E+02 -0.32198963940E+02  0.30153430805E+01  0.57059933816E+02  0.41800000000E+01 0. -1.
         -5    1    3    3    0  502  0.10068320960E+03  0.79690659944E+02 -0.10931336098E+03  0.16868489342E+03  0.41800000000E+01 0. -1.
        -11    1    1    2    0    0 -0.85639269549E+02  0.59553055779E+01  0.36253131959E+02  0.93187122127E+02  0.00000000000E+00 0.  1.
         11    1    1    2    0    0 -0.61868058560E+02 -0.53447001582E+02 -0.26003709270E+02  0.85792957426E+02  0.00000000000E+00 0. -1.
</event>
<event>
 7    1  0.2719869E-009  0.7079654E+02  0.7561462E-02  0.1357405E+00
          2   -1    0    0  501    0  0.00000000000E+00  0.00000000000E+00  0.49411394480E+03  0.49411394480E+03  0.00000000000E+00 0. -1.
         -2   -1    0    0    0  501 -0.00000000000E+00 -0.00000000000E+00 -0.25636197309E+02  0.25636197309E+02  0.00000000000E+00 0.  1.
         25    2    1    2    0    0 -0.31373529463E+02 -0.10933227271E+02  0.24057202954E+03  0.27317575733E+03  0.12508500783E+03 0.  0.
          5    1    3    3  502    0 -0.53264082376E+02  0.25425696270E+01  0.30656431559E+02  0.61650760965E+02  0.41800000000E+01 0. -1.
         -5    1    3    3    0  502  0.21890552913E+02 -0.13475796898E+02  0.20991559799E+03  0.21152499636E+03  0.41800000000E+01 0. -1.
        -11    1    1    2    0    0  0.39190793531E+02 -0.93783336233E+01  0.21962027533E+03  0.22328666950E+03  0.00000000000E+00 0. -1.
         11    1    1    2    0    0 -0.78172640685E+01  0.20311560895E+02  0.82854426071E+01  0.23287715274E+02  0.00000000000E+00 0.  1.
</event>
<event>
 7    1  0.2719869E-009  0.1038705E+03  0.7561462E-02  0.1272361E+00
         -2   -1    0    0    0  501 -0.00000000000E+00  0.00000000000E+00  0.71256916128E+02  0.71256916128E+02  0.00000000000E+00 0.  1.
          2   -1    0    0  501    0  0.00000000000E+00 -0.00000000000E+00 -0.19642626641E+03  0.19642626641E+03  0.00000000000E+00 0. -1.
         25    2    1    2    0    0  0.79128830544E+01 -0.36327696620E+02 -0.39241172644E+02  0.13627329952E+03  0.12509287458E+03 0.  0.
          5    1    3    3  502    0 -0.40405335633E+02 -0.43515221867E+02 -0.58627456007E+02  0.83551281735E+02  0.41800000000E+01 0.  1.
         -5    1    3    3    0  502  0.48318218688E+02  0.71875252472E+01  0.19386283363E+02  0.52722017782E+02  0.41800000000E+01 0.  1.
        -11    1    1    2    0    0 -0.27566951762E+02  0.61412952393E+02 -0.53993740010E+02  0.86294910113E+02  0.00000000000E+00 0.  1.
         11    1    1    2    0    0  0.19654068708E+02 -0.25085255773E+02 -0.31934437633E+02  0.45114972913E+02  0.00000000000E+00 0. -1.
</event>
<event>
 7    1  0.2719869E-009  0.3651169E+03  0.7561462E-02  0.1056576E+00
          1   -1    0    0  501    0  0.00000000000E+00  0.00000000000E+00  0.42288163467E+03  0.42288163467E+03  0.00000000000E+00 0.  1.
         -1   -1    0    0    0  501 -0.00000000000E+00 -0.00000000000E+00 -0.32650439725E+03  0.32650439725E+03  0.00000000000E+00 0. -1.
         25    2    1    2    0    0  0.29064303512E+03  0.20280620714E+03  0.19607092264E+02  0.37634461135E+03  0.12508835640E+03 0.  0.
          5    1    3    3  502    0  0.21781764486E+03  0.20230610020E+03 -0.10354114438E+02  0.29748439400E+03  0.41800000000E+01 0.  1.
         -5    1    3    3    0  502  0.72825390255E+02  0.50010694782E+00  0.29961206703E+02  0.78860217346E+02  0.41800000000E+01 0.  1.
        -11    1    1    2    0    0 -0.12957457398E+03 -0.12889239199E+03  0.79739642924E+01  0.18293824926E+03  0.00000000000E+00 0.  1.
         11    1    1    2    0    0 -0.16106846113E+03 -0.73913815158E+02  0.68796180859E+02  0.19010317131E+03  0.00000000000E+00 0. -1.
</event>
<event>
 7    1  0.2719869E-009  0.1085179E+03  0.7561462E-02  0.1263339E+00
         -1   -1    0    0    0  501 -0.00000000000E+00  0.00000000000E+00  0.32813816507E+03  0.32813816507E+03  0.00000000000E+00 0.  1.
          1   -1    0    0  501    0  0.00000000000E+00 -0.00000000000E+00 -0.46338272737E+02  0.46338272737E+02  0.00000000000E+00 0. -1.
         25    2    1    2    0    0  0.37862295368E+02 -0.16603033010E+01  0.23340291175E+03  0.26750754049E+03  0.12508818884E+03 0.  0.
          5    1    3    3  502    0  0.30871452873E+02  0.60286450666E+02  0.13145076564E+03  0.14793335974E+03  0.41800000000E+01 0. -1.
         -5    1    3    3    0  502  0.69908424949E+01 -0.61946753967E+02  0.10195214611E+03  0.11957418075E+03  0.41800000000E+01 0. -1.
        -11    1    1    2    0    0 -0.28297350189E+02  0.38980904473E+02  0.48620764831E+02  0.68441432729E+02  0.00000000000E+00 0.  1.
         11    1    1    2    0    0 -0.95649451788E+01 -0.37320601172E+02 -0.22378424828E+00  0.38527464587E+02  0.00000000000E+00 0. -1.
</event>
<event>
 7    1  0.2719869E-009  0.1111461E+03  0.7561462E-02  0.1258462E+00
         -4   -1    0    0    0  501 -0.00000000000E+00  0.00000000000E+00  0.20534278013E+03  0.20534278013E+03  0.00000000000E+00 0.  1.
          4   -1    0    0  501    0  0.00000000000E+00 -0.00000000000E+00 -0.18514694257E+03  0.18514694257E+03  0.00000000000E+00 0. -1.
         25    2    1    2    0    0  0.59472348118E+02 -0.52464089512E+02 -0.13020474887E+03  0.19720696327E+03  0.12509144197E+03 0.  0.
          5    1    3    3  502    0  0.82490588130E+02 -0.30456506908E+02 -0.31648379455E+02  0.93548854965E+02  0.41800000000E+01 0.  1.
         -5    1    3    3    0  502 -0.23018240012E+02 -0.22007582603E+02 -0.98556369411E+02  0.10365810830E+03  0.41800000000E+01 0.  1.
        -11    1    1    2    0    0 -0.42272079242E+01  0.46367266789E+02  0.12258760199E+03  0.13113166238E+03  0.00000000000E+00 0.  1.
         11    1    1    2    0    0 -0.55245140194E+02  0.60968227226E+01  0.27812984436E+02  0.62151097059E+02  0.00000000000E+00 0. -1.
</event>
<event>
 7    1  0.2719869E-009  0.9825295E+02  0.7561462E-02  0.1284013E+00
         -2   -1    0    0    0  501 -0.00000000000E+00  0.00000000000E+00  0.13030594098E+03  0.13030594098E+03  0.00000000000E+00 0.  1.
          2   -1    0    0  501    0  0.00000000000E+00 -0.00000000000E+00 -0.13296671444E+03  0.13296671444E+03  0.00000000000E+00 0. -1.
         25    2    1    2    0    0  0.27981987914E+02 -0.55113454806E+02 -0.46489915563E+02  0.14705591041E+03  0.12507455372E+03 0.  0.
          5    1    3    3  502    0 -0.19559070544E+02 -0.71842695071E+01 -0.71768558501E+02  0.74848977001E+02  0.41800000000E+01 0.  1.
         -5    1    3    3    0  502  0.47541058458E+02 -0.47929185299E+02  0.25278642938E+02  0.72206933404E+02  0.41800000000E+01 0.  1.
        -11    1    1    2    0    0 -0.59610103497E+02  0.27572954536E+02  0.27803940862E+02  0.71321044497E+02  0.00000000000E+00 0.  1.
         11    1    1    2    0    0  0.31628115583E+02  0.27540500271E+02  0.16025201244E+02  0.44895700523E+02  0.00000000000E+00 0. -1.
</event>
<event>
 7    1  0.2719869E-009  0.1484456E+03  0.7561462E-02  0.1202396E+00
          1   -1    0    0  501    0  0.00000000000E+00  0.00000000000E+00  0.73880799350E+03  0.73880799350E+03  0.00000000000E+00 0. -1.
         -1   -1    0    0    0  501 -0.00000000000E+00 -0.00000000000E+00 -0.87326576634E+02  0.87326576634E+02  0.00000000000E+00 0.  1.
         25    2    1    2    0    0  0.94267431598E+02  0.10919216608E+03  0.62401986462E+03  0.65257217003E+03  0.12506145631E+03 0.  0.
          5    1    3    3  502    0  0.44906750972E+02  0.87616225117E+02  0.17941357509E+03  0.20469470563E+03  0.41800000000E+01 0.  1.
         -5    1    3    3    0  502  0.49360680626E+02  0.21575940961E+02  0.44460628954E+03  0.44787746440E+03  0.41800000000E+01 0.  1.
        -11    1    1    2    0    0 -0.82917185761E+02 -0.98069715731E+02 -0.13975135198E+02  0.12918294486E+03  0.00000000000E+00 0.  1.
         11    1    1    2    0    0 -0.11350245837E+02 -0.11122450347E+02  0.41436687438E+02  0.44379455248E+02  0.00000000000E+00 0. -1.
</event>
<event>
 7    1  0.2719869E-009  0.2071245E+03  0.7561462E-02  0.1143864E+00
         -2   -1    0    0    0  501 -0.00000000000E+00  0.00000000000E+00  0.76277196849E+02  0.76277196849E+02  0.00000000000E+00 0.  1.
          2   -1    0    0  501    0  0.00000000000E+00 -0.00000000000E+00 -0.71137770326E+03  0.71137770326E+03  0.00000000000E+00 0. -1.
         25    2    1    2    0    0  0.40540515321E+02  0.17808950230E+03 -0.49048120062E+03  0.53812548778E+03  0.12509127956E+03 0.  0.
          5    1    3    3  502    0 -0.40765446815E+02  0.10035171801E+03 -0.25704607196E+03  0.27896674439E+03  0.41800000000E+01 0. -1.
         -5    1    3    3    0  502  0.81305962136E+02  0.77737784287E+02 -0.23343512866E+03  0.25915874339E+03  0.41800000000E+01 0. -1.
        -11    1    1    2    0    0 -0.25210039743E+01 -0.13804384942E+03 -0.64915407909E+02  0.15256628070E+03  0.00000000000E+00 0. -1.
         11    1    1    2    0    0 -0.38019511347E+02 -0.40045652880E+02 -0.79703897879E+02  0.96963131626E+02  0.00000000000E+00 0.  1.
</event>
<event>
 7    1  0.2719869E-009  0.6048118E+02  0.7561462E-02  0.1395823E+00
          2   -1    0    0  501    0  0.00000000000E+00  0.00000000000E+00  0.65425865733E+02  0.65425865733E+02  0.00000000000E+00 0. -1.
         -2   -1    0    0    0  501 -0.00000000000E+00 -0.00000000000E+00 -0.26505984710E+03  0.26505984710E+03  0.00000000000E+00 0.  1.
         25    2    1    2    0    0 -0.74337080181E+01  0.81733171164E+01 -0.19948234835E+03  0.23571798650E+03  0.12509076196E+03 0.  0.
          5    1    3    3  502    0 -0.53809100822E+01  0.19831802956E+02  0.11800844521E+02  0.24062147311E+02  0.41800000000E+01 0.  1.
         -5    1    3    3    0  502 -0.20527979359E+01 -0.11658485840E+02 -0.21128319287E+03  0.21165583919E+03  0.41800000000E+01 0.  1.
        -11    1    1    2    0    0  0.15933173132E+01  0.39438089597E+02 -0.18267517874E+02  0.43492571554E+02  0.00000000000E+00 0.  1.
         11    1    1    2    0    0  0.58403907049E+01 -0.47611406713E+02  0.18115884865E+02  0.51275154775E+02  0.00000000000E+00 0. -1.
</event>
<event>
 7    1  0.2719869E-009  0.1063176E+03  0.7561462E-02  0.1267545E+00
         -1   -1    0    0    0  501 -0.00000000000E+00  0.00000000000E+00  0.17239329844E+02  0.17239329844E+02  0.00000000000E+00 0.  1.
          1   -1    0    0  501    0  0.00000000000E+00 -0.00000000000E+00 -0.10166624539E+04  0.10166624539E+04  0.00000000000E+00 0. -1.
         25    2    1    2    0    0  0.15885145349E+02 -0.11603237693E+02 -0.83401600596E+03  0.84357407906E+03  0.12509019027E+03 0.  0.
          5    1    3    3  502    0 -0.17998879831E+02 -0.59445852933E+02 -0.30394019461E+03  0.31024971137E+03  0.41800000000E+01 0.  1.
         -5    1    3    3    0  502  0.33884025181E+02  0.47842615240E+02 -0.53007581135E+03  0.53332436769E+03  0.41800000000E+01 0.  1.
        -11    1    1    2    0    0 -0.13663479385E+02 -0.38810741824E+02 -0.96614386367E+02  0.10501097087E+03  0.00000000000E+00 0.  1.
         11    1    1    2    0    0 -0.22216659645E+01  0.50413979517E+02 -0.68792731749E+02  0.85316733833E+02  0.00000000000E+00 0. -1.
</event>
<event>
 7    1  0.2719869E-009  0.1434078E+03  0.7561462E-02  0.1208816E+00
          1   -1    0    0  501    0  0.00000000000E+00  0.00000000000E+00  0.86223002676E+03  0.86223002676E+03  0.00000000000E+00 0. -1.
         -1   -1    0    0    0  501 -0.00000000000E+00 -0.00000000000E+00 -0.48131902449E+02  0.48131902449E+02  0.00000000000E+00 0.  1.
         25    2    1    2    0    0 -0.87895473597E+02 -0.77083185785E+02  0.70885552865E+03  0.72923536965E+03  0.12506251251E+03 0.  0.
          5    1    3    3  502    0  0.21751861661E+02 -0.52187862964E+02  0.18784387162E+03  0.19621291760E+03  0.41800000000E+01 0.  1.
         -5    1    3    3    0  502 -0.10964733526E+03 -0.24895322821E+02  0.52101165703E+03  0.53302245205E+03  0.41800000000E+01 0.  1.
        -11    1    1    2    0    0  0.53728061119E+02  0.38676931181E+02  0.11116248108E+03  0.12938201868E+03  0.00000000000E+00 0. -1.
         11    1    1    2    0    0  0.34167412478E+02  0.38406254604E+02 -0.59198854195E+01  0.51744540886E+02  0.00000000000E+00 0.  1.
</event>
<event>
 7    1  0.2719869E-009  0.1120704E+03  0.7561462E-02  0.1256783E+00
          1   -1    0    0  501    0  0.00000000000E+00  0.00000000000E+00  0.19333380880E+04  0.19333380880E+04  0.00000000000E+00 0. -1.
         -1   -1    0    0    0  501 -0.00000000000E+00 -0.00000000000E+00 -0.19954956979E+02  0.19954956979E+02  0.00000000000E+00 0.  1.
         25    2    1    2    0    0 -0.17672397262E+01  0.59178761806E+02  0.17809524445E+04  0.17863217258E+04  0.12509376278E+03 0.  0.
          5    1    3    3  502    0 -0.55567319440E+02  0.86407865029E+00  0.55284915272E+03  0.55565108808E+03  0.41800000000E+01 0.  1.
         -5    1    3    3    0  502  0.53800079714E+02  0.58314683156E+02  0.12281032918E+04  0.12306706377E+04  0.41800000000E+01 0.  1.
        -11    1    1    2    0    0 -0.30614392811E+02 -0.42932062426E+02  0.11552983345E+03  0.12699427329E+03  0.00000000000E+00 0. -1.
         11    1    1    2    0    0  0.32381632537E+02 -0.16246699380E+02  0.16900853126E+02  0.39977045950E+02  0.00000000000E+00 0.  1.
</event>
<event>
 7    1  0.2719869E-009  0.1178808E+03  0.7561462E-02  0.1246635E+00
         -2   -1    0    0    0  501 -0.00000000000E+00  0.00000000000E+00  0.14992064092E+03  0.14992064092E+03  0.00000000000E+00 0.  1.
          2   -1    0    0  501    0  0.00000000000E+00 -0.00000000000E+00 -0.17242940975E+03  0.17242940975E+03  0.00000000000E+00 0. -1.
         25    2    1    2    0    0 -0.10137642180E+03 -0.11057900098E+02 -0.72856384601E+02  0.17707817955E+03  0.12509665401E+03 0.  0.
          5    1    3    3  502    0 -0.54884321160E+02  0.37014671544E+02  0.13583714160E+02  0.67707933871E+02  0.41800000000E+01 0.  1.
         -5    1    3    3    0  502 -0.46492100637E+02 -0.48072571642E+02 -0.86440098761E+02  0.10937024568E+03  0.41800000000E+01 0.  1.
        -11    1    1    2    0    0  0.23939299402E+02 -0.14458947781E+01  0.61529899274E+02  0.66038694507E+02  0.00000000000E+00 0.  1.
         11    1    1    2    0    0  0.77437122395E+02  0.12503794876E+02 -0.11182283502E+02  0.79233176609E+02  0.00000000000E+00 0. -1.
</event>
<event>
 7    1  0.2719869E-009  0.8082374E+02  0.7561462E-02  0.1326730E+00
         -3   -1    0    0    0  501 -0.00000000000E+00  0.00000000000E+00  0.96293639450E+02  0.96293639450E+02  0.00000000000E+00 0.  1.
          3   -1    0    0  501    0  0.00000000000E+00 -0.00000000000E+00 -0.13409067760E+03  0.13409067760E+03  0.00000000000E+00 0. -1.
         25    2    1    2    0    0  0.89274463362E+01 -0.25604094711E+02 -0.35215047570E+00  0.12799518348E+03  0.12508946407E+03 0.  0.
          5    1    3    3  502    0 -0.25978829172E+02 -0.65570745533E+01 -0.54388737565E+02  0.60774188318E+02  0.41800000000E+01 0.  1.
         -5    1    3    3    0  502  0.34906275508E+02 -0.19047020158E+02  0.54036587089E+02  0.67220995165E+02  0.41800000000E+01 0.  1.
        -11    1    1    2    0    0  0.33363596919E+02 -0.14394011285E+02 -0.20700010603E+02  0.41818746983E+02  0.00000000000E+00 0.  1.
         11    1    1    2    0    0 -0.42291043255E+02  0.39998105996E+02 -0.16744877073E+02  0.60570386585E+02  0.00000000000E+00 0. -1.
</event>
<event>
 7    1  0.2719869E-009  0.7002985E+02  0.7561462E-02  0.1359992E+00
          2   -1    0    0  501    0  0.00000000000E+00  0.00000000000E+00  0.11111478346E+04  0.11111478346E+04  0.00000000000E+00 0. -1.
         -2   -1    0    0    0  501 -0.00000000000E+00 -0.00000000000E+00 -0.25600028341E+02  0.25600028341E+02  0.00000000000E+00 0.  1.
         25    2    1    2    0    0  0.34624741325E+02 -0.20147172273E+02  0.99076833068E+03  0.99943791729E+03  0.12509789832E+03 0.  0.
          5    1    3    3  502    0 -0.18465902444E+02  0.11526348167E+02  0.76500393185E+03  0.76532498613E+03  0.41800000000E+01 0.  1.
         -5    1    3    3    0  502  0.53090643769E+02 -0.31673520440E+02  0.22576439884E+03  0.23411293116E+03  0.41800000000E+01 0.  1.
        -11    1    1    2    0    0 -0.16172941070E+02 -0.11119441966E+02  0.98847827357E+02  0.10077747261E+03  0.00000000000E+00 0. -1.
         11    1    1    2    0    0 -0.18451800255E+02  0.31266614238E+02 -0.40683518038E+01  0.36532473020E+02  0.00000000000E+00 0.  1.
</event>
<event>
 7    1  0.2719869E-009  0.1167323E+03  0.7561462E-02  0.1248587E+00
         -1   -1    0    0    0  501 -0.00000000000E+00  0.00000000000E+00  0.81656336747E+02  0.81656336747E+02  0.00000000000E+00 0.  1.
          1   -1    0    0  501    0  0.00000000000E+00 -0.00000000000E+00 -0.20281203968E+03  0.20281203968E+03  0.00000000000E+00 0. -1.
         25    2    1    2    0    0  0.68999785221E+02 -0.20351563137E+02 -0.28645072457E+02  0.14712032008E+03  0.12509473179E+03 0.  0.
          5    1    3    3  502    0  0.86638042104E+01 -0.59337097422E+02 -0.42790295707E+02  0.73786410947E+02  0.41800000000E+01 0.  1.
         -5    1    3    3    0  502  0.60335981011E+02  0.38985534285E+02  0.14145223250E+02  0.73333909134E+02  0.41800000000E+01 0.  1.
        -11    1    1    2    0    0 -0.67885591847E+02 -0.12074313516E+02 -0.59704782453E+02  0.91208024181E+02  0.00000000000E+00 0.  1.
         11    1    1    2    0    0 -0.11141933743E+01  0.32425876653E+02 -0.32805848019E+02  0.46140032161E+02  0.00000000000E+00 0. -1.
</event>
<event>
 7    1  0.2719869E-009  0.8853482E+02  0.7561462E-02  0.1306439E+00
          1   -1    0    0  501    0  0.00000000000E+00  0.00000000000E+00  0.76763999496E+02  0.76763999496E+02  0.00000000000E+00 0. -1.
         -1   -1    0    0    0  501 -0.00000000000E+00 -0.00000000000E+00 -0.20705701848E+03  0.20705701848E+03  0.00000000000E+00 0.  1.
         25    2    1    2    0    0 -0.16164631262E+02  0.62964033206E+02 -0.84915593238E+02  0.16457557772E+03  0.12509475619E+03 0.  0.
          5    1    3    3  502    0 -0.36229246423E+02  0.74556415927E+02 -0.10484966823E+03  0.13372412939E+03  0.41800000000E+01 0. -1.
         -5    1    3    3    0  502  0.20064615161E+02 -0.11592382721E+02  0.19934074989E+02  0.30851448336E+02  0.41800000000E+01 0. -1.
        -11    1    1    2    0    0  0.15611111110E+02 -0.12343938313E+02 -0.62666956445E+02  0.65751251191E+02  0.00000000000E+00 0.  1.
         11    1    1    2    0    0  0.55352015243E+00 -0.50620094894E+02  0.17289530701E+02  0.53494189063E+02  0.00000000000E+00 0. -1.
</event>
<event>
 7    1  0.2719869E-009  0.1627160E+03  0.7561462E-02  0.1185664E+00
         -2   -1    0    0    0  501 -0.00000000000E+00  0.00000000000E+00  0.27697435411E+03  0.27697435411E+03  0.00000000000E+00 0.  1.
          2   -1    0    0  501    0  0.00000000000E+00 -0.00000000000E+00 -0.10358868420E+03  0.10358868420E+03  0.00000000000E+00 0. -1.
         25    2    1    2    0    0 -0.60384560575E+02  0.10876641068E+03  0.61669367930E+02  0.18688437446E+03  0.12508489607E+03 0.  0.
          5    1    3    3  502    0 -0.69653582532E+02  0.76172525615E+01  0.46992573708E+01  0.70350547375E+02  0.41800000000E+01 0. -1.
         -5    1    3    3    0  502  0.92690219569E+01  0.10114915812E+03  0.56970110559E+02  0.11653382708E+03  0.41800000000E+01 0. -1.
        -11    1    1    2    0    0  0.32921019154E+02  0.77911110115E+01  0.45943468660E+02  0.57055212079E+02  0.00000000000E+00 0.  1.
         11    1    1    2    0    0  0.27463541421E+02 -0.11655752170E+03  0.65772833328E+02  0.13662345178E+03  0.00000000000E+00 0. -1.
</event>
<event>
 7    1  0.2719869E-009  0.9423519E+02  0.7561462E-02  0.1292908E+00
         -2   -1    0    0    0  501 -0.00000000000E+00  0.00000000000E+00  0.82619469145E+02  0.82619469145E+02  0.00000000000E+00 0.  1.
          2   -1    0    0  501    0  0.00000000000E+00 -0.00000000000E+00 -0.17192611636E+03  0.17192611636E+03  0.00000000000E+00 0. -1.
         25    2    1    2    0    0 -0.14495036552E+02  0.22891360929E+02 -0.95572088291E+02  0.15973552662E+03  0.12508914387E+03 0.  0.
          5    1    3    3  502    0  0.42592760822E+02 -0.10475057192E+02 -0.80527406174E+02  0.91793276675E+02  0.41800000000E+01 0.  1.
         -5    1    3    3    0  502 -0.57087797375E+02  0.33366418122E+02 -0.15044682117E+02  0.67942249943E+02  0.41800000000E+01 0.  1.
        -11    1    1    2    0    0 -0.19530991424E+02  0.16879261263E+02  0.28047381738E+02  0.38118561216E+02  0.00000000000E+00 0.  1.
         11    1    1    2    0    0  0.34026027976E+02 -0.39770622192E+02 -0.21781940666E+02  0.56691497674E+02  0.00000000000E+00 0. -1.
</event>
<event>
 7    1  0.2719869E-009  0.1842343E+03  0.7561462E-02  0.1163767E+00
          1   -1    0    0  501    0  0.00000000000E+00  0.00000000000E+00  0.51767415900E+03  0.51767415900E+03  0.00000000000E+00 0. -1.
         -1   -1    0    0    0  501 -0.00000000000E+00 -0.00000000000E+00 -0.85103890426E+02  0.85103890426E+02  0.00000000000E+00 0.  1.
         25    2    1    2    0    0  0.13079131548E+03 -0.11438118472E+03  0.28819821615E+03  0.35901959441E+03  0.12508970282E+03 0.  0.
          5    1    3    3  502    0  0.10295721003E+03 -0.12614847311E+03  0.16405169435E+03  0.23117970323E+03  0.41800000000E+01 0.  1.
         -5    1    3    3    0  502  0.27834105455E+02  0.11767288391E+02  0.12414652179E+03  0.12783989118E+03  0.41800000000E+01 0.  1.
        -11    1    1    2    0    0 -0.23319899690E+02  0.10385965543E+02  0.74382797593E+02  0.78641506722E+02  0.00000000000E+00 0. -1.
         11    1    1    2    0    0 -0.10747141579E+03  0.10399521917E+03  0.69989254836E+02  0.16511694830E+03  0.00000000000E+00 0.  1.
</event>
<event>
 7    1  0.2719869E-009  0.6048525E+02  0.7561462E-02  0.1395807E+00
         -1   -1    0    0    0  501 -0.00000000000E+00  0.00000000000E+00  0.67555509673E+02  0.67555509673E+02  0.00000000000E+00 0.  1.
          1   -1    0    0  501    0  0.00000000000E+00 -0.00000000000E+00 -0.26448447603E+03  0.26448447603E+03  0.00000000000E+00 0. -1.
         25    2    1    2    0    0  0.26248169346E+02  0.17712530536E+02 -0.20162134701E+02  0.13059891396E+03  0.12508742750E+03 0.  0.
          5    1    3    3  502    0  0.18068865050E+02  0.38844088655E+02  0.44525487417E+02  0.61930110103E+02  0.41800000000E+01 0.  1.
         -5    1    3    3    0  502  0.81793042967E+01 -0.21131558119E+02 -0.64687622118E+02  0.68668803853E+02  0.41800000000E+01 0.  1.
        -11    1    1    2    0    0  0.14394518892E+01 -0.25955901069E+02 -0.40313168959E+01  0.26306507521E+02  0.00000000000E+00 0.  1.
         11    1    1    2    0    0 -0.27687621236E+02  0.82433705334E+01 -0.17273551476E+03  0.17513456422E+03  0.00000000000E+00 0. -1.
</event>
<event>
 7    1  0.2719869E-009  0.8249809E+02  0.7561462E-02  0.1322108E+00
          1   -1    0    0  501    0  0.00000000000E+00  0.00000000000E+00  0.80148559291E+03  0.80148559291E+03  0.00000000000E+00 0. -1.
         -1   -1    0    0    0  501 -0.00000000000E+00 -0.00000000000E+00 -0.18769195077E+02  0.18769195077E+02  0.00000000000E+00 0.  1.
         25    2    1    2    0    0  0.54340774054E+02 -0.94217247170E+01  0.39199948438E+03  0.41515216141E+03  0.12508410270E+03 0.  0.
          5    1    3    3  502    0  0.28381306421E+02 -0.19179241017E+02  0.38460201398E+03  0.38614702303E+03  0.41800000000E+01 0.  1.
         -5    1    3    3    0  502  0.25959467633E+02  0.97575163004E+01  0.73974704024E+01  0.29005138381E+02  0.41800000000E+01 0.  1.
        -11    1    1    2    0    0  0.18390959898E+02 -0.17014993117E+02  0.52875122976E+02  0.58510819739E+02  0.00000000000E+00 0.  1.
         11    1    1    2    0    0 -0.72731733952E+02  0.26436717834E+02  0.33784179048E+03  0.34659180684E+03  0.00000000000E+00 0. -1.
</event>
<event>
 7    1  0.2719869E-009  0.1800180E+03  0.7561462E-02  0.1167786E+00
         -2   -1    0    0    0  501 -0.00000000000E+00  0.00000000000E+00  0.23108034627E+02  0.23108034627E+02  0.00000000000E+00 0. -1.
          2   -1    0    0  501    0  0.00000000000E+00 -0.00000000000E+00 -0.18979554108E+04  0.18979554108E+04  0.00000000000E+00 0.  1.
         25    2    1    2    0    0  0.16732325329E+03 -0.28785672283E+02 -0.12651740751E+04  0.12826283916E+04  0.12507783362E+03 0.  0.
          5    1    3    3  502    0  0.14686592146E+03 -0.29489395873E+02 -0.64804793584E+03  0.66514872239E+03  0.41800000000E+01 0.  1.
         -5    1    3    3    0  502  0.20457331829E+02  0.70372359049E+00 -0.61712613927E+03  0.61747966916E+03  0.41800000000E+01 0.  1.
        -11    1    1    2    0    0 -0.11217387831E+02 -0.22361348911E+02 -0.90396632957E+02  0.93794514577E+02  0.00000000000E+00 0.  1.
         11    1    1    2    0    0 -0.15610586546E+03  0.51147021193E+02 -0.51927666807E+03  0.54464053926E+03  0.00000000000E+00 0. -1.
</event>
<event>
 7    1  0.2719869E-009  0.1063947E+03  0.7561462E-02  0.1267396E+00
          1   -1    0    0  501    0  0.00000000000E+00  0.00000000000E+00  0.17200726129E+03  0.17200726129E+03  0.00000000000E+00 0. -1.
         -1   -1    0    0    0  501 -0.00000000000E+00 -0.00000000000E+00 -0.73860961894E+02  0.73860961894E+02  0.00000000000E+00 0.  1.
         25    2    1    2    0    0 -0.21474848966E+02  0.42294743834E+01  0.76292029257E+02  0.14814841986E+03  0.12509365686E+03 0.  0.
          5    1    3    3  502    0  0.13851006371E+02 -0.53118838327E+02  0.53897815404E+02  0.77044845824E+02  0.41800000000E+01 0. -1.
         -5    1    3    3    0  502 -0.35325855338E+02  0.57348312710E+02  0.22394213853E+02  0.71103574032E+02  0.41800000000E+01 0. -1.
        -11    1    1    2    0    0 -0.33358719445E+02  0.74649518864E+01  0.23744374889E+02  0.41621208639E+02  0.00000000000E+00 0.  1.
         11    1    1    2    0    0  0.54833568412E+02 -0.11694426270E+02 -0.18901047465E+01  0.56098594693E+02  0.00000000000E+00 0. -1.
</event>
<event>
 7    1  0.2719869E-009  0.1604452E+03  0.7561462E-02  0.1188195E+00
         -1   -1    0    0    0  501 -0.00000000000E+00  0.00000000000E+00  0.38986131664E+02  0.38986131664E+02  0.00000000000E+00 0.  1.
          1   -1    0    0  501    0  0.00000000000E+00 -0.00000000000E+00 -0.81966162193E+03  0.81966162193E+03  0.00000000000E+00 0. -1.
         25    2    1    2    0    0  0.13588324476E+03  0.38467072405E+02 -0.43913902028E+03  0.47794745860E+03  0.12508685854E+03 0.  0.
          5    1    3    3  502    0  0.58292987811E+02 -0.33974908802E+02 -0.26901721388E+03  0.27738078632E+03  0.41800000000E+01 0.  1.
         -5    1    3    3    0  502  0.77590256953E+02  0.72441981207E+02 -0.17012180640E+03  0.20056667228E+03  0.41800000000E+01 0.  1.
        -11    1    1    2    0    0 -0.10306337814E+03 -0.46805622809E+02 -0.32264415945E+03  0.34192408495E+03  0.00000000000E+00 0. -1.
         11    1    1    2    0    0 -0.32819866628E+02  0.83385504038E+01 -0.18892310529E+02  0.38776210045E+02  0.00000000000E+00 0.  1.
</event>
<event>
 7    1  0.2719869E-009  0.1119879E+03  0.7561462E-02  0.1256932E+00
         -1   -1    0    0    0  501 -0.00000000000E+00  0.00000000000E+00  0.50282312550E+02  0.50282312550E+02  0.00000000000E+00 0.  1.
          1   -1    0    0  501    0  0.00000000000E+00 -0.00000000000E+00 -0.29079180831E+03  0.29079180831E+03  0.00000000000E+00 0. -1.
         25    2    1    2    0    0 -0.31024173068E+02  0.40781847212E+02 -0.11566562475E+03  0.17790614376E+03  0.12508557416E+03 0.  0.
          5    1    3    3  502    0  0.38655284447E+02  0.30510156515E+02 -0.93357865946E+01  0.50296421121E+02  0.41800000000E+01 0.  1.
         -5    1    3    3    0  502 -0.69679457515E+02  0.10271690697E+02 -0.10632983816E+03  0.12760972264E+03  0.41800000000E+01 0.  1.
        -11    1    1    2    0    0  0.16381126092E+01 -0.65546758191E+02 -0.67193855436E+02  0.93883305921E+02  0.00000000000E+00 0.  1.
         11    1    1    2    0    0  0.29386060459E+02  0.24764910978E+02 -0.57650015569E+02  0.69284671177E+02  0.00000000000E+00 0. -1.
</event>
<event>
 6    1  0.2719869E-009  0.8115088E+02  0.7561462E-02  0.1325817E+00
          1   -1    0    0  501    0  0.00000000000E+00  0.00000000000E+00  0.55649974387E+02  0.55649974387E+02  0.00000000000E+00 0. -1.
         -1   -1    0    0    0  501 -0.00000000000E+00 -0.00000000000E+00 -0.29983859032E+03  0.29983859032E+03  0.00000000000E+00 0.  1.
          5    1    1    2  502    0  0.39457109418E+01  0.37424369968E+02 -0.21396263740E+03  0.21728698697E+03  0.41800000000E+01 0. -1.
         -5    1    1    2    0  502  0.26132232484E+02  0.52575653906E+01  0.89593935072E+01  0.28430242709E+02  0.41800000000E+01 0. -1.
        -11    1    1    2    0    0 -0.57431813714E+02 -0.39964487814E+02 -0.42838844551E+02  0.82041087969E+02  0.00000000000E+00 0.  1.
         11    1    1    2    0    0  0.27353870288E+02 -0.27174475446E+01  0.36534725076E+01  0.27730247064E+02  0.00000000000E+00 0. -1.
</event>
<event>
 7    1  0.2719869E-009  0.1700604E+03  0.7561462E-02  0.1177785E+00
          4   -1    0    0  501    0  0.00000000000E+00  0.00000000000E+00  0.35442505730E+02  0.35442505730E+02  0.00000000000E+00 0. -1.
         -4   -1    0    0    0  501 -0.00000000000E+00 -0.00000000000E+00 -0.97642482702E+03  0.97642482702E+03  0.00000000000E+00 0.  1.
         25    2    1    2    0    0  0.13990284318E+03  0.37843645055E+02 -0.60568648674E+03  0.63522291299E+03  0.12508829666E+03 0.  0.
          5    1    3    3  502    0  0.25728723224E+02  0.53458104537E+02 -0.34615505390E+03  0.35122717702E+03  0.41800000000E+01 0.  1.
         -5    1    3    3    0  502  0.11417411996E+03 -0.15614459482E+02 -0.25953143285E+03  0.28399573597E+03  0.41800000000E+01 0.  1.
        -11    1    1    2    0    0 -0.82942040138E+02 -0.61907394615E+02 -0.15805403144E+03  0.18892587008E+03  0.00000000000E+00 0. -1.
         11    1    1    2    0    0 -0.56960803046E+02  0.24063749560E+02 -0.17724180311E+03  0.18771854968E+03  0.00000000000E+00 0.  1.
</event>
<event>
 7    1  0.2719869E-009  0.1244413E+03  0.7561462E-02  0.1235945E+00
          3   -1    0    0  501    0  0.00000000000E+00  0.00000000000E+00  0.51617092020E+03  0.51617092020E+03  0.00000000000E+00 0. -1.
         -3   -1    0    0    0  501 -0.00000000000E+00 -0.00000000000E+00 -0.33764422636E+02  0.33764422636E+02  0.00000000000E+00 0.  1.
         25    2    1    2    0    0  0.25304824204E+02 -0.70544583755E+02  0.26748173058E+03  0.30464904695E+03  0.12509073981E+03 0.  0.
          5    1    3    3  502    0  0.67133077609E+02 -0.34703429899E+02  0.84175180586E+02  0.11319943278E+03  0.41800000000E+01 0. -1.
         -5    1    3    3    0  502 -0.41828253405E+02 -0.35841153856E+02  0.18330655000E+03  0.19144961417E+03  0.41800000000E+01 0. -1.
        -11    1    1    2    0    0 -0.13483134958E+02  0.92253634031E+02  0.16307608547E+03  0.18784657988E+03  0.00000000000E+00 0.  1.
         11    1    1    2    0    0 -0.11821689246E+02 -0.21709050276E+02  0.51848681518E+02  0.57439716013E+02  0.00000000000E+00 0. -1.
</event>
<event>
 7    1  0.3645091E-009  0.1945545E+03  0.7561462E-02  0.1154416E+00
          1   -1    0    0  501    0  0.00000000000E+00  0.00000000000E+00  0.69883930741E+03  0.69883930741E+03  0.00000000000E+00 0.  1.
         -1   -1    0    0    0  501 -0.00000000000E+00 -0.00000000000E+00 -0.62309251164E+02  0.62309251164E+02  0.00000000000E+00 0. -1.
         25    2    1    2    0    0  0.66906994518E+02  0.16439045245E+03  0.32046597202E+03  0.38710131233E+03  0.12509284559E+03 0.  0.
          5    1    3    3  502    0  0.85821629297E+02  0.75087740444E+02  0.23830647664E+03  0.26421765654E+03  0.41800000000E+01 0. -1.
         -5    1    3    3    0  502 -0.18914634778E+02  0.89302712004E+02  0.82159495381E+02  0.12288365579E+03  0.41800000000E+01 0. -1.
        -11    1    1    2    0    0  0.35369697669E+01 -0.43944413390E+02  0.23607140565E+02  0.50009186246E+02  0.00000000000E+00 0. -1.
         11    1    1    2    0    0 -0.70443964285E+02 -0.12044603906E+03  0.29245694367E+03  0.32403806000E+03  0.00000000000E+00 0.  1.
</event>
<event>
 7    1  0.2719869E-009  0.9193999E+02  0.7561462E-02  0.1298221E+00
         -1   -1    0    0    0  501 -0.00000000000E+00  0.00000000000E+00  0.21047475029E+03  0.21047475029E+03  0.00000000000E+00 0. -1.
          1   -1    0    0  501    0  0.00000000000E+00 -0.00000000000E+00 -0.72282232654E+02  0.72282232654E+02  0.00000000000E+00 0.  1.
         25    2    1    2    0    0 -0.33708637032E+02  0.16158826100E+02  0.24630379277E+02  0.13285315713E+03  0.12508367561E+03 0.  0.
          5    1    3    3  502    0 -0.24959330465E+02 -0.30872445792E+02  0.60800847752E+02  0.72734390585E+02  0.41800000000E+01 0. -1.
         -5    1    3    3    0  502 -0.87493065667E+01  0.47031271891E+02 -0.36170468476E+02  0.60118766545E+02  0.41800000000E+01 0. -1.
        -11    1    1    2    0    0 -0.27839680425E+02  0.92747847470E+01  0.49215625990E+02  0.57299627223E+02  0.00000000000E+00 0. -1.
         11    1    1    2    0    0  0.61548317457E+02 -0.25433610847E+02  0.64346512367E+02  0.92604198589E+02  0.00000000000E+00 0.  1.
</event>
<event>
 7    1  0.2719869E-009  0.1116544E+03  0.7561462E-02  0.1257537E+00
         -1   -1    0    0    0  501 -0.00000000000E+00  0.00000000000E+00  0.16244259448E+02  0.16244259448E+02  0.00000000000E+00 0.  1.
          1   -1    0    0  501    0  0.00000000000E+00 -0.00000000000E+00 -0.96967757265E+03  0.96967757265E+03  0.00000000000E+00 0. -1.
         25    2    1    2    0    0  0.59805117293E+02 -0.10073701784E+02 -0.57160413398E+03  0.58826561049E+03  0.12508801295E+03 0.  0.
          5    1    3    3  502    0  0.30963778066E+02  0.46507138413E+02 -0.42176092169E+03  0.42546611726E+03  0.41800000000E+01 0.  1.
         -5    1    3    3    0  502  0.28841339227E+02 -0.56580840197E+02 -0.14984321229E+03  0.16279949323E+03  0.41800000000E+01 0.  1.
        -11    1    1    2    0    0 -0.73781369006E+02  0.29705755341E+02 -0.34180475279E+03  0.35093676260E+03  0.00000000000E+00 0. -1.
         11    1    1    2    0    0  0.13976251712E+02 -0.19632053557E+02 -0.40024426437E+02  0.46719459012E+02  0.00000000000E+00 0.  1.
</event>
<event>
 7    1  0.2719869E-009  0.1079904E+03  0.7561462E-02  0.1264337E+00
          1   -1    0    0  501    0  0.00000000000E+00  0.00000000000E+00  0.91088866695E+02  0.91088866695E+02  0.00000000000E+00 0. -1.
         -1   -1    0    0    0  501 -0.00000000000E+00 -0.00000000000E+00 -0.21222773399E+03  0.21222773399E+03  0.00000000000E+00 0.  1.
         25    2    1    2    0    0  0.16330259192E+02 -0.51149585816E+02  0.76837018573E+01  0.13633936384E+03  0.12508567210E+03 0.  0.
          5    1    3    3  502    0 -0.34975657380E+02 -0.71752668013E+02 -0.24729597772E+01  0.79970806588E+02  0.41800000000E+01 0. -1.
         -5    1    3    3    0  502  0.51305916572E+02  0.20603082197E+02  0.10156661634E+02  0.56368557254E+02  0.41800000000E+01 0. -1.
        -11    1    1    2    0    0 -0.37844116322E+02  0.20165596169E+02 -0.12110815597E+03  0.12847573253E+03  0.00000000000E+00 0.  1.
         11    1    1    2    0    0  0.21513857129E+02  0.30983989647E+02 -0.77144131846E+01  0.38501504305E+02  0.00000000000E+00 0. -1.
</event>
<event>
 7    1  0.2719869E-009  0.2044555E+03  0.7561462E-02  0.1146033E+00
          2   -1    0    0  501    0  0.00000000000E+00  0.00000000000E+00  0.69594831456E+03  0.69594831456E+03  0.00000000000E+00 0. -1.
         -2   -1    0    0    0  501 -0.00000000000E+00 -0.00000000000E+00 -0.71864969606E+02  0.71864969606E+02  0.00000000000E+00 0.  1.
         25    2    1    2    0    0 -0.16744472512E+03  0.77274958568E+02  0.22015275920E+03  0.31324720934E+03  0.12508965418E+03 0.  0.
          5    1    3    3  502    0  0.14368899056E+02 -0.12185859375E+02  0.12012924798E+02  0.22731986076E+02  0.41800000000E+01 0. -1.
         -5    1    3    3    0  502 -0.18181362417E+03  0.89460817943E+02  0.20813983440E+03  0.29051522326E+03  0.41800000000E+01 0. -1.
        -11    1    1    2    0    0  0.81053133281E+02 -0.54242894564E+02  0.10844571622E+03  0.14585052414E+03  0.00000000000E+00 0.  1.
         11    1    1    2    0    0  0.86391591835E+02 -0.23032064004E+02  0.29548486953E+03  0.30871555069E+03  0.00000000000E+00 0. -1.
</event>
<event>
 7    1  0.2719869E-009  0.1458662E+03  0.7561462E-02  0.1205647E+00
         -2   -1    0    0    0  501 -0.00000000000E+00  0.00000000000E+00  0.93399400112E+02  0.93399400112E+02  0.00000000000E+00 0.  1.
          2   -1    0    0  501    0  0.00000000000E+00 -0.00000000000E+00 -0.61706763205E+03  0.61706763205E+03  0.00000000000E+00 0. -1.
         25    2    1    2    0    0 -0.20197858664E+02  0.13121416399E+03 -0.51768495834E+03  0.54888464375E+03  0.12510605790E+03 0.  0.
          5    1    3    3  502    0  0.17012019545E+02  0.10197877301E+03 -0.47117249959E+03  0.48240032725E+03  0.41800000000E+01 0.  1.
         -5    1    3    3    0  502 -0.37209878209E+02  0.29235390979E+02 -0.46512458751E+02  0.66484316504E+02  0.41800000000E+01 0.  1.
        -11    1    1    2    0    0 -0.12714896157E+02 -0.71027314196E+02  0.36532374623E+02  0.80877452617E+02  0.00000000000E+00 0.  1.
         11    1    1    2    0    0  0.32912754821E+02 -0.60186849795E+02 -0.42515648213E+02  0.80704935792E+02  0.00000000000E+00 0. -1.
</event>
<event>
 7    1  0.2719869E-009  0.2004375E+03  0.7561462E-02  0.1149370E+00
          2   -1    0    0  501    0  0.00000000000E+00  0.00000000000E+00  0.78763167711E+03  0.78763167711E+03  0.00000000000E+00 0. -1.
         -2   -1    0    0    0  501 -0.00000000000E+00 -0.00000000000E+00 -0.80846809519E+02  0.80846809519E+02  0.00000000000E+00 0.  1.
         25    2    1    2    0    0 -0.37023381850E+02 -0.16733396519E+03  0.10598165333E+03  0.23717631550E+03  0.12509639115E+03 0.  0.
          5    1    3    3  502    0  0.21933344801E+02  0.78661525737E+01 -0.74300981002E+00  0.23684856640E+02  0.41800000000E+01 0. -1.
         -5    1    3    3    0  502 -0.58956726651E+02 -0.17520011776E+03  0.10672466314E+03  0.21349145886E+03  0.41800000000E+01 0. -1.
        -11    1    1    2    0    0  0.65888931353E+02  0.11574912396E+03  0.37746688016E+03  0.40027547587E+03  0.00000000000E+00 0.  1.
         11    1    1    2    0    0 -0.28865549502E+02  0.51584841231E+02  0.22333633410E+03  0.23102669526E+03  0.00000000000E+00 0. -1.
</event>
<event>
 7    1  0.2719869E-009  0.8617945E+02  0.7561462E-02  0.1312377E+00
         -2   -1    0    0    0  501 -0.00000000000E+00  0.00000000000E+00  0.21326459016E+02  0.21326459016E+02  0.00000000000E+00 0.  1.
          2   -1    0    0  501    0  0.00000000000E+00 -0.00000000000E+00 -0.65439612054E+03  0.65439612054E+03  0.00000000000E+00 0. -1.
         25    2    1    2    0    0  0.32021170981E+00  0.19202149745E+01 -0.48393296693E+03  0.49984239315E+03  0.12509001460E+03 0.  0.
          5    1    3    3  502    0  0.37272641855E+02 -0.13640765669E+02 -0.43324086446E+03  0.43507521115E+03  0.41800000000E+01 0.  1.
         -5    1    3    3    0  502 -0.36952430146E+02  0.15560980644E+02 -0.50692102470E+02  0.64767182006E+02  0.41800000000E+01 0.  1.
        -11    1    1    2    0    0 -0.19762537893E+02  0.40725925790E+02 -0.59867487805E+02  0.75055146602E+02  0.00000000000E+00 0. -1.
         11    1    1    2    0    0  0.19442326184E+02 -0.42646140764E+02 -0.89269206793E+02  0.10082503980E+03  0.00000000000E+00 0.  1.
</event>
<event>
 7    1  0.2719869E-009  0.3128946E+03  0.7561462E-02  0.1078967E+00
         -2   -1    0    0    0  501 -0.00000000000E+00  0.00000000000E+00  0.53181172734E+02  0.53181172734E+02  0.00000000000E+00 0.  1.
          2   -1    0    0  501    0  0.00000000000E+00 -0.00000000000E+00 -0.19581106525E+04  0.19581106525E+04  0.00000000000E+00 0. -1.
         25    2    1    2    0    0  0.15789882203E+03 -0.25563387740E+03 -0.83077757790E+03  0.89225529545E+03  0.12508961206E+03 0.  0.
          5    1    3    3  502    0  0.11641579142E+03 -0.25332831688E+03 -0.76615989962E+03  0.81531977580E+03  0.41800000000E+01 0. -1.
         -5    1    3    3    0  502  0.41483030604E+02 -0.23055605163E+01 -0.64617678284E+02  0.76935519652E+02  0.41800000000E+01 0. -1.
        -11    1    1    2    0    0 -0.89562883989E+02  0.94605086198E+02 -0.59111738966E+03  0.60530273491E+03  0.00000000000E+00 0.  1.
         11    1    1    2    0    0 -0.68335938036E+02  0.16102879120E+03 -0.48303451224E+03  0.51373379491E+03  0.00000000000E+00 0. -1.
</event>
<event>
 7    1  0.2719869E-009  0.2362108E+03  0.7561462E-02  0.1122343E+00
         -1   -1    0    0    0  501 -0.00000000000E+00  0.00000000000E+00  0.79077864405E+02  0.79077864405E+02  0.00000000000E+00 0.  1.
          1   -1    0    0  501    0  0.00000000000E+00 -0.00000000000E+00 -0.86248233941E+03  0.86248233941E+03  0.00000000000E+00 0. -1.
         25    2    1    2    0    0  0.16434899714E+03 -0.13048511358E+03 -0.20240960131E+03  0.31725550808E+03  0.12507778771E+03 0.  0.
          5    1    3    3  502    0  0.15738861453E+03 -0.15350074574E+03 -0.18267193503E+03  0.28586738739E+03  0.41800000000E+01 0.  1.
         -5    1    3    3    0  502  0.69603826065E+01  0.23015632164E+02 -0.19737666279E+02  0.31388120684E+02  0.41800000000E+01 0.  1.
        -11    1    1    2    0    0 -0.73446462242E+02  0.11419699220E+03 -0.32869575735E+03  0.35563497683E+03  0.00000000000E+00 0.  1.
         11    1    1    2    0    0 -0.90902534896E+02  0.16288121376E+02 -0.25229911635E+03  0.26866971891E+03  0.00000000000E+00 0. -1.
</event>
<event>
 7    1  0.2719869E-009  0.1710530E+03  0.7561462E-02  0.1176754E+00
          1   -1    0    0  501    0  0.00000000000E+00  0.00000000000E+00  0.12271903625E+04  0.12271903625E+04  0.00000000000E+00 0. -1.
         -1   -1    0    0    0  501 -0.00000000000E+00 -0.00000000000E+00 -0.36820207120E+02  0.36820207120E+02  0.00000000000E+00 0.  1.
         25    2    1    2    0    0  0.13532703367E+03 -0.17233098309E+02  0.97492904922E+03  0.99234340095E+03  0.12509351971E+03 0.  0.
          5    1    3    3  502    0  0.11940090036E+03  0.33565631336E+02  0.53604845694E+03  0.55022599648E+03  0.41800000000E+01 0.  1.
         -5    1    3    3    0  502  0.15926133316E+02 -0.50798729645E+02  0.43888059228E+03  0.44211740447E+03  0.41800000000E+01 0.  1.
        -11    1    1    2    0    0 -0.12767627102E+03  0.45331087342E+02  0.18734725943E+03  0.23120366190E+03  0.00000000000E+00 0.  1.
         11    1    1    2    0    0 -0.76507626517E+01 -0.28097989033E+02  0.28093846766E+02  0.40463506805E+02  0.00000000000E+00 0. -1.
</event>
<event>
 7    1  0.2719869E-009  0.1126602E+03  0.7561462E-02  0.1255721E+00
         -2   -1    0    0    0  501 -0.00000000000E+00  0.00000000000E+00  0.17870215146E+03  0.17870215146E+03  0.00000000000E+00 0.  1.
          2   -1    0    0  501    0  0.00000000000E+00 -0.00000000000E+00 -0.80563008219E+02  0.80563008219E+02  0.00000000000E+00 0. -1.
         25    2    1    2    0    0  0.24001280278E+02 -0.44739421395E+02  0.51740710854E+02  0.14457758030E+03  0.12509155960E+03 0.  0.
          5    1    3    3  502    0  0.48918506134E+02  0.28996177516E+02  0.23559202918E+02  0.61695275306E+02  0.41800000000E+01 0. -1.
         -5    1    3    3    0  502 -0.24917225855E+02 -0.73735598912E+02  0.28181507937E+02  0.82882304992E+02  0.41800000000E+01 0. -1.
        -11    1    1    2    0    0 -0.48149708825E+02  0.45428975301E+02  0.57885813858E+02  0.87937214550E+02  0.00000000000E+00 0.  1.
         11    1    1    2    0    0  0.24148428547E+02 -0.68955390523E+00 -0.11487381467E+02  0.26750364835E+02  0.00000000000E+00 0. -1.
</event>
<event>
 7    1  0.2719869E-009  0.1063706E+03  0.7561462E-02  0.1267442E+00
         -1   -1    0    0    0  501 -0.00000000000E+00  0.00000000000E+00  0.11969606016E+03  0.11969606016E+03  0.00000000000E+00 0.  1.
          1   -1    0    0  501    0  0.00000000000E+00 -0.00000000000E+00 -0.13882974369E+03  0.13882974369E+03  0.00000000000E+00 0. -1.
         25    2    1    2    0    0 -0.21995630298E+02  0.38424939532E+02  0.31258917100E+02  0.13633274679E+03  0.12509681938E+03 0.  0.
          5    1    3    3  502    0 -0.15548794853E+02  0.68532512397E+02 -0.22784217704E+02  0.73993670359E+02  0.41800000000E+01 0. -1.
         -5    1    3    3    0  502 -0.64468354456E+01 -0.30107572865E+02  0.54043134804E+02  0.62339076433E+02  0.41800000000E+01 0. -1.
        -11    1    1    2    0    0  0.43358996617E+02  0.20960150084E+02 -0.23588395251E+02  0.53625953322E+02  0.00000000000E+00 0. -1.
         11    1    1    2    0    0 -0.21363366318E+02 -0.59385089616E+02 -0.26804205374E+02  0.68567103737E+02  0.00000000000E+00 0.  1.
</event>
<event>
 7    1  0.2719869E-009  0.1249084E+03  0.7561462E-02  0.1235212E+00
          2   -1    0    0  501    0  0.00000000000E+00  0.00000000000E+00  0.11167335526E+04  0.11167335526E+04  0.00000000000E+00 0. -1.
         -2   -1    0    0    0  501 -0.00000000000E+00 -0.00000000000E+00 -0.17485065002E+02  0.17485065002E+02  0.00000000000E+00 0.  1.
         25    2    1    2    0    0  0.28485264666E+01  0.77568620238E+02  0.76367174072E+03  0.77773355025E+03  0.12509973083E+03 0.  0.
          5    1    3    3  502    0 -0.55605828968E+02  0.67827945424E+02  0.45120156728E+03  0.45966614527E+03  0.41800000000E+01 0. -1.
         -5    1    3    3    0  502  0.58454355435E+02  0.97406748143E+01  0.31247017344E+03  0.31806740497E+03  0.41800000000E+01 0. -1.
        -11    1    1    2    0    0 -0.10147867804E+01  0.12486778775E+02  0.44009000565E+01  0.13278454642E+02  0.00000000000E+00 0.  1.
         11    1    1    2    0    0 -0.18337396862E+01 -0.90055399013E+02  0.33117584683E+03  0.34320661272E+03  0.00000000000E+00 0. -1.
</event>
<event>
 7    1  0.2719869E-009  0.9004186E+02  0.7561462E-02  0.1302750E+00
          2   -1    0    0  501    0  0.00000000000E+00  0.00000000000E+00  0.27010558828E+02  0.27010558828E+02  0.00000000000E+00 0. -1.
         -2   -1    0    0    0  501 -0.00000000000E+00 -0.00000000000E+00 -0.46970436764E+03  0.46970436764E+03  0.00000000000E+00 0.  1.
         25    2    1    2    0    0 -0.11823257069E+02  0.18862097208E+02 -0.30813518088E+03  0.33330408706E+03  0.12509499045E+03 0.  0.
          5    1    3    3  502    0 -0.47023948629E+02  0.28337852388E+02 -0.28422341646E+03  0.28950770022E+03  0.41800000000E+01 0. -1.
         -5    1    3    3    0  502  0.35200691560E+02 -0.94757551792E+01 -0.23911764419E+02  0.43796386839E+02  0.41800000000E+01 0. -1.
        -11    1    1    2    0    0  0.25633596017E+02  0.28888785629E+02 -0.84283133137E+02  0.92710785302E+02  0.00000000000E+00 0.  1.
         11    1    1    2    0    0 -0.13810338948E+02 -0.47750882837E+02 -0.50275494790E+02  0.70700054101E+02  0.00000000000E+00 0. -1.
</event>
<event>
 7    1  0.2719869E-009  0.9724249E+02  0.7561462E-02  0.1286204E+00
          1   -1    0    0  501    0  0.00000000000E+00  0.00000000000E+00  0.28828791842E+03  0.28828791842E+03  0.00000000000E+00 0. -1.
         -1   -1    0    0    0  501 -0.00000000000E+00 -0.00000000000E+00 -0.42565504620E+02  0.42565504620E+02  0.00000000000E+00 0.  1.
         25    2    1    2    0    0 -0.50095393672E+01 -0.63982552519E+01  0.10761500989E+03  0.16520725315E+03  0.12508562261E+03 0.  0.
          5    1    3    3  502    0 -0.48565517465E+02 -0.28565829148E+02  0.12020983860E+02  0.57763245533E+02  0.41800000000E+01 0.  1.
         -5    1    3    3    0  502  0.43555978098E+02  0.22167573896E+02  0.95594026025E+02  0.10744400761E+03  0.41800000000E+01 0.  1.
        -11    1    1    2    0    0 -0.38070604999E+02  0.20962144328E+02  0.48252325979E+02  0.64938966901E+02  0.00000000000E+00 0.  1.
         11    1    1    2    0    0  0.43080144366E+02 -0.14563889076E+02  0.89855077939E+02  0.10070720300E+03  0.00000000000E+00 0. -1.
</event>
<event>
 7    1  0.2719869E-009  0.8063458E+02  0.7561462E-02  0.1327260E+00
         -3   -1    0    0    0  501 -0.00000000000E+00  0.00000000000E+00  0.16050012079E+03  0.16050012079E+03  0.00000000000E+00 0.  1.
          3   -1    0    0  501    0  0.00000000000E+00 -0.00000000000E+00 -0.99084406142E+02  0.99084406142E+02  0.00000000000E+00 0. -1.
         25    2    1    2    0    0 -0.13722618638E+02  0.51927493847E+01  0.97644705428E+02  0.15936558571E+03  0.12509047326E+03 0.  0.
          5    1    3    3  502    0  0.23067142284E+02 -0.13105298286E+02  0.11235701409E+03  0.11552234811E+03  0.41800000000E+01 0.  1.
         -5    1    3    3    0  502 -0.36789760922E+02  0.18298047671E+02 -0.14712308664E+02  0.43843237602E+02  0.41800000000E+01 0.  1.
        -11    1    1    2    0    0  0.42613964453E+02  0.26534658213E+02 -0.15323895780E+02  0.52486758661E+02  0.00000000000E+00 0.  1.
         11    1    1    2    0    0 -0.28891345814E+02 -0.31727407598E+02 -0.20905094996E+02  0.47732182567E+02  0.00000000000E+00 0. -1.
</event>
<event>
 7    1  0.2719869E-009  0.6723241E+02  0.7561462E-02  0.1369766E+00
         -1   -1    0    0    0  501 -0.00000000000E+00  0.00000000000E+00  0.11006959404E+03  0.11006959404E+03  0.00000000000E+00 0.  1.
          1   -1    0    0  501    0  0.00000000000E+00 -0.00000000000E+00 -0.11971749793E+03  0.11971749793E+03  0.00000000000E+00 0. -1.
         25    2    1    2    0    0  0.18430474336E+02  0.27555602147E+02  0.12604362537E+02  0.13001963572E+03  0.12508893686E+03 0.  0.
          5    1    3    3  502    0  0.14990563376E+00  0.25068840446E+02 -0.54588389319E+02  0.60214897504E+02  0.41800000000E+01 0. -1.
         -5    1    3    3    0  502  0.18280568702E+02  0.24867617012E+01  0.67192751855E+02  0.69804738218E+02  0.41800000000E+01 0. -1.
        -11    1    1    2    0    0  0.33692001592E+02 -0.10455318773E+02 -0.27403666193E+02  0.44670186733E+02  0.00000000000E+00 0. -1.
         11    1    1    2    0    0 -0.52122475928E+02 -0.17100283374E+02  0.51513997600E+01  0.55097269513E+02  0.00000000000E+00 0.  1.
</event>
<event>
 7    1  0.2719869E-009  0.8819102E+02  0.7561462E-02  0.1307292E+00
          1   -1    0    0  501    0  0.00000000000E+00  0.00000000000E+00  0.79093251811E+02  0.79093251811E+02  0.00000000000E+00 0. -1.
         -1   -1    0    0    0  501 -0.00000000000E+00 -0.00000000000E+00 -0.16613615985E+03  0.16613615985E+03  0.00000000000E+00 0.  1.
         25    2    1    2    0    0 -0.16963150818E+02  0.38015709814E+02 -0.49086310463E+02  0.14069513567E+03  0.12511080148E+03 0.  0.
          5    1    3    3  502    0 -0.46104097922E+02  0.63198243304E+02 -0.22572508825E+00  0.78339831208E+02  0.41800000000E+01 0.  1.
         -5    1    3    3    0  502  0.29140947104E+02 -0.25182533489E+02 -0.48860585374E+02  0.62355304459E+02  0.41800000000E+01 0.  1.
        -11    1    1    2    0    0  0.29514525510E+02 -0.36060942989E+02  0.15871176900E+02  0.49227970521E+02  0.00000000000E+00 0. -1.
         11    1    1    2    0    0 -0.12551374692E+02 -0.19547668247E+01 -0.53827774477E+02  0.55306305474E+02  0.00000000000E+00 0.  1.
</event>
<event>
 7    1  0.2719869E-009  0.1050872E+03  0.7561462E-02  0.1269948E+00
          1   -1    0    0  501    0  0.00000000000E+00  0.00000000000E+00  0.13965784321E+03  0.13965784321E+03  0.00000000000E+00 0. -1.
         -1   -1    0    0    0  501 -0.00000000000E+00 -0.00000000000E+00 -0.10810327206E+03  0.10810327206E+03  0.00000000000E+00 0.  1.
         25    2    1    2    0    0 -0.13851354628E+02  0.36011135903E+01  0.74987834886E+02  0.14653625974E+03  0.12507946271E+03 0.  0.
          5    1    3    3  502    0 -0.73345981618E+01 -0.58840411053E+02  0.53716611765E+02  0.80118269343E+02  0.41800000000E+01 0.  1.
         -5    1    3    3    0  502 -0.65167564662E+01  0.62441524643E+02  0.21271223122E+02  0.66417990392E+02  0.41800000000E+01 0.  1.
        -11    1    1    2    0    0 -0.24890961027E+02 -0.31443165069E+02 -0.59273636422E+01  0.40538453475E+02  0.00000000000E+00 0. -1.
         11    1    1    2    0    0  0.38742315655E+02  0.27842051478E+02 -0.37505900091E+02  0.60686402056E+02  0.00000000000E+00 0.  1.
</event>
<event>
 7    1  0.4262556E-009  0.1122175E+03  0.7561462E-02  0.1256518E+00
         -1   -1    0    0    0  501 -0.00000000000E+00  0.00000000000E+00  0.67443546507E+02  0.67443546507E+02  0.00000000000E+00 0.  1.
          1   -1    0    0  501    0  0.00000000000E+00 -0.00000000000E+00 -0.25788560114E+03  0.25788560114E+03  0.00000000000E+00 0. -1.
         25    2    1    2    0    0  0.57867897924E+02 -0.29093789927E+02 -0.15122169671E+03  0.20664481955E+03  0.12505573826E+03 0.  0.
          5    1    3    3  502    0  0.89368239013E+02  0.42484919873E+01 -0.12458075512E+03  0.15343587838E+03  0.41800000000E+01 0.  1.
         -5    1    3    3    0  502 -0.31500341089E+02 -0.33342281914E+02 -0.26640941589E+02  0.53208941172E+02  0.41800000000E+01 0.  1.
        -11    1    1    2    0    0 -0.99513390787E+01  0.38682856728E+02 -0.54423052745E+02  0.67507490134E+02  0.00000000000E+00 0.  1.
         11    1    1    2    0    0 -0.47916558845E+02 -0.95890668009E+01  0.15202694821E+02  0.51176837959E+02  0.00000000000E+00 0. -1.
</event>
<event>
 7    1  0.2719869E-009  0.9952139E+02  0.7561462E-02  0.1281306E+00
         -2   -1    0    0    0  501 -0.00000000000E+00  0.00000000000E+00  0.74568552015E+02  0.74568552015E+02  0.00000000000E+00 0.  1.
          2   -1    0    0  501    0  0.00000000000E+00 -0.00000000000E+00 -0.19297249628E+03  0.19297249628E+03  0.00000000000E+00 0. -1.
         25    2    1    2    0    0  0.51463291918E+02  0.38097645384E+01 -0.75536620516E+02  0.15496604712E+03  0.12508281257E+03 0.  0.
          5    1    3    3  502    0  0.42958703152E+02 -0.54794246389E+02 -0.63638382510E+02  0.94420208337E+02  0.41800000000E+01 0.  1.
         -5    1    3    3    0  502  0.85045887663E+01  0.58604010927E+02 -0.11898238005E+02  0.60545838787E+02  0.41800000000E+01 0.  1.
        -11    1    1    2    0    0 -0.32270421346E+02  0.21042551392E+02 -0.64017558297E+02  0.74715572896E+02  0.00000000000E+00 0. -1.
         11    1    1    2    0    0 -0.19192870573E+02 -0.24852315931E+02  0.21150234548E+02  0.37859428276E+02  0.00000000000E+00 0.  1.
</event>
<event>
 7    1  0.2719869E-009  0.1349515E+03  0.7561462E-02  0.1220288E+00
         -2   -1    0    0    0  501 -0.00000000000E+00  0.00000000000E+00  0.25003418321E+02  0.25003418321E+02  0.00000000000E+00 0.  1.
          2   -1    0    0  501    0  0.00000000000E+00 -0.00000000000E+00 -0.97341096239E+03  0.97341096239E+03  0.00000000000E+00 0. -1.
         25    2    1    2    0    0 -0.72298530673E+02 -0.86108632416E+02 -0.47291449681E+03  0.50193220385E+03  0.12508413909E+03 0.  0.
          5    1    3    3  502    0 -0.68688825379E+02 -0.33592752340E+02 -0.42090615434E+03  0.42781548698E+03  0.41800000000E+01 0.  1.
         -5    1    3    3    0  502 -0.36097052938E+01 -0.52515880075E+02 -0.52008342474E+02  0.74116716868E+02  0.41800000000E+01 0.  1.
        -11    1    1    2    0    0  0.47887774652E+02 -0.31426335262E+01 -0.20707426949E+03  0.21256262182E+03  0.00000000000E+00 0.  1.
         11    1    1    2    0    0  0.24410756022E+02  0.89251265942E+02 -0.26841877776E+03  0.28391955504E+03  0.00000000000E+00 0. -1.
</event>
<event>
 7    1  0.2719869E-009  0.1047177E+03  0.7561462E-02  0.1270677E+00
         -3   -1    0    0    0  501 -0.00000000000E+00  0.00000000000E+00  0.40855513642E+03  0.40855513642E+03  0.00000000000E+00 0.  1.
          3   -1    0    0  501    0  0.00000000000E+00 -0.00000000000E+00 -0.47190674203E+02  0.47190674203E+02  0.00000000000E+00 0. -1.
         25    2    1    2    0    0 -0.53141124537E+02 -0.17724640534E+02  0.31512851699E+03  0.34364153184E+03  0.12508148619E+03 0.  0.
          5    1    3    3  502    0 -0.35299997075E+02  0.44340358097E+02  0.70261783673E+02  0.90367847128E+02  0.41800000000E+01 0.  1.
         -5    1    3    3    0  502 -0.17841127462E+02 -0.62064998631E+02  0.24486673332E+03  0.25327368471E+03  0.41800000000E+01 0.  1.
        -11    1    1    2    0    0 -0.14323108454E+02  0.14453768472E+02 -0.11389414469E+02  0.23319125644E+02  0.00000000000E+00 0. -1.
         11    1    1    2    0    0  0.67464232991E+02  0.32708720618E+01  0.57625359695E+02  0.88785153135E+02  0.00000000000E+00 0.  1.
</event>
<event>
 7    1  0.2719869E-009  0.2380819E+03  0.7561462E-02  0.1121077E+00
          1   -1    0    0  501    0  0.00000000000E+00  0.00000000000E+00  0.24553441504E+03  0.24553441504E+03  0.00000000000E+00 0. -1.
         -1   -1    0    0    0  501 -0.00000000000E+00 -0.00000000000E+00 -0.24046903501E+03  0.24046903501E+03  0.00000000000E+00 0.  1.
         25    2    1    2    0    0  0.29559932190E+01 -0.21747812152E+03  0.21328590173E+02  0.25180816533E+03  0.12508785765E+03 0.  0.
          5    1    3    3  502    0 -0.28639366320E+02 -0.21696588053E+03  0.21418670000E+02  0.21993325906E+03  0.41800000000E+01 0.  1.
         -5    1    3    3    0  502  0.31595359539E+02 -0.51224099266E+00 -0.90079827450E-01  0.31874906268E+02  0.41800000000E+01 0.  1.
        -11    1    1    2    0    0 -0.13554797304E+02  0.21372974117E+03  0.32150123951E+00  0.21415937559E+03  0.00000000000E+00 0. -1.
         11    1    1    2    0    0  0.10598804085E+02  0.37483803540E+01 -0.16584711382E+02  0.20035909136E+02  0.00000000000E+00 0.  1.
</event>
<event>
 7    1  0.2719869E-009  0.1988487E+03  0.7561462E-02  0.1150714E+00
         -1   -1    0    0    0  501 -0.00000000000E+00  0.00000000000E+00  0.26321065653E+03  0.26321065653E+03  0.00000000000E+00 0.  1.
          1   -1    0    0  501    0  0.00000000000E+00 -0.00000000000E+00 -0.19205357309E+03  0.19205357309E+03  0.00000000000E+00 0. -1.
         25    2    1    2    0    0 -0.10021131393E+03 -0.16141874613E+03 -0.12603708228E+02  0.22782604439E+03  0.12509010352E+03 0.  0.
          5    1    3    3  502    0 -0.88983362995E+02 -0.15411806788E+03 -0.52453859184E+02  0.18557827858E+03  0.41800000000E+01 0.  1.
         -5    1    3    3    0  502 -0.11227950938E+02 -0.73006782546E+01  0.39850150956E+02  0.42247765817E+02  0.41800000000E+01 0.  1.
        -11    1    1    2    0    0  0.95330340852E+02  0.81016205634E+02  0.76312868841E+02  0.14654403234E+03  0.00000000000E+00 0.  1.
         11    1    1    2    0    0  0.48809730809E+01  0.80402540497E+02  0.74479228283E+01  0.80894152885E+02  0.00000000000E+00 0. -1.
</event>
<event>
 7    1  0.2719869E-009  0.1024195E+03  0.7561462E-02  0.1275289E+00
         -2   -1    0    0    0  501 -0.00000000000E+00  0.00000000000E+00  0.22635281396E+02  0.22635281396E+02  0.00000000000E+00 0. -1.
          2   -1    0    0  501    0  0.00000000000E+00 -0.00000000000E+00 -0.64392047731E+03  0.64392047731E+03  0.00000000000E+00 0.  1.
         25    2    1    2    0    0 -0.14307951723E+02  0.59980358720E+01 -0.50945322673E+03  0.52481794398E+03  0.12510231886E+03 0.  0.
          5    1    3    3  502    0  0.18548219143E+02 -0.49569622066E+02 -0.32596495095E+03  0.33026020880E+03  0.41800000000E+01 0.  1.
         -5    1    3    3    0  502 -0.32856170867E+02  0.55567657938E+02 -0.18348827577E+03  0.19455773518E+03  0.41800000000E+01 0.  1.
        -11    1    1    2    0    0  0.26596784391E+02 -0.41610868618E+02 -0.65064386263E+02  0.81683705149E+02  0.00000000000E+00 0. -1.
         11    1    1    2    0    0 -0.12288832668E+02  0.35612832746E+02 -0.46767582923E+02  0.60054109576E+02  0.00000000000E+00 0.  1.
</event>
<event>
 7    1  0.2719869E-009  0.1051051E+03  0.7561462E-02  0.1269913E+00
          1   -1    0    0  501    0  0.00000000000E+00  0.00000000000E+00  0.35662057552E+03  0.35662057552E+03  0.00000000000E+00 0. -1.
         -1   -1    0    0    0  501 -0.00000000000E+00 -0.00000000000E+00 -0.37010599866E+02  0.37010599866E+02  0.00000000000E+00 0.  1.
         25    2    1    2    0    0  0.70733211458E+01 -0.35909336884E+02  0.21838141447E+03  0.25431455166E+03  0.12508371857E+03 0.  0.
          5    1    3    3  502    0  0.56776362773E+02 -0.31688536481E+02  0.61332200151E+02  0.89480891197E+02  0.41800000000E+01 0.  1.
         -5    1    3    3    0  502 -0.49703041627E+02 -0.42208004030E+01  0.15704921432E+03  0.16483366046E+03  0.41800000000E+01 0.  1.
        -11    1    1    2    0    0  0.18137468064E+02 -0.23952180545E+02  0.40231566944E+02  0.50212086985E+02  0.00000000000E+00 0.  1.
         11    1    1    2    0    0 -0.25210789209E+02  0.59861517429E+02  0.60996994233E+02  0.89104536736E+02  0.00000000000E+00 0. -1.
</event>
<event>
 7    1  0.2719869E-009  0.1197494E+03  0.7561462E-02  0.1243511E+00
         -4   -1    0    0    0  501 -0.00000000000E+00  0.00000000000E+00  0.14391499773E+03  0.14391499773E+03  0.00000000000E+00 0.  1.
          4   -1    0    0  501    0  0.00000000000E+00 -0.00000000000E+00 -0.13475447418E+03  0.13475447418E+03  0.00000000000E+00 0. -1.
         25    2    1    2    0    0 -0.36095860868E+02 -0.51291311252E+02  0.63779337424E+02  0.15378258417E+03  0.12509024554E+03 0.  0.
          5    1    3    3  502    0  0.15247363314E+02  0.28310522936E+02  0.47601597576E+02  0.57596460731E+02  0.41800000000E+01 0.  1.
         -5    1    3    3    0  502 -0.51343224182E+02 -0.79601834187E+02  0.16177739848E+02  0.96186123438E+02  0.41800000000E+01 0.  1.
        -11    1    1    2    0    0 -0.28177523195E+02  0.36837232772E+02 -0.24458172003E+02  0.52432401331E+02  0.00000000000E+00 0.  1.
         11    1    1    2    0    0  0.64273384063E+02  0.14454078480E+02 -0.30160641869E+02  0.72454486414E+02  0.00000000000E+00 0. -1.
</event>
<event>
 7    1  0.2719869E-009  0.1148273E+03  0.7561462E-02  0.1251883E+00
          2   -1    0    0  501    0  0.00000000000E+00  0.00000000000E+00  0.96412470986E+03  0.96412470986E+03  0.00000000000E+00 0. -1.
         -2   -1    0    0    0  501 -0.00000000000E+00 -0.00000000000E+00 -0.14258489489E+02  0.14258489489E+02  0.00000000000E+00 0.  1.
         25    2    1    2    0    0 -0.28482834216E+02  0.26784284878E+02  0.45043518174E+03  0.46911469727E+03  0.12509227188E+03 0.  0.
          5    1    3    3  502    0  0.49302538300E+02  0.53622237349E+01  0.15219856043E+03  0.16012922258E+03  0.41800000000E+01 0. -1.
         -5    1    3    3    0  502 -0.77785372516E+02  0.21422061143E+02  0.29823662131E+03  0.30898547469E+03  0.41800000000E+01 0. -1.
        -11    1    1    2    0    0  0.50372244908E+02 -0.47297348407E+02  0.32335149255E+03  0.33065176540E+03  0.00000000000E+00 0.  1.
         11    1    1    2    0    0 -0.21889410692E+02  0.20513063529E+02  0.17607954608E+03  0.17861673668E+03  0.00000000000E+00 0. -1.
</event>
<event>
 7    1  0.2719869E-009  0.1115984E+03  0.7561462E-02  0.1257638E+00
          3   -1    0    0  501    0  0.00000000000E+00  0.00000000000E+00  0.14069504260E+03  0.14069504260E+03  0.00000000000E+00 0. -1.
         -3   -1    0    0    0  501 -0.00000000000E+00 -0.00000000000E+00 -0.11093778916E+03  0.11093778916E+03  0.00000000000E+00 0.  1.
         25    2    1    2    0    0 -0.40717211387E+02  0.16712134526E+02 -0.28633359157E+02  0.13565884739E+03  0.12508503858E+03 0.  0.
          5    1    3    3  502    0 -0.34175952985E+02 -0.51931182082E+02 -0.44485405728E+01  0.62466833985E+02  0.41800000000E+01 0. -1.
         -5    1    3    3    0  502 -0.65412584013E+01  0.68643316609E+02 -0.24184818584E+02  0.73192013406E+02  0.41800000000E+01 0. -1.
        -11    1    1    2    0    0 -0.18642505766E+02 -0.25722723088E+02  0.43937678373E+02  0.54219194803E+02  0.00000000000E+00 0. -1.
         11    1    1    2    0    0  0.59359717152E+02  0.90105885621E+01  0.14452934221E+02  0.61754789565E+02  0.00000000000E+00 0.  1.
</event>
<event>
 7    1  0.2719869E-009  0.7997460E+02  0.7561462E-02  0.1329124E+00
         -1   -1    0    0    0  501 -0.00000000000E+00  0.00000000000E+00  0.31509218135E+02  0.31509218135E+02  0.00000000000E+00 0.  1.
          1   -1    0    0  501    0  0.00000000000E+00 -0.00000000000E+00 -0.43466406543E+03  0.43466406543E+03  0.00000000000E+00 0. -1.
         25    2    1    2    0    0  0.44117553011E+02  0.10133270106E+02 -0.23806923238E+03  0.27271532757E+03  0.12509056254E+03 0.  0.
          5    1    3    3  502    0  0.24970486374E+02 -0.21815948038E+02 -0.23242037672E+03  0.23481091264E+03  0.41800000000E+01 0. -1.
         -5    1    3    3    0  502  0.19147066636E+02  0.31949218143E+02 -0.56488556610E+01  0.37904414928E+02  0.41800000000E+01 0. -1.
        -11    1    1    2    0    0 -0.33267795235E+02 -0.43039919557E+02 -0.52268536734E+02  0.75439915215E+02  0.00000000000E+00 0.  1.
         11    1    1    2    0    0 -0.10849757775E+02  0.32906649451E+02 -0.11281707818E+03  0.11801804079E+03  0.00000000000E+00 0. -1.
</event>
<event>
 7    1  0.2719869E-009  0.8504373E+02  0.7561462E-02  0.1315318E+00
         -2   -1    0    0    0  501 -0.00000000000E+00  0.00000000000E+00  0.28744705743E+02  0.28744705743E+02  0.00000000000E+00 0.  1.
          2   -1    0    0  501    0  0.00000000000E+00 -0.00000000000E+00 -0.44846224313E+03  0.44846224313E+03  0.00000000000E+00 0. -1.
         25    2    1    2    0    0  0.22190929889E+02  0.11786850732E+02 -0.28958520697E+03  0.31644550871E+03  0.12508717228E+03 0.  0.
          5    1    3    3  502    0  0.65697879269E+02 -0.15166125612E+02 -0.21883354967E+03  0.22902361792E+03  0.41800000000E+01 0. -1.
         -5    1    3    3    0  502 -0.43506949380E+02  0.26952976344E+02 -0.70751657307E+02  0.87421890793E+02  0.41800000000E+01 0. -1.
        -11    1    1    2    0    0 -0.20660816670E+02  0.14251553499E+02 -0.13223269150E+03  0.13459368791E+03  0.00000000000E+00 0. -1.
         11    1    1    2    0    0 -0.15301132191E+01 -0.26038404231E+02  0.21003610855E+01  0.26167752254E+02  0.00000000000E+00 0.  1.
</event>
<event>
 7    1  0.2719869E-009  0.1355291E+03  0.7561462E-02  0.1219475E+00
          1   -1    0    0  501    0  0.00000000000E+00  0.00000000000E+00  0.19311713026E+03  0.19311713026E+03  0.00000000000E+00 0. -1.
         -1   -1    0    0    0  501 -0.00000000000E+00 -0.00000000000E+00 -0.10744226878E+03  0.10744226878E+03  0.00000000000E+00 0.  1.
         25    2    1    2    0    0 -0.14434824450E+02 -0.94244533495E+02  0.39747154861E+02  0.16222903001E+03  0.12509206852E+03 0.  0.
          5    1    3    3  502    0 -0.44882612225E+02 -0.14999531071E+01  0.45875382326E+02  0.64332898606E+02  0.41800000000E+01 0. -1.
         -5    1    3    3    0  502  0.30447787774E+02 -0.92744580388E+02 -0.61282274655E+01  0.97896131402E+02  0.41800000000E+01 0. -1.
        -11    1    1    2    0    0  0.25484474922E+02  0.10779574187E+03  0.30194776532E+02  0.11480899336E+03  0.00000000000E+00 0. -1.
         11    1    1    2    0    0 -0.11049650471E+02 -0.13551208375E+02  0.15732930088E+02  0.23521375664E+02  0.00000000000E+00 0.  1.
</event>
<event>
 7    1  0.2719869E-009  0.9406902E+02  0.7561462E-02  0.1293287E+00
         -4   -1    0    0    0  501 -0.00000000000E+00  0.00000000000E+00  0.23547916407E+03  0.23547916407E+03  0.00000000000E+00 0.  1.
          4   -1    0    0  501    0  0.00000000000E+00 -0.00000000000E+00 -0.84438739047E+02  0.84438739047E+02  0.00000000000E+00 0. -1.
         25    2    1    2    0    0 -0.56594551429E+02  0.55223650293E+02  0.10563614256E+03  0.18181695081E+03  0.12508322902E+03 0.  0.
          5    1    3    3  502    0 -0.21765111765E+02  0.74396034392E+01  0.11881378774E+03  0.12109193345E+03  0.41800000000E+01 0. -1.
         -5    1    3    3    0  502 -0.34829439664E+02  0.47784046854E+02 -0.13177645176E+02  0.60725017361E+02  0.41800000000E+01 0. -1.
        -11    1    1    2    0    0 -0.16432452799E+02 -0.14219084223E+02  0.49696260373E+02  0.54239525774E+02  0.00000000000E+00 0.  1.
         11    1    1    2    0    0  0.73027004228E+02 -0.41004566070E+02 -0.42919779172E+01  0.83861426530E+02  0.00000000000E+00 0. -1.
</event>
<event>
 7    1  0.2719869E-009  0.9378023E+02  0.7561462E-02  0.1293947E+00
         -1   -1    0    0    0  501 -0.00000000000E+00  0.00000000000E+00  0.95674186932E+02  0.95674186932E+02  0.00000000000E+00 0.  1.
          1   -1    0    0  501    0  0.00000000000E+00 -0.00000000000E+00 -0.14508151418E+03  0.14508151418E+03  0.00000000000E+00 0. -1.
         25    2    1    2    0    0 -0.26250078479E+02 -0.43961246058E+02 -0.33738353245E+02  0.13930912661E+03  0.12508836278E+03 0.  0.
          5    1    3    3  502    0 -0.45188237553E+02 -0.50655540715E+02 -0.70029794714E+02  0.97619696608E+02  0.41800000000E+01 0.  1.
         -5    1    3    3    0  502  0.18938159074E+02  0.66942946566E+01  0.36291441469E+02  0.41689430003E+02  0.41800000000E+01 0.  1.
        -11    1    1    2    0    0  0.44550873232E+02 -0.68062340194E+01  0.63464854445E+00  0.45072252063E+02  0.00000000000E+00 0.  1.
         11    1    1    2    0    0 -0.18300794753E+02  0.50767480078E+02 -0.16303622545E+02  0.56374322436E+02  0.00000000000E+00 0. -1.
</event>
<event>
 7    1  0.2719869E-009  0.1513573E+03  0.7561462E-02  0.1198815E+00
         -4   -1    0    0    0  501 -0.00000000000E+00  0.00000000000E+00  0.55169786402E+03  0.55169786402E+03  0.00000000000E+00 0.  1.
          4   -1    0    0  501    0  0.00000000000E+00 -0.00000000000E+00 -0.43697831698E+02  0.43697831698E+02  0.00000000000E+00 0. -1.
         25    2    1    2    0    0 -0.10518620285E+03  0.26744383171E+02  0.26191409764E+03  0.30988074029E+03  0.12509068455E+03 0.  0.
          5    1    3    3  502    0 -0.13256507463E+03  0.32631180404E+02  0.20535839610E+03  0.24663299900E+03  0.41800000000E+01 0.  1.
         -5    1    3    3    0  502  0.27378871785E+02 -0.58867972326E+01  0.56555701539E+02  0.63247741291E+02  0.41800000000E+01 0.  1.
        -11    1    1    2    0    0  0.18050394041E+02  0.29153948547E+02  0.28616260480E+02  0.44661614445E+02  0.00000000000E+00 0. -1.
         11    1    1    2    0    0  0.87135808804E+02 -0.55898331718E+02  0.21746967420E+03  0.24085334098E+03  0.00000000000E+00 0.  1.
</event>
<event>
 7    1  0.2719869E-009  0.9251162E+02  0.7561462E-02  0.1296881E+00
         -1   -1    0    0    0  501 -0.00000000000E+00  0.00000000000E+00  0.17295324711E+03  0.17295324711E+03  0.00000000000E+00 0.  1.
          1   -1    0    0  501    0  0.00000000000E+00 -0.00000000000E+00 -0.10295220462E+03  0.10295220462E+03  0.00000000000E+00 0. -1.
         25    2    1    2    0    0 -0.21502578770E+02 -0.36591561767E+01  0.12218343125E+03  0.17621955248E+03  0.12509512176E+03 0.  0.
          5    1    3    3  502    0  0.45520394608E+02  0.95908555201E+01  0.15022119069E+02  0.49063502690E+02  0.41800000000E+01 0.  1.
         -5    1    3    3    0  502 -0.67022973378E+02 -0.13250011697E+02  0.10716131218E+03  0.12715604979E+03  0.41800000000E+01 0.  1.
        -11    1    1    2    0    0 -0.10151753548E+02  0.28099152565E+02  0.46054816666E+01  0.30229636722E+02  0.00000000000E+00 0.  1.
         11    1    1    2    0    0  0.31654332318E+02 -0.24439996388E+02 -0.56787870417E+02  0.69456262529E+02  0.00000000000E+00 0. -1.
</event>
<event>
 7    1  0.2719869E-009  0.1405051E+03  0.7561462E-02  0.1212651E+00
          1   -1    0    0  501    0  0.00000000000E+00  0.00000000000E+00  0.52371896067E+02  0.52371896067E+02  0.00000000000E+00 0.  1.
         -1   -1    0    0    0  501 -0.00000000000E+00 -0.00000000000E+00 -0.48694963145E+03  0.48694963145E+03  0.00000000000E+00 0. -1.
         25    2    1    2    0    0 -0.11217515735E+03 -0.26136882922E+02 -0.27749741482E+03  0.32545007706E+03  0.12508610973E+03 0.  0.
          5    1    3    3  502    0 -0.48000467666E+02 -0.49263652879E+02 -0.43064845095E+02  0.81258880586E+02  0.41800000000E+01 0. -1.
         -5    1    3    3    0  502 -0.64174689685E+02  0.23126769958E+02 -0.23443256973E+03  0.24419119647E+03  0.41800000000E+01 0. -1.
        -11    1    1    2    0    0  0.75716827346E+01  0.37759941726E+02 -0.55860740584E+02  0.67849583028E+02  0.00000000000E+00 0. -1.
         11    1    1    2    0    0  0.10460347462E+03 -0.11623058804E+02 -0.10121957998E+03  0.14602186744E+03  0.00000000000E+00 0.  1.
</event>
<event>
 7    1  0.2719869E-009  0.8097187E+02  0.7561462E-02  0.1326316E+00
         -2   -1    0    0    0  501 -0.00000000000E+00  0.00000000000E+00  0.56952101843E+02  0.56952101843E+02  0.00000000000E+00 0.  1.
          2   -1    0    0  501    0  0.00000000000E+00 -0.00000000000E+00 -0.22911564086E+03  0.22911564086E+03  0.00000000000E+00 0. -1.
         25    2    1    2    0    0  0.27137898857E+01  0.11633042866E+02 -0.54941516091E+02  0.13714501945E+03  0.12508994295E+03 0.  0.
          5    1    3    3  502    0 -0.53749573424E+02 -0.12371424548E+00  0.46462554118E+01  0.54111847481E+02  0.41800000000E+01 0. -1.
         -5    1    3    3    0  502  0.56463363310E+02  0.11756757111E+02 -0.59587771502E+02  0.83033171966E+02  0.41800000000E+01 0. -1.
        -11    1    1    2    0    0  0.68965251811E+01 -0.29296605458E+02 -0.11074784662E+00  0.30097598177E+02  0.00000000000E+00 0.  1.
         11    1    1    2    0    0 -0.96103150669E+01  0.17663562593E+02 -0.11711127508E+03  0.11882512508E+03  0.00000000000E+00 0. -1.
</event>
<event>
 7    1  0.2719869E-009  0.1432532E+03  0.7561462E-02  0.1209017E+00
          2   -1    0    0  501    0  0.00000000000E+00  0.00000000000E+00  0.20034179539E+04  0.20034179539E+04  0.00000000000E+00 0. -1.
         -2   -1    0    0    0  501 -0.00000000000E+00 -0.00000000000E+00 -0.18824169680E+02  0.18824169680E+02  0.00000000000E+00 0.  1.
         25    2    1    2    0    0  0.54591532792E+02 -0.83727715066E+02  0.17013386446E+04  0.17088569601E+04  0.12509340907E+03 0.  0.
          5    1    3    3  502    0  0.81214393258E+02 -0.20575063985E+02  0.66919714686E+03  0.67443413666E+03  0.41800000000E+01 0. -1.
         -5    1    3    3    0  502 -0.26622860466E+02 -0.63152651082E+02  0.10321414977E+04  0.10344228235E+04  0.41800000000E+01 0. -1.
        -11    1    1    2    0    0 -0.78873033480E+02  0.72791084472E+02  0.23203894585E+03  0.25565908899E+03  0.00000000000E+00 0.  1.
         11    1    1    2    0    0  0.24281500689E+02  0.10936630594E+02  0.51216193784E+02  0.57726074440E+02  0.00000000000E+00 0. -1.
</event>
<event>
 7    1  0.2719869E-009  0.1186690E+03  0.7561462E-02  0.1245309E+00
         -2   -1    0    0    0  501 -0.00000000000E+00  0.00000000000E+00  0.18819732379E+02  0.18819732379E+02  0.00000000000E+00 0. -1.
          2   -1    0    0  501    0  0.00000000000E+00 -0.00000000000E+00 -0.14161708960E+04  0.14161708960E+04  0.00000000000E+00 0.  1.
         25    2    1    2    0    0  0.64812850525E+02  0.10350537025E+02 -0.10762681312E+04  0.10854992454E+04  0.12509069641E+03 0.  0.
          5    1    3    3  502    0 -0.29195743411E+01 -0.32656552161E+02 -0.69853604237E+03  0.69931755963E+03  0.41800000000E+01 0.  1.
         -5    1    3    3    0  502  0.67732424866E+02  0.43007089185E+02 -0.37773208883E+03  0.38618168578E+03  0.41800000000E+01 0.  1.
        -11    1    1    2    0    0 -0.79032532456E+02  0.27365984288E+02 -0.13280152618E+03  0.15694356832E+03  0.00000000000E+00 0.  1.
         11    1    1    2    0    0  0.14219681931E+02 -0.37716521313E+02 -0.18828150626E+03  0.19254781467E+03  0.00000000000E+00 0. -1.
</event>
<event>
 7    1  0.2719869E-009  0.1075073E+03  0.7561462E-02  0.1265257E+00
         -2   -1    0    0    0  501 -0.00000000000E+00  0.00000000000E+00  0.68492561293E+03  0.68492561293E+03  0.00000000000E+00 0.  1.
          2   -1    0    0  501    0  0.00000000000E+00 -0.00000000000E+00 -0.50322740868E+02  0.50322740868E+02  0.00000000000E+00 0. -1.
         25    2    1    2    0    0 -0.59789529535E+02  0.27843947287E+02  0.63972390638E+02  0.15521239957E+03  0.12509336104E+03 0.  0.
          5    1    3    3  502    0  0.10711469822E+02  0.38180150483E+02  0.73086155141E+02  0.83255738241E+02  0.41800000000E+01 0.  1.
         -5    1    3    3    0  502 -0.70500999357E+02 -0.10336203196E+02 -0.91137645027E+01  0.71956661334E+02  0.41800000000E+01 0.  1.
        -11    1    1    2    0    0 -0.81007864048E+01  0.19419590758E+02  0.99833093775E+02  0.10202641745E+03  0.00000000000E+00 0.  1.
         11    1    1    2    0    0  0.67890315940E+02 -0.47263538045E+02  0.47079738765E+03  0.47800953677E+03  0.00000000000E+00 0. -1.
</event>
<event>
 7    1  0.2719869E-009  0.1659867E+03  0.7561462E-02  0.1182099E+00
          1   -1    0    0  501    0  0.00000000000E+00  0.00000000000E+00  0.91347383576E+02  0.91347383576E+02  0.00000000000E+00 0. -1.
         -1   -1    0    0    0  501 -0.00000000000E+00 -0.00000000000E+00 -0.45991376835E+03  0.45991376835E+03  0.00000000000E+00 0.  1.
         25    2    1    2    0    0  0.22912530366E+02  0.14782822681E+03 -0.31063077075E+03  0.36676790591E+03  0.12509617251E+03 0.  0.
          5    1    3    3  502    0  0.39365463529E+02  0.60865605312E+02 -0.24761479375E+03  0.25804034590E+03  0.41800000000E+01 0. -1.
         -5    1    3    3    0  502 -0.16452933163E+02  0.86962621501E+02 -0.63015977007E+02  0.10872756001E+03  0.41800000000E+01 0. -1.
        -11    1    1    2    0    0 -0.54119137492E+02 -0.98616688252E+02 -0.18176723806E+02  0.11394966228E+03  0.00000000000E+00 0.  1.
         11    1    1    2    0    0  0.31206607127E+02 -0.49211538561E+02 -0.39758890216E+02  0.70543583741E+02  0.00000000000E+00 0. -1.
</event>
<event>
 7    1  0.2719869E-009  0.7602257E+02  0.7561462E-02  0.1340733E+00
          2   -1    0    0  501    0  0.00000000000E+00  0.00000000000E+00  0.54439200955E+03  0.54439200955E+03  0.00000000000E+00 0. -1.
         -2   -1    0    0    0  501 -0.00000000000E+00 -0.00000000000E+00 -0.32450990762E+02  0.32450990762E+02  0.00000000000E+00 0.  1.
         25    2    1    2    0    0  0.51036564894E+02  0.25285055230E+02  0.40160667766E+03  0.42447577755E+03  0.12509075590E+03 0.  0.
          5    1    3    3  502    0  0.66779337161E+02  0.27578833959E+02  0.40155730443E+03  0.40802673085E+03  0.41800000000E+01 0. -1.
         -5    1    3    3    0  502 -0.15742772267E+02 -0.22937787294E+01  0.49373235814E-01  0.16449046697E+02  0.41800000000E+01 0. -1.
        -11    1    1    2    0    0 -0.42945669680E+02 -0.73774810071E+01  0.12197696457E+03  0.12952659053E+03  0.00000000000E+00 0. -1.
         11    1    1    2    0    0 -0.80908952141E+01 -0.17907574223E+02 -0.11642623441E+02  0.22840632226E+02  0.00000000000E+00 0.  1.
</event>
<event>
 7    1  0.2719869E-009  0.2090217E+03  0.7561462E-02  0.1142343E+00
         -2   -1    0    0    0  501 -0.00000000000E+00  0.00000000000E+00  0.48172354784E+02  0.48172354784E+02  0.00000000000E+00 0.  1.
          2   -1    0    0  501    0  0.00000000000E+00 -0.00000000000E+00 -0.10283393332E+04  0.10283393332E+04  0.00000000000E+00 0. -1.
         25    2    1    2    0    0 -0.13174721642E+03  0.14042021443E+03 -0.57095222233E+03  0.61539353998E+03  0.12509038017E+03 0.  0.
          5    1    3    3  502    0 -0.49944179418E+02 -0.12757308654E+02 -0.18618594371E+03  0.19323521423E+03  0.41800000000E+01 0. -1.
         -5    1    3    3    0  502 -0.81803037000E+02  0.15317752308E+03 -0.38476627862E+03  0.42215832575E+03  0.41800000000E+01 0. -1.
        -11    1    1    2    0    0  0.52606049002E+02 -0.52251458898E+02 -0.70627539879E+02  0.10240049188E+03  0.00000000000E+00 0.  1.
         11    1    1    2    0    0  0.79141167416E+02 -0.88168755533E+02 -0.33858721618E+03  0.35871765609E+03  0.00000000000E+00 0. -1.
</event>
<event>
 7    1  0.2719869E-009  0.2163131E+03  0.7561462E-02  0.1136662E+00
          2   -1    0    0  501    0  0.00000000000E+00  0.00000000000E+00  0.96484471953E+03  0.96484471953E+03  0.00000000000E+00 0. -1.
         -2   -1    0    0    0  501 -0.00000000000E+00 -0.00000000000E+00 -0.66902552649E+02  0.66902552649E+02  0.00000000000E+00 0.  1.
         25    2    1    2    0    0 -0.11467695923E+03 -0.16986161182E+03  0.25263462140E+03  0.34853323602E+03  0.12508953807E+03 0.  0.
          5    1    3    3  502    0 -0.78751741403E+02 -0.14270524296E+03  0.10452965946E+03  0.19367639311E+03  0.41800000000E+01 0.  1.
         -5    1    3    3    0  502 -0.35925217830E+02 -0.27156368863E+02  0.14810496194E+03  0.15485684291E+03  0.41800000000E+01 0.  1.
        -11    1    1    2    0    0  0.12294806961E+03  0.11330978048E+03  0.47409854457E+03  0.50271737998E+03  0.00000000000E+00 0. -1.
         11    1    1    2    0    0 -0.82711103735E+01  0.56551831346E+02  0.17120900091E+03  0.18049665617E+03  0.00000000000E+00 0.  1.
</event>
<event>
 6    1  0.2719869E-009  0.9543271E+02  0.7561462E-02  0.1290204E+00
          1   -1    0    0  501    0  0.00000000000E+00  0.00000000000E+00  0.32689148008E+03  0.32689148008E+03  0.00000000000E+00 0. -1.
         -1   -1    0    0    0  501 -0.00000000000E+00 -0.00000000000E+00 -0.38014803682E+02  0.38014803682E+02  0.00000000000E+00 0.  1.
          5    1    1    2  502    0 -0.65943964817E+02 -0.13400919890E+02  0.76653482414E+02  0.10208535603E+03  0.41800000000E+01 0. -1.
         -5    1    1    2    0  502  0.50369878428E+02  0.15307026838E+02  0.12682115717E+03  0.13737724713E+03  0.41800000000E+01 0. -1.
        -11    1    1    2    0    0 -0.15039901640E+02  0.25460661805E+02 -0.12046188604E+01  0.29595524112E+02  0.00000000000E+00 0.  1.
         11    1    1    2    0    0  0.30613988028E+02 -0.27366768753E+02  0.86606655680E+02  0.95848156493E+02  0.00000000000E+00 0. -1.
</event>
<event>
 7    1  0.2719869E-009  0.2177548E+03  0.7561462E-02  0.1135568E+00
          1   -1    0    0  501    0  0.00000000000E+00  0.00000000000E+00  0.45111137255E+02  0.45111137255E+02  0.00000000000E+00 0. -1.
         -1   -1    0    0    0  501 -0.00000000000E+00 -0.00000000000E+00 -0.11238887436E+04  0.11238887436E+04  0.00000000000E+00 0.  1.
         25    2    1    2    0    0 -0.76622026165E+02 -0.17778178980E+03 -0.47528832627E+03  0.52822626695E+03  0.12508675521E+03 0.  0.
          5    1    3    3  502    0  0.20313347776E+02  0.11231400068E+01 -0.17217105844E+02  0.26977669933E+02  0.41800000000E+01 0.  1.
         -5    1    3    3    0  502 -0.96935373941E+02 -0.17890492981E+03 -0.45807122043E+03  0.50124859702E+03  0.41800000000E+01 0.  1.
        -11    1    1    2    0    0  0.70212302148E+02  0.57461368180E+02 -0.19873441607E+03  0.21846497279E+03  0.00000000000E+00 0. -1.
         11    1    1    2    0    0  0.64097240164E+01  0.12032042162E+03 -0.40475486401E+03  0.42230864112E+03  0.00000000000E+00 0.  1.
</event>
<event>
 7    1  0.2719869E-009  0.4003150E+03  0.7561462E-02  0.1043671E+00
         -2   -1    0    0    0  501 -0.00000000000E+00  0.00000000000E+00  0.15267304371E+03  0.15267304371E+03  0.00000000000E+00 0.  1.
          2   -1    0    0  501    0  0.00000000000E+00 -0.00000000000E+00 -0.10657054862E+04  0.10657054862E+04  0.00000000000E+00 0. -1.
         25    2    1    2    0    0 -0.15430582972E+03 -0.35568543632E+03 -0.44041839066E+03  0.59994833263E+03  0.12508886562E+03 0.  0.
          5    1    3    3  502    0 -0.16405902197E+03 -0.23741045336E+03 -0.30858608361E+03  0.42251855516E+03  0.41800000000E+01 0. -1.
         -5    1    3    3    0  502  0.97531922485E+01 -0.11827498296E+03 -0.13183230704E+03  0.17742977747E+03  0.41800000000E+01 0. -1.
        -11    1    1    2    0    0 -0.37556037660E+01  0.40469770771E+02 -0.21910802585E+02  0.46173479140E+02  0.00000000000E+00 0.  1.
         11    1    1    2    0    0  0.15806143348E+03  0.31521566555E+03 -0.45070324920E+03  0.57225671809E+03  0.00000000000E+00 0. -1.
</event>
<event>
 7    1  0.2719869E-009  0.1818579E+03  0.7561462E-02  0.1166017E+00
          2   -1    0    0  501    0  0.00000000000E+00  0.00000000000E+00  0.98477817374E+03  0.98477817374E+03  0.00000000000E+00 0. -1.
         -2   -1    0    0    0  501 -0.00000000000E+00 -0.00000000000E+00 -0.36258094272E+02  0.36258094272E+02  0.00000000000E+00 0.  1.
         25    2    1    2    0    0  0.93352206822E+02 -0.11660731577E+03  0.56741387838E+03  0.59993097716E+03  0.12508703918E+03 0.  0.
          5    1    3    3  502    0  0.41751114959E+02  0.21545694536E+02  0.14693956515E+03  0.15432459545E+03  0.41800000000E+01 0. -1.
         -5    1    3    3    0  502  0.51601091864E+02 -0.13815301031E+03  0.42047431323E+03  0.44560638172E+03  0.41800000000E+01 0. -1.
        -11    1    1    2    0    0 -0.30765672075E+02  0.99475076527E+02  0.29799848679E+03  0.31566582894E+03  0.00000000000E+00 0.  1.
         11    1    1    2    0    0 -0.62586534748E+02  0.17132239246E+02  0.83107714298E+02  0.10543946192E+03  0.00000000000E+00 0. -1.
</event>
<event>
 7    1  0.2719869E-009  0.1350558E+03  0.7561462E-02  0.1220141E+00
          1   -1    0    0  501    0  0.00000000000E+00  0.00000000000E+00  0.68817061663E+02  0.68817061663E+02  0.00000000000E+00 0. -1.
         -1   -1    0    0    0  501 -0.00000000000E+00 -0.00000000000E+00 -0.26940659346E+03  0.26940659346E+03  0.00000000000E+00 0.  1.
         25    2    1    2    0    0  0.74979706497E+02 -0.33185946153E+02 -0.12088989216E+03  0.19230708423E+03  0.12507751681E+03 0.  0.
          5    1    3    3  502    0  0.90759910909E+02  0.20702726867E+02 -0.72569823678E+02  0.11810933933E+03  0.41800000000E+01 0.  1.
         -5    1    3    3    0  502 -0.15780204412E+02 -0.53888673019E+02 -0.48320068477E+02  0.74197744903E+02  0.41800000000E+01 0.  1.
        -11    1    1    2    0    0 -0.89358858925E+02  0.56279182728E+01 -0.48297099170E+02  0.10173145492E+03  0.00000000000E+00 0. -1.
         11    1    1    2    0    0  0.14379152428E+02  0.27558027880E+02 -0.31402540476E+02  0.44185115973E+02  0.00000000000E+00 0.  1.
</event>
<event>
 7    1  0.2719869E-009  0.8627269E+02  0.7561462E-02  0.1312137E+00
          2   -1    0    0  501    0  0.00000000000E+00  0.00000000000E+00  0.25469659110E+02  0.25469659110E+02  0.00000000000E+00 0. -1.
         -2   -1    0    0    0  501 -0.00000000000E+00 -0.00000000000E+00 -0.76122174345E+03  0.76122174345E+03  0.00000000000E+00 0.  1.
         25    2    1    2    0    0 -0.46384200645E+02  0.53388963085E+02 -0.55216214141E+03  0.57055440037E+03  0.12508963956E+03 0.  0.
          5    1    3    3  502    0 -0.45134396684E+02  0.40793074595E+02 -0.55377919216E+03  0.55712660569E+03  0.41800000000E+01 0. -1.
         -5    1    3    3    0  502 -0.12498039602E+01  0.12595888490E+02  0.16170507503E+01  0.13427794678E+02  0.41800000000E+01 0. -1.
        -11    1    1    2    0    0  0.27300184709E+02 -0.68598345182E+02 -0.76559304487E+02  0.10635957950E+03  0.00000000000E+00 0. -1.
         11    1    1    2    0    0  0.19084015936E+02  0.15209382097E+02 -0.10703063844E+03  0.10977742269E+03  0.00000000000E+00 0.  1.
</event>
<event>
 7    1  0.2719869E-009  0.8510206E+02  0.7561462E-02  0.1315166E+00
         -1   -1    0    0    0  501 -0.00000000000E+00  0.00000000000E+00  0.53396969819E+02  0.53396969819E+02  0.00000000000E+00 0.  1.
          1   -1    0    0  501    0  0.00000000000E+00 -0.00000000000E+00 -0.23523017132E+03  0.23523017132E+03  0.00000000000E+00 0. -1.
         25    2    1    2    0    0 -0.20983149717E+02 -0.17052771215E+01 -0.88479161259E+02  0.15465971645E+03  0.12509142806E+03 0.  0.
          5    1    3    3  502    0  0.49190126809E+02  0.19325199955E+02 -0.30674281206E+02  0.61249619234E+02  0.41800000000E+01 0. -1.
         -5    1    3    3    0  502 -0.70173276526E+02 -0.21030477076E+02 -0.57804880053E+02  0.93410097218E+02  0.41800000000E+01 0. -1.
        -11    1    1    2    0    0  0.20961901827E+01 -0.17060211495E+02 -0.10391346174E+03  0.10532545922E+03  0.00000000000E+00 0. -1.
         11    1    1    2    0    0  0.18886959534E+02  0.18765488617E+02  0.10559421497E+02  0.28641965467E+02  0.00000000000E+00 0.  1.
</event>
<event>
 7    1  0.2719869E-009  0.2855881E+03  0.7561462E-02  0.1092675E+00
         -2   -1    0    0    0  501 -0.00000000000E+00  0.00000000000E+00  0.21333107205E+03  0.21333107205E+03  0.00000000000E+00 0.  1.
          2   -1    0    0  501    0  0.00000000000E+00 -0.00000000000E+00 -0.39192666848E+03  0.39192666848E+03  0.00000000000E+00 0. -1.
         25    2    1    2    0    0 -0.22916760322E+03  0.14038434351E+03 -0.67091459422E+02  0.30393286086E+03  0.12509342794E+03 0.  0.
          5    1    3    3  502    0 -0.12543994771E+03  0.11403104411E+02 -0.20396719618E+01  0.12604302413E+03  0.41800000000E+01 0. -1.
         -5    1    3    3    0  502 -0.10372765551E+03  0.12898123910E+03 -0.65051787460E+02  0.17788983672E+03  0.41800000000E+01 0. -1.
        -11    1    1    2    0    0  0.91278476895E+02 -0.10109054250E+03 -0.61896625148E+02  0.14960698624E+03  0.00000000000E+00 0.  1.
         11    1    1    2    0    0  0.13788912632E+03 -0.39293801014E+02 -0.49607511851E+02  0.15171789343E+03  0.00000000000E+00 0. -1.
</event>
<event>
 7    1  0.2719869E-009  0.1332537E+03  0.7561462E-02  0.1222706E+00
          2   -1    0    0  501    0  0.00000000000E+00  0.00000000000E+00  0.92629096027E+02  0.92629096027E+02  0.00000000000E+00 0. -1.
         -2   -1    0    0    0  501 -0.00000000000E+00 -0.00000000000E+00 -0.20836400214E+03  0.20836400214E+03  0.00000000000E+00 0.  1.
         25    2    1    2    0    0  0.36273571751E+01  0.87221797815E+02 -0.57110679680E+02  0.16288057596E+03  0.12509057741E+03 0.  0.
          5    1    3    3  502    0  0.43167367407E+02 -0.85014721437E+01  0.69266117612E+00  0.44200099739E+02  0.41800000000E+01 0.  1.
         -5    1    3    3    0  502 -0.39540010232E+02  0.95723269959E+02 -0.57803340856E+02  0.11868047622E+03  0.41800000000E+01 0.  1.
        -11    1    1    2    0    0  0.20868223162E+02 -0.91451544134E+02 -0.62831197298E+02  0.11290096110E+03  0.00000000000E+00 0.  1.
         11    1    1    2    0    0 -0.24495580337E+02  0.42297463187E+01  0.42069708664E+01  0.25211561115E+02  0.00000000000E+00 0. -1.
</event>
<event>
 7    1  0.2719869E-009  0.6500527E+02  0.7561462E-02  0.1377952E+00
         -1   -1    0    0    0  501 -0.00000000000E+00  0.00000000000E+00  0.39144397011E+02  0.39144397011E+02  0.00000000000E+00 0.  1.
          1   -1    0    0  501    0  0.00000000000E+00 -0.00000000000E+00 -0.29051955758E+03  0.29051955758E+03  0.00000000000E+00 0. -1.
         25    2    1    2    0    0 -0.22848426033E+02 -0.54890686924E+01 -0.15402815667E+03  0.19981103972E+03  0.12509035973E+03 0.  0.
          5    1    3    3  502    0  0.25832786977E+02 -0.52373783054E+01 -0.14822298482E+03  0.15060640306E+03  0.41800000000E+01 0.  1.
         -5    1    3    3    0  502 -0.48681213010E+02 -0.25169038703E+00 -0.58051718504E+01  0.49204636656E+02  0.41800000000E+01 0.  1.
        -11    1    1    2    0    0  0.14153509719E+02 -0.21704763029E+02 -0.97926792916E+02  0.10129696613E+03  0.00000000000E+00 0. -1.
         11    1    1    2    0    0  0.86949163139E+01  0.27193831721E+02  0.57978901912E+00  0.28555948745E+02  0.00000000000E+00 0.  1.
</event>
<event>
 7    1  0.2719869E-009  0.1063540E+03  0.7561462E-02  0.1267475E+00
         -3   -1    0    0    0  501 -0.00000000000E+00  0.00000000000E+00  0.62390212053E+02  0.62390212053E+02  0.00000000000E+00 0.  1.
          3   -1    0    0  501    0  0.00000000000E+00 -0.00000000000E+00 -0.19228494316E+03  0.19228494316E+03  0.00000000000E+00 0. -1.
         25    2    1    2    0    0  0.89086981680E+01  0.92112779128E+01 -0.53949778612E+02  0.13682962475E+03  0.12509018768E+03 0.  0.
          5    1    3    3  502    0 -0.82998297516E+01 -0.56137882558E+02 -0.15533114618E+02  0.58983888323E+02  0.41800000000E+01 0. -1.
         -5    1    3    3    0  502  0.17208527920E+02  0.65349160471E+02 -0.38416663994E+02  0.77845736427E+02  0.41800000000E+01 0. -1.
        -11    1    1    2    0    0 -0.18658206061E+02  0.36696957913E+02 -0.47950258903E+02  0.63198280850E+02  0.00000000000E+00 0.  1.
         11    1    1    2    0    0  0.97495078932E+01 -0.45908235826E+02 -0.27994693587E+02  0.54647249609E+02  0.00000000000E+00 0. -1.
</event>
<event>
 7    1  0.2719869E-009  0.7413987E+02  0.7561462E-02  0.1346555E+00
         -2   -1    0    0    0  501 -0.00000000000E+00  0.00000000000E+00  0.15132165912E+02  0.15132165912E+02  0.00000000000E+00 0. -1.
          2   -1    0    0  501    0  0.00000000000E+00 -0.00000000000E+00 -0.99606846233E+03  0.99606846233E+03  0.00000000000E+00 0.  1.
         25    2    1    2    0    0  0.33230116124E+02  0.15743757512E+02 -0.43432567419E+03  0.45347329984E+03  0.12508851223E+03 0.  0.
          5    1    3    3  502    0  0.16187755653E+02  0.64852012629E+01  0.74743693165E+00  0.17948045311E+02  0.41800000000E+01 0. -1.
         -5    1    3    3    0  502  0.17042360470E+02  0.92585562486E+01 -0.43507311112E+03  0.43552525453E+03  0.41800000000E+01 0. -1.
        -11    1    1    2    0    0 -0.69894599597E+02  0.16761476493E+01 -0.32590510436E+03  0.33331996876E+03  0.00000000000E+00 0.  1.
         11    1    1    2    0    0  0.36664483473E+02 -0.17419905161E+02 -0.22070551787E+03  0.22440735964E+03  0.00000000000E+00 0. -1.
</event>
<event>
 7    1  0.2719869E-009  0.1731233E+03  0.7561462E-02  0.1174629E+00
         -2   -1    0    0    0  501 -0.00000000000E+00  0.00000000000E+00  0.13924684030E+03  0.13924684030E+03  0.00000000000E+00 0.  1.
          2   -1    0    0  501    0  0.00000000000E+00 -0.00000000000E+00 -0.26632243910E+03  0.26632243910E+03  0.00000000000E+00 0. -1.
         25    2    1    2    0    0  0.84203411665E+02 -0.12348197426E+03 -0.12224301100E+03  0.23006317401E+03  0.12509075824E+03 0.  0.
          5    1    3    3  502    0  0.11286906765E+03 -0.78759023742E+02 -0.10774812183E+03  0.17484147223E+03  0.41800000000E+01 0. -1.
         -5    1    3    3    0  502 -0.28665655985E+02 -0.44722950518E+02 -0.14494889169E+02  0.55221701786E+02  0.41800000000E+01 0. -1.
        -11    1    1    2    0    0 -0.75006024358E+02  0.75549899136E+02  0.35466784087E+02  0.11221222626E+03  0.00000000000E+00 0.  1.
         11    1    1    2    0    0 -0.91973873062E+01  0.47932075124E+02 -0.40299371893E+02  0.63293879119E+02  0.00000000000E+00 0. -1.
</event>
<event>
 7    1  0.2719869E-009  0.1200660E+03  0.7561462E-02  0.1242988E+00
          2   -1    0    0  501    0  0.00000000000E+00  0.00000000000E+00  0.12398944211E+03  0.12398944211E+03  0.00000000000E+00 0.  1.
         -2   -1    0    0    0  501 -0.00000000000E+00 -0.00000000000E+00 -0.14710963050E+03  0.14710963050E+03  0.00000000000E+00 0. -1.
         25    2    1    2    0    0 -0.37610069186E+02  0.64661829658E+02 -0.40480516937E+02  0.15126840292E+03  0.12509111860E+03 0.  0.
          5    1    3    3  502    0 -0.81042830261E+02  0.58122486791E+02 -0.16890017926E+02  0.10123689502E+03  0.41800000000E+01 0. -1.
         -5    1    3    3    0  502  0.43432761074E+02  0.65393428664E+01 -0.23590499012E+02  0.50031507906E+02  0.41800000000E+01 0. -1.
        -11    1    1    2    0    0  0.57855515464E-01 -0.58066097713E+02 -0.24664863579E+02  0.63087483277E+02  0.00000000000E+00 0. -1.
         11    1    1    2    0    0  0.37552213671E+02 -0.65957319450E+01  0.42025192123E+02  0.56743186414E+02  0.00000000000E+00 0.  1.
</event>
<event>
 7    1  0.2719869E-009  0.1121677E+03  0.7561462E-02  0.1256607E+00
          2   -1    0    0  501    0  0.00000000000E+00  0.00000000000E+00  0.23593073950E+03  0.23593073950E+03  0.00000000000E+00 0. -1.
         -2   -1    0    0    0  501 -0.00000000000E+00 -0.00000000000E+00 -0.95604822555E+02  0.95604822555E+02  0.00000000000E+00 0.  1.
         25    2    1    2    0    0 -0.47662579221E+02 -0.11263579588E+02 -0.24798462752E+02  0.13660251677E+03  0.12508674650E+03 0.  0.
          5    1    3    3  502    0 -0.85449033488E+02  0.14449871382E+02 -0.26362431484E+02  0.90679580396E+02  0.41800000000E+01 0. -1.
         -5    1    3    3    0  502  0.37786454267E+02 -0.25713450970E+02  0.15639687326E+01  0.45922936372E+02  0.41800000000E+01 0. -1.
        -11    1    1    2    0    0 -0.12113564387E+02  0.27231340784E+02  0.10311378853E+03  0.10733469964E+03  0.00000000000E+00 0. -1.
         11    1    1    2    0    0  0.59776143608E+02 -0.15967761195E+02  0.62010591170E+02  0.87598345643E+02  0.00000000000E+00 0.  1.
</event>
<event>
 7    1  0.2719869E-009  0.1187941E+03  0.7561462E-02  0.1245100E+00
         -1   -1    0    0    0  501 -0.00000000000E+00  0.00000000000E+00  0.91913689293E+03  0.91913689293E+03  0.00000000000E+00 0.  1.
          1   -1    0    0  501    0  0.00000000000E+00 -0.00000000000E+00 -0.23841366797E+02  0.23841366797E+02  0.00000000000E+00 0. -1.
         25    2    1    2    0    0  0.73052853355E+02  0.71962001669E+02  0.51724336006E+03  0.54194417517E+03  0.12509015313E+03 0.  0.
          5    1    3    3  502    0  0.23072435794E+02  0.33530079391E+02  0.30287317965E+02  0.50905771254E+02  0.41800000000E+01 0.  1.
         -5    1    3    3    0  502  0.49980417561E+02  0.38431922278E+02  0.48695604209E+03  0.49103840392E+03  0.41800000000E+01 0.  1.
        -11    1    1    2    0    0 -0.82714185761E+02 -0.26272507066E+02  0.25880172859E+03  0.27296559467E+03  0.00000000000E+00 0.  1.
         11    1    1    2    0    0  0.96613324056E+01 -0.45689494603E+02  0.11925043749E+03  0.12806848989E+03  0.00000000000E+00 0. -1.
</event>
<event>
 7    1  0.2811291E-009  0.8152517E+02  0.7561462E-02  0.1324778E+00
         -2   -1    0    0    0  501 -0.00000000000E+00  0.00000000000E+00  0.65193347302E+02  0.65193347302E+02  0.00000000000E+00 0.  1.
          2   -1    0    0  501    0  0.00000000000E+00 -0.00000000000E+00 -0.28514952089E+03  0.28514952089E+03  0.00000000000E+00 0. -1.
         25    2    1    2    0    0  0.62945334006E+01  0.51100368140E+02 -0.38162658141E+02  0.14055203822E+03  0.12509044007E+03 0.  0.
          5    1    3    3  502    0 -0.15076753740E+01 -0.77469550095E+01  0.40749335534E+02  0.41716533215E+02  0.41800000000E+01 0.  1.
         -5    1    3    3    0  502  0.78022087746E+01  0.58847323149E+02 -0.78911993675E+02  0.98835505004E+02  0.41800000000E+01 0.  1.
        -11    1    1    2    0    0 -0.41816540477E+02 -0.16296967742E+02 -0.13198305471E+03  0.13940495309E+03  0.00000000000E+00 0. -1.
         11    1    1    2    0    0  0.35522007076E+02 -0.34803400398E+02 -0.49810460735E+02  0.70385876884E+02  0.00000000000E+00 0.  1.
</event>
<event>
 7    1  0.2719869E-009  0.3400959E+03  0.7561462E-02  0.1066755E+00
         -1   -1    0    0    0  501 -0.00000000000E+00  0.00000000000E+00  0.18750058010E+03  0.18750058010E+03  0.00000000000E+00 0.  1.
          1   -1    0    0  501    0  0.00000000000E+00 -0.00000000000E+00 -0.90293661853E+03  0.90293661853E+03  0.00000000000E+00 0. -1.
         25    2    1    2    0    0 -0.13323635745E+03 -0.30617792461E+03 -0.77864246456E+02  0.36496850799E+03  0.12506927074E+03 0.  0.
          5    1    3    3  502    0 -0.31279434812E+02 -0.46737729818E+02 -0.64761918130E+02  0.85874308560E+02  0.41800000000E+01 0. -1.
         -5    1    3    3    0  502 -0.10195692264E+03 -0.25944019479E+03 -0.13102328326E+02  0.27909419943E+03  0.41800000000E+01 0. -1.
        -11    1    1    2    0    0  0.14862101955E+02  0.14108520005E+03 -0.23383091890E+03  0.27350103177E+03  0.00000000000E+00 0. -1.
         11    1    1    2    0    0  0.11837425549E+03  0.16509272455E+03 -0.40374087308E+03  0.45196765887E+03  0.00000000000E+00 0.  1.
</event>
<event>
 7    1  0.2719869E-009  0.8630865E+02  0.7561462E-02  0.1312045E+00
         -2   -1    0    0    0  501 -0.00000000000E+00  0.00000000000E+00  0.40675473634E+02  0.40675473634E+02  0.00000000000E+00 0.  1.
          2   -1    0    0  501    0  0.00000000000E+00 -0.00000000000E+00 -0.30759843219E+03  0.30759843219E+03  0.00000000000E+00 0. -1.
         25    2    1    2    0    0  0.29558683607E+02  0.11609751496E+02 -0.15545994536E+03  0.20205057631E+03  0.12509252044E+03 0.  0.
          5    1    3    3  502    0  0.68459728492E+02  0.16489506343E+02 -0.42378315327E+02  0.82292358422E+02  0.41800000000E+01 0. -1.
         -5    1    3    3    0  502 -0.38901044885E+02 -0.48797548473E+01 -0.11308163003E+03  0.11975821789E+03  0.41800000000E+01 0. -1.
        -11    1    1    2    0    0  0.15614476782E+02  0.12929538935E+01  0.81889249486E+01  0.17678860448E+02  0.00000000000E+00 0.  1.
         11    1    1    2    0    0 -0.45173160389E+02 -0.12902705389E+02 -0.11965193814E+03  0.12854446906E+03  0.00000000000E+00 0. -1.
</event>
<event>
 7    1  0.2719869E-009  0.1420939E+03  0.7561462E-02  0.1210539E+00
          2   -1    0    0  501    0  0.00000000000E+00  0.00000000000E+00  0.23162091917E+03  0.23162091917E+03  0.00000000000E+00 0. -1.
         -2   -1    0    0    0  501 -0.00000000000E+00 -0.00000000000E+00 -0.11742195630E+03  0.11742195630E+03  0.00000000000E+00 0.  1.
         25    2    1    2    0    0 -0.10572119604E+03  0.64075348674E+02  0.72926478433E+02  0.19038906226E+03  0.12508837744E+03 0.  0.
          5    1    3    3  502    0 -0.48747595806E+02  0.57051744473E+02  0.10136596260E+03  0.12618938314E+03  0.41800000000E+01 0.  1.
         -5    1    3    3    0  502 -0.56973600230E+02  0.70236042013E+01 -0.28439484162E+02  0.64199679116E+02  0.41800000000E+01 0.  1.
        -11    1    1    2    0    0  0.32920968185E+02 -0.71082916226E+02  0.94870987611E+01  0.78908657119E+02  0.00000000000E+00 0. -1.
         11    1    1    2    0    0  0.72800227852E+02  0.70075675511E+01  0.31785385670E+02  0.79745156094E+02  0.00000000000E+00 0.  1.
</event>
<event>
 7    1  0.2719869E-009  0.2540680E+03  0.7561462E-02  0.1110761E+00
          1   -1    0    0  501    0  0.00000000000E+00  0.00000000000E+00  0.30921762044E+03  0.30921762044E+03  0.00000000000E+00 0. -1.
         -1   -1    0    0    0  501 -0.00000000000E+00 -0.00000000000E+00 -0.29890391403E+03  0.29890391403E+03  0.00000000000E+00 0.  1.
         25    2    1    2    0    0 -0.16341458247E+02 -0.23938586957E+03  0.15630141005E+03  0.31249120130E+03  0.12509189542E+03 0.  0.
          5    1    3    3  502    0  0.51708832741E+02 -0.88173934746E+02  0.80215287010E+02  0.13000158008E+03  0.41800000000E+01 0. -1.
         -5    1    3    3    0  502 -0.68050290988E+02 -0.15121193482E+03  0.76086123042E+02  0.18248962123E+03  0.41800000000E+01 0. -1.
        -11    1    1    2    0    0  0.13250330255E+02  0.17474036426E+03 -0.15016016744E+03  0.23077660635E+03  0.00000000000E+00 0.  1.
         11    1    1    2    0    0  0.30911279920E+01  0.64645505307E+02  0.41724637994E+01  0.64853726823E+02  0.00000000000E+00 0. -1.
</event>
<event>
 7    1  0.2719869E-009  0.1940459E+03  0.7561462E-02  0.1154862E+00
          2   -1    0    0  501    0  0.00000000000E+00  0.00000000000E+00  0.14218752817E+04  0.14218752817E+04  0.00000000000E+00 0. -1.
         -2   -1    0    0    0  501 -0.00000000000E+00 -0.00000000000E+00 -0.34035118978E+02  0.34035118978E+02  0.00000000000E+00 0.  1.
         25    2    1    2    0    0 -0.64619135606E+02 -0.16421738201E+03  0.94440192450E+03  0.96885734879E+03  0.12508631440E+03 0.  0.
          5    1    3    3  502    0 -0.75821785799E+02 -0.14946858486E+03  0.93009388966E+03  0.94508302125E+03  0.41800000000E+01 0.  1.
         -5    1    3    3    0  502  0.11202650193E+02 -0.14748797159E+02  0.14308034842E+02  0.23774327541E+02  0.41800000000E+01 0.  1.
        -11    1    1    2    0    0  0.47134388277E+02  0.12544206692E+02  0.10735728332E+03  0.11791774235E+03  0.00000000000E+00 0.  1.
         11    1    1    2    0    0  0.17484747329E+02  0.15167317532E+03  0.33608095488E+03  0.36913530952E+03  0.00000000000E+00 0. -1.
</event>
<event>
 7    1  0.2719869E-009  0.1310103E+03  0.7561462E-02  0.1225964E+00
          1   -1    0    0  501    0  0.00000000000E+00  0.00000000000E+00  0.84376787132E+03  0.84376787132E+03  0.00000000000E+00 0. -1.
         -1   -1    0    0    0  501 -0.00000000000E+00 -0.00000000000E+00 -0.24142770164E+02  0.24142770164E+02  0.00000000000E+00 0.  1.
         25    2    1    2    0    0 -0.83868140835E+02 -0.38404441521E+02  0.45109592692E+03  0.47712102897E+03  0.12509266496E+03 0.  0.
          5    1    3    3  502    0 -0.86918762149E+02 -0.66820314090E+02  0.42236216284E+03  0.43637953044E+03  0.41800000000E+01 0.  1.
         -5    1    3    3    0  502  0.30506213138E+01  0.28415872569E+02  0.28733764080E+02  0.40741498530E+02  0.41800000000E+01 0.  1.
        -11    1    1    2    0    0  0.47039800565E+02 -0.22581651340E+02  0.21936041973E+03  0.22548096939E+03  0.00000000000E+00 0.  1.
         11    1    1    2    0    0  0.36828340270E+02  0.60986092861E+02  0.14916875451E+03  0.16530864312E+03  0.00000000000E+00 0. -1.
</event>
<event>
 7    1  0.2719869E-009  0.1818948E+03  0.7561462E-02  0.1165982E+00
         -2   -1    0    0    0  501 -0.00000000000E+00  0.00000000000E+00  0.57533574393E+02  0.57533574393E+02  0.00000000000E+00 0.  1.
          2   -1    0    0  501    0  0.00000000000E+00 -0.00000000000E+00 -0.91754537304E+03  0.91754537304E+03  0.00000000000E+00 0. -1.
         25    2    1    2    0    0  0.53836006499E+02 -0.15095571590E+03 -0.18346752486E+03  0.27384970215E+03  0.12508949967E+03 0.  0.
          5    1    3    3  502    0 -0.22980112152E+01 -0.14258069907E+03 -0.15340701081E+03  0.20948918819E+03  0.41800000000E+01 0. -1.
         -5    1    3    3    0  502  0.56134017714E+02 -0.83750168310E+01 -0.30060514043E+02  0.64360513952E+02  0.41800000000E+01 0. -1.
        -11    1    1    2    0    0 -0.34474496129E+02  0.45952384370E+02 -0.10397441346E+03  0.11878885119E+03  0.00000000000E+00 0.  1.
         11    1    1    2    0    0 -0.19361510370E+02  0.10500333153E+03 -0.57256986034E+03  0.58244039410E+03  0.00000000000E+00 0. -1.
</event>
<event>
 7    1  0.2719869E-009  0.1583450E+03  0.7561462E-02  0.1190578E+00
          1   -1    0    0  501    0  0.00000000000E+00  0.00000000000E+00  0.62130580675E+02  0.62130580675E+02  0.00000000000E+00 0. -1.
         -1   -1    0    0    0  501 -0.00000000000E+00 -0.00000000000E+00 -0.41773363029E+03  0.41773363029E+03  0.00000000000E+00 0.  1.
         25    2    1    2    0    0  0.54127180744E+02 -0.10503125994E+03 -0.19527831515E+03  0.26027035063E+03  0.12508284370E+03 0.  0.
          5    1    3    3  502    0  0.59822715251E+02  0.62895511084E+01 -0.74943503386E+02  0.96188964091E+02  0.41800000000E+01 0. -1.
         -5    1    3    3    0  502 -0.56955345066E+01 -0.11132081105E+03 -0.12033481177E+03  0.16408138654E+03  0.41800000000E+01 0. -1.
        -11    1    1    2    0    0 -0.63147188362E+02  0.31139668886E+02 -0.49411701099E+02  0.86016060023E+02  0.00000000000E+00 0.  1.
         11    1    1    2    0    0  0.90200076178E+01  0.73891591056E+02 -0.11091303337E+03  0.13357780031E+03  0.00000000000E+00 0. -1.
</event>
<event>
 7    1  0.2719869E-009  0.1201180E+03  0.7561462E-02  0.1242903E+00
         -1   -1    0    0    0  501 -0.00000000000E+00  0.00000000000E+00  0.30505091069E+02  0.30505091069E+02  0.00000000000E+00 0.  1.
          1   -1    0    0  501    0  0.00000000000E+00 -0.00000000000E+00 -0.56974619354E+03  0.56974619354E+03  0.00000000000E+00 0. -1.
         25    2    1    2    0    0  0.66728294560E+02 -0.23982179017E+02 -0.25078518176E+03  0.28908373222E+03  0.12509351159E+03 0.  0.
          5    1    3    3  502    0  0.29441625025E+01 -0.54645376451E+02 -0.43568094917E+02  0.70074507169E+02  0.41800000000E+01 0. -1.
         -5    1    3    3    0  502  0.63784132058E+02  0.30663197434E+02 -0.20721708684E+03  0.21900922505E+03  0.41800000000E+01 0. -1.
        -11    1    1    2    0    0 -0.86647023845E+02  0.32834438075E+02 -0.25423552078E+03  0.27059472849E+03  0.00000000000E+00 0.  1.
         11    1    1    2    0    0  0.19918729285E+02 -0.88522590578E+01 -0.34220399933E+02  0.40572823889E+02  0.00000000000E+00 0. -1.
</event>
<event>
 7    1  0.2719869E-009  0.9986784E+02  0.7561462E-02  0.1280574E+00
         -4   -1    0    0    0  501 -0.00000000000E+00  0.00000000000E+00  0.35214958357E+02  0.35214958357E+02  0.00000000000E+00 0.  1.
          4   -1    0    0  501    0  0.00000000000E+00 -0.00000000000E+00 -0.37492078032E+03  0.37492078032E+03  0.00000000000E+00 0. -1.
         25    2    1    2    0    0 -0.18603914943E+02  0.63436423261E+01 -0.13364646439E+03  0.18410530331E+03  0.12508812020E+03 0.  0.
          5    1    3    3  502    0  0.62255061112E-01 -0.54409113262E+02 -0.95135304617E+02  0.10967476495E+03  0.41800000000E+01 0.  1.
         -5    1    3    3    0  502 -0.18666170004E+02  0.60752755588E+02 -0.38511159773E+02  0.74430538365E+02  0.41800000000E+01 0.  1.
        -11    1    1    2    0    0 -0.16975525617E+01  0.35196601323E+02 -0.38421788780E+02  0.52133638684E+02  0.00000000000E+00 0.  1.
         11    1    1    2    0    0  0.20301467505E+02 -0.41540243649E+02 -0.16763756879E+03  0.17389679668E+03  0.00000000000E+00 0. -1.
</event>
<event>
 7    1  0.2719869E-009  0.7278525E+02  0.7561462E-02  0.1350870E+00
         -2   -1    0    0    0  501 -0.00000000000E+00  0.00000000000E+00  0.32028100211E+03  0.32028100211E+03  0.00000000000E+00 0.  1.
          2   -1    0    0  501    0  0.00000000000E+00 -0.00000000000E+00 -0.43779574579E+02  0.43779574579E+02  0.00000000000E+00 0. -1.
         25    2    1    2    0    0 -0.24251963715E+02  0.31103784262E+02  0.10968059101E+03  0.17097488620E+03  0.12508787522E+03 0.  0.
          5    1    3    3  502    0 -0.42387214669E+02  0.48008580381E+02  0.61934437006E+01  0.64477367366E+02  0.41800000000E+01 0.  1.
         -5    1    3    3    0  502  0.18135250954E+02 -0.16904796119E+02  0.10348714731E+03  0.10649751883E+03  0.41800000000E+01 0.  1.
        -11    1    1    2    0    0 -0.10297225637E+02 -0.14841489359E+02 -0.36172324692E+01  0.18422460013E+02  0.00000000000E+00 0. -1.
         11    1    1    2    0    0  0.34549189352E+02 -0.16262294903E+02  0.17043806899E+03  0.17466323048E+03  0.00000000000E+00 0.  1.
</event>
<event>
 7    1  0.2719869E-009  0.1168305E+03  0.7561462E-02  0.1248419E+00
          3   -1    0    0  501    0  0.00000000000E+00  0.00000000000E+00  0.11401269307E+03  0.11401269307E+03  0.00000000000E+00 0. -1.
         -3   -1    0    0    0  501 -0.00000000000E+00 -0.00000000000E+00 -0.14068078728E+03  0.14068078728E+03  0.00000000000E+00 0.  1.
         25    2    1    2    0    0  0.26009302281E+02  0.40310891472E+02 -0.14968921355E+02  0.13481431551E+03  0.12509747912E+03 0.  0.
          5    1    3    3  502    0 -0.48985047311E+01  0.72105448343E+02 -0.41030293181E+02  0.83211467887E+02  0.41800000000E+01 0.  1.
         -5    1    3    3    0  502  0.30907807012E+02 -0.31794556872E+02  0.26061371825E+02  0.51602847619E+02  0.41800000000E+01 0.  1.
        -11    1    1    2    0    0 -0.31216448089E+02  0.31724259386E+02 -0.16570745534E+02  0.47491945343E+02  0.00000000000E+00 0.  1.
         11    1    1    2    0    0  0.52071458083E+01 -0.72035150858E+02  0.48715726820E+01  0.72387219500E+02  0.00000000000E+00 0. -1.
</event>
<event>
 7    1  0.3051499E-009  0.8076228E+02  0.7561462E-02  0.1326902E+00
          2   -1    0    0  501    0  0.00000000000E+00  0.00000000000E+00  0.61833284333E+03  0.61833284333E+03  0.00000000000E+00 0. -1.
         -2   -1    0    0    0  501 -0.00000000000E+00 -0.00000000000E+00 -0.26151193076E+02  0.26151193076E+02  0.00000000000E+00 0.  1.
         25    2    1    2    0    0 -0.92345103808E+00  0.13255811540E+01  0.49682008847E+03  0.51232939432E+03  0.12509435659E+03 0.  0.
          5    1    3    3  502    0  0.37585247905E+02  0.42056116626E+02  0.35996452941E+03  0.36438071113E+03  0.41800000000E+01 0. -1.
         -5    1    3    3    0  502 -0.38508698943E+02 -0.40730535472E+02  0.13685555905E+03  0.14794868319E+03  0.41800000000E+01 0. -1.
        -11    1    1    2    0    0 -0.15046399171E+02  0.18147574622E+02  0.10313755087E+03  0.10579736761E+03  0.00000000000E+00 0. -1.
         11    1    1    2    0    0  0.15969850209E+02 -0.19473155776E+02 -0.77759890874E+01  0.26357274477E+02  0.00000000000E+00 0.  1.
</event>
<event>
 7    1  0.2719869E-009  0.1006864E+03  0.7561462E-02  0.1278859E+00
         -1   -1    0    0    0  501 -0.00000000000E+00  0.00000000000E+00  0.29889162197E+03  0.29889162197E+03  0.00000000000E+00 0.  1.
          1   -1    0    0  501    0  0.00000000000E+00 -0.00000000000E+00 -0.48589277941E+02  0.48589277941E+02  0.00000000000E+00 0. -1.
         25    2    1    2    0    0  0.33718915821E+02 -0.42643409410E+02  0.13747214112E+03  0.19365398272E+03  0.12509136576E+03 0.  0.
          5    1    3    3  502    0  0.71506749343E+02 -0.38494043497E+02  0.13197655573E+03  0.15501706438E+03  0.41800000000E+01 0. -1.
         -5    1    3    3    0  502 -0.37787833523E+02 -0.41493659131E+01  0.54955853899E+01  0.38636918337E+02  0.41800000000E+01 0. -1.
        -11    1    1    2    0    0  0.17775631721E+02  0.66232481143E+01 -0.55809591158E+01  0.19773406467E+02  0.00000000000E+00 0. -1.
         11    1    1    2    0    0 -0.51494547542E+02  0.36020161296E+02  0.11841116203E+03  0.13405351073E+03  0.00000000000E+00 0.  1.
</event>
<event>
 7    1  0.2719869E-009  0.1118687E+03  0.7561462E-02  0.1257148E+00
          2   -1    0    0  501    0  0.00000000000E+00  0.00000000000E+00  0.18721762079E+03  0.18721762079E+03  0.00000000000E+00 0. -1.
         -2   -1    0    0    0  501 -0.00000000000E+00 -0.00000000000E+00 -0.83102754011E+02  0.83102754011E+02  0.00000000000E+00 0.  1.
         25    2    1    2    0    0 -0.59652771180E+02  0.59440754823E+01  0.75773020269E+02  0.15805664789E+03  0.12508624304E+03 0.  0.
          5    1    3    3  502    0  0.26418263463E+02 -0.34349756570E+02  0.25704470450E+02  0.50557122366E+02  0.41800000000E+01 0.  1.
         -5    1    3    3    0  502 -0.86071034642E+02  0.40293832052E+02  0.50068549819E+02  0.10749952552E+03  0.41800000000E+01 0.  1.
        -11    1    1    2    0    0  0.24698732986E+02  0.27314938343E+02 -0.21705284493E+02  0.42746375785E+02  0.00000000000E+00 0.  1.
         11    1    1    2    0    0  0.34954038193E+02 -0.33259013825E+02  0.50047131005E+02  0.69517351133E+02  0.00000000000E+00 0. -1.
</event>
<event>
 7    1  0.2719869E-009  0.1104240E+03  0.7561462E-02  0.1259787E+00
         -1   -1    0    0    0  501 -0.00000000000E+00  0.00000000000E+00  0.29426612837E+03  0.29426612837E+03  0.00000000000E+00 0.  1.
          1   -1    0    0  501    0  0.00000000000E+00 -0.00000000000E+00 -0.65278135053E+02  0.65278135053E+02  0.00000000000E+00 0. -1.
         25    2    1    2    0    0  0.56888970716E+02  0.36602090710E+02  0.19465787441E+03  0.24107059159E+03  0.12508906439E+03 0.  0.
          5    1    3    3  502    0  0.48795712646E+02 -0.35425806041E+02  0.47132725013E+02  0.76648388590E+02  0.41800000000E+01 0. -1.
         -5    1    3    3    0  502  0.80932580707E+01  0.72027896751E+02  0.14752514940E+03  0.16442220300E+03  0.41800000000E+01 0. -1.
        -11    1    1    2    0    0 -0.61083016229E+02 -0.11255818851E+02 -0.14063317931E+02  0.63683634011E+02  0.00000000000E+00 0. -1.
         11    1    1    2    0    0  0.41940455125E+01 -0.25346271859E+02  0.48393436845E+02  0.54790037822E+02  0.00000000000E+00 0.  1.
</event>
<event>
 7    1  0.2719869E-009  0.1036780E+03  0.7561462E-02  0.1272746E+00
         -2   -1    0    0    0  501 -0.00000000000E+00  0.00000000000E+00  0.30492603849E+02  0.30492603849E+02  0.00000000000E+00 0.  1.
          2   -1    0    0  501    0  0.00000000000E+00 -0.00000000000E+00 -0.72821135797E+03  0.72821135797E+03  0.00000000000E+00 0. -1.
         25    2    1    2    0    0  0.28485921858E+02 -0.22706653756E+02 -0.62139094518E+03  0.63490185952E+03  0.12508646853E+03 0.  0.
          5    1    3    3  502    0  0.60077316495E+02 -0.57363132170E+02 -0.38993367004E+03  0.39870484361E+03  0.41800000000E+01 0.  1.
         -5    1    3    3    0  502 -0.31591394637E+02  0.34656478414E+02 -0.23145727514E+03  0.23619701591E+03  0.41800000000E+01 0.  1.
        -11    1    1    2    0    0 -0.47061972466E+02 -0.89467817620E+00 -0.61542303981E+01  0.47471088604E+02  0.00000000000E+00 0.  1.
         11    1    1    2    0    0  0.18576050608E+02  0.23601331932E+02 -0.70173578542E+02  0.76331013687E+02  0.00000000000E+00 0. -1.
</event>
<event>
 7    1  0.4319687E-009  0.8855860E+02  0.7561462E-02  0.1306380E+00
          2   -1    0    0  501    0  0.00000000000E+00  0.00000000000E+00  0.11403877327E+04  0.11403877327E+04  0.00000000000E+00 0. -1.
         -2   -1    0    0    0  501 -0.00000000000E+00 -0.00000000000E+00 -0.13037009440E+02  0.13037009440E+02  0.00000000000E+00 0.  1.
         25    2    1    2    0    0  0.30864318271E+02  0.10043899845E+02  0.84873080520E+03  0.85851386417E+03  0.12509432122E+03 0.  0.
          5    1    3    3  502    0 -0.30940550167E+02 -0.79251802835E+01  0.69317864742E+02  0.76436672478E+02  0.41800000000E+01 0. -1.
         -5    1    3    3    0  502  0.61804868438E+02  0.17969080129E+02  0.77941294046E+03  0.78207719169E+03  0.41800000000E+01 0. -1.
        -11    1    1    2    0    0  0.49167338422E+01  0.27854458737E+02  0.31419960989E+02  0.42275987176E+02  0.00000000000E+00 0.  1.
         11    1    1    2    0    0 -0.35781052113E+02 -0.37898358582E+02  0.24719995710E+03  0.25263489083E+03  0.00000000000E+00 0. -1.
</event>
<event>
 7    1  0.2719869E-009  0.1797864E+03  0.7561462E-02  0.1168010E+00
          2   -1    0    0  501    0  0.00000000000E+00  0.00000000000E+00  0.98248829039E+03  0.98248829039E+03  0.00000000000E+00 0. -1.
         -2   -1    0    0    0  501 -0.00000000000E+00 -0.00000000000E+00 -0.52227120643E+02  0.52227120643E+02  0.00000000000E+00 0.  1.
         25    2    1    2    0    0 -0.57135749824E+01  0.16401960601E+03  0.24521353038E+03  0.32048508221E+03  0.12508371734E+03 0.  0.
          5    1    3    3  502    0  0.71941645347E+01  0.21358373252E+02  0.14210397970E+03  0.14394078490E+03  0.41800000000E+01 0.  1.
         -5    1    3    3    0  502 -0.12907739517E+02  0.14266123275E+03  0.10310955068E+03  0.17654429731E+03  0.41800000000E+01 0.  1.
        -11    1    1    2    0    0 -0.39424625034E+02 -0.13263227125E+03  0.38318623468E+03  0.40740313068E+03  0.00000000000E+00 0.  1.
         11    1    1    2    0    0  0.45138200016E+02 -0.31387334751E+02  0.30186140468E+03  0.30682719814E+03  0.00000000000E+00 0. -1.
</event>
<event>
 7    1  0.2719869E-009  0.1395963E+03  0.7561462E-02  0.1213873E+00
         -2   -1    0    0    0  501 -0.00000000000E+00  0.00000000000E+00  0.15444429973E+02  0.15444429973E+02  0.00000000000E+00 0.  1.
          2   -1    0    0  501    0  0.00000000000E+00 -0.00000000000E+00 -0.13920831973E+04  0.13920831973E+04  0.00000000000E+00 0. -1.
         25    2    1    2    0    0 -0.11258400078E+02 -0.94139285488E+02 -0.89426383644E+03  0.90793255506E+03  0.12507900998E+03 0.  0.
          5    1    3    3  502    0  0.53661541051E+02 -0.26433991700E+02 -0.43992903021E+03  0.44399700554E+03  0.41800000000E+01 0. -1.
         -5    1    3    3    0  502 -0.64919941128E+02 -0.67705293788E+02 -0.45433480622E+03  0.46393554952E+03  0.41800000000E+01 0. -1.
        -11    1    1    2    0    0  0.44049503911E+02  0.76044731257E+02 -0.26997330159E+03  0.28391678978E+03  0.00000000000E+00 0.  1.
         11    1    1    2    0    0 -0.32791103833E+02  0.18094554231E+02 -0.21240162933E+03  0.21567828246E+03  0.00000000000E+00 0. -1.
</event>
<event>
 7    1  0.2719869E-009  0.1213103E+03  0.7561462E-02  0.1240951E+00
         -1   -1    0    0    0  501 -0.00000000000E+00  0.00000000000E+00  0.84585375010E+02  0.84585375010E+02  0.00000000000E+00 0.  1.
          1   -1    0    0  501    0  0.00000000000E+00 -0.00000000000E+00 -0.36264517487E+03  0.36264517487E+03  0.00000000000E+00 0. -1.
         25    2    1    2    0    0 -0.82877605084E+02  0.70007731714E+02 -0.25012989381E+03  0.29997089448E+03  0.12509114212E+03 0.  0.
          5    1    3    3  502    0 -0.80246202952E+01 -0.16976401510E+02  0.52673025241E+01  0.19945165204E+02  0.41800000000E+01 0.  1.
         -5    1    3    3    0  502 -0.74852984789E+02  0.86984133224E+02 -0.25539719633E+03  0.28002572928E+03  0.41800000000E+01 0.  1.
        -11    1    1    2    0    0  0.16827950812E+02 -0.16180584738E+02 -0.53440864971E+02  0.58317384199E+02  0.00000000000E+00 0. -1.
         11    1    1    2    0    0  0.66049654272E+02 -0.53827146975E+02  0.25510958918E+02  0.88942271198E+02  0.00000000000E+00 0.  1.
</event>
<event>
 7    1  0.2719869E-009  0.8728131E+02  0.7561462E-02  0.1309572E+00
          2   -1    0    0  501    0  0.00000000000E+00  0.00000000000E+00  0.73319482901E+03  0.73319482901E+03  0.00000000000E+00 0. -1.
         -2   -1    0    0    0  501 -0.00000000000E+00 -0.00000000000E+00 -0.18528487103E+02  0.18528487103E+02  0.00000000000E+00 0.  1.
         25    2    1    2    0    0  0.59046330533E+01 -0.14507424374E+02  0.52190323709E+03  0.53691263721E+03  0.12508741370E+03 0.  0.
          5    1    3    3  502    0  0.20976658930E+02  0.39256423598E+02  0.40314765924E+03  0.40561877985E+03  0.41800000000E+01 0. -1.
         -5    1    3    3    0  502 -0.15072025877E+02 -0.53763847973E+02  0.11875557784E+03  0.13129385737E+03  0.41800000000E+01 0. -1.
        -11    1    1    2    0    0 -0.37871990212E+02 -0.19254128214E+01  0.16525142269E+03  0.16954653508E+03  0.00000000000E+00 0. -1.
         11    1    1    2    0    0  0.31967357159E+02  0.16432837196E+02  0.27511682135E+02  0.45264143822E+02  0.00000000000E+00 0.  1.
</event>
<event>
 7    1  0.2719869E-009  0.1640008E+03  0.7561462E-02  0.1184253E+00
          2   -1    0    0  501    0  0.00000000000E+00  0.00000000000E+00  0.24656528715E+03  0.24656528715E+03  0.00000000000E+00 0. -1.
         -2   -1    0    0    0  501 -0.00000000000E+00 -0.00000000000E+00 -0.10968348978E+03  0.10968348978E+03  0.00000000000E+00 0.  1.
         25    2    1    2    0    0  0.94945852648E+02 -0.77613487124E+02  0.69667769278E+02  0.18852081505E+03  0.12509169162E+03 0.  0.
          5    1    3    3  502    0  0.11784567431E+03 -0.89839902425E+02  0.53225917068E+02  0.15750962405E+03  0.41800000000E+01 0.  1.
         -5    1    3    3    0  502 -0.22899821660E+02  0.12226415301E+02  0.16441852210E+02  0.31011191001E+02  0.41800000000E+01 0.  1.
        -11    1    1    2    0    0 -0.27583543672E+02  0.81448410625E+02  0.41979482069E+02  0.95692070673E+02  0.00000000000E+00 0. -1.
         11    1    1    2    0    0 -0.67362308976E+02 -0.38349235009E+01  0.25234546026E+02  0.72035891207E+02  0.00000000000E+00 0.  1.
</event>
<event>
 7    1  0.2719869E-009  0.7428690E+02  0.7561462E-02  0.1346094E+00
          1   -1    0    0  501    0  0.00000000000E+00  0.00000000000E+00  0.53694195109E+02  0.53694195109E+02  0.00000000000E+00 0. -1.
         -1   -1    0    0    0  501 -0.00000000000E+00 -0.00000000000E+00 -0.25849507759E+03  0.25849507759E+03  0.00000000000E+00 0.  1.
         25    2    1    2    0    0 -0.28994334610E+02  0.46176425862E+01 -0.16468873320E+03  0.20887830514E+03  0.12508306622E+03 0.  0.
          5    1    3    3  502    0 -0.31837787379E+02 -0.34491323157E+02 -0.86228761815E+01  0.47907436500E+02  0.41800000000E+01 0.  1.
         -5    1    3    3    0  502  0.28434527695E+01  0.39108965743E+02 -0.15606585701E+03  0.16097086864E+03  0.41800000000E+01 0.  1.
        -11    1    1    2    0    0  0.10510688183E+02  0.24990251913E+02  0.20075826779E+02  0.33734642100E+02  0.00000000000E+00 0. -1.
         11    1    1    2    0    0  0.18483646427E+02 -0.29607894499E+02 -0.60187976068E+02  0.69576325464E+02  0.00000000000E+00 0.  1.
</event>
<event>
 7    1  0.2719869E-009  0.8983090E+02  0.7561462E-02  0.1303262E+00
          4   -1    0    0  501    0  0.00000000000E+00  0.00000000000E+00  0.47341185659E+02  0.47341185659E+02  0.00000000000E+00 0. -1.
         -4   -1    0    0    0  501 -0.00000000000E+00 -0.00000000000E+00 -0.38230174738E+03  0.38230174738E+03  0.00000000000E+00 0.  1.
         25    2    1    2    0    0 -0.55353968864E+02  0.52210749020E+02 -0.14912591059E+03  0.20899232560E+03  0.12509688553E+03 0.  0.
          5    1    3    3  502    0 -0.40449209652E+02  0.30958554298E+02  0.61765242661E+01  0.51480020374E+02  0.41800000000E+01 0. -1.
         -5    1    3    3    0  502 -0.14904759213E+02  0.21252194722E+02 -0.15530243485E+03  0.15751230523E+03  0.41800000000E+01 0. -1.
        -11    1    1    2    0    0  0.16723693358E+02 -0.60485468333E+02 -0.53242090629E+02  0.82297594215E+02  0.00000000000E+00 0. -1.
         11    1    1    2    0    0  0.38630275507E+02  0.82747193135E+01 -0.13259256050E+03  0.13835301322E+03  0.00000000000E+00 0.  1.
</event>
<event>
 7    1  0.2719869E-009  0.1275375E+03  0.7561462E-02  0.1231156E+00
          1   -1    0    0  501    0  0.00000000000E+00  0.00000000000E+00  0.24955533401E+03  0.24955533401E+03  0.00000000000E+00 0. -1.
         -1   -1    0    0    0  501 -0.00000000000E+00 -0.00000000000E+00 -0.78002023886E+02  0.78002023886E+02  0.00000000000E+00 0.  1.
         25    2    1    2    0    0 -0.80177273379E+02  0.36152283274E+02  0.92691539669E+02  0.17881422617E+03  0.12508966065E+03 0.  0.
          5    1    3    3  502    0  0.23299445701E+02 -0.36587101504E+01 -0.11536911370E+02  0.26586144021E+02  0.41800000000E+01 0.  1.
         -5    1    3    3    0  502 -0.10347671908E+03  0.39810993424E+02  0.10422845104E+03  0.15222808215E+03  0.41800000000E+01 0.  1.
        -11    1    1    2    0    0  0.96548756719E+02 -0.23198980380E+02  0.45124231802E+02  0.10906902131E+03  0.00000000000E+00 0.  1.
         11    1    1    2    0    0 -0.16371483340E+02 -0.12953302894E+02  0.33737538655E+02  0.39674110413E+02  0.00000000000E+00 0. -1.
</event>
<event>
 7    1  0.2719869E-009  0.8477644E+02  0.7561462E-02  0.1316018E+00
         -2   -1    0    0    0  501 -0.00000000000E+00  0.00000000000E+00  0.26312256681E+02  0.26312256681E+02  0.00000000000E+00 0. -1.
          2   -1    0    0  501    0  0.00000000000E+00 -0.00000000000E+00 -0.62807149942E+03  0.62807149942E+03  0.00000000000E+00 0.  1.
         25    2    1    2    0    0 -0.10253437018E+02 -0.57920229230E+02 -0.24589582021E+03  0.28208615100E+03  0.12509179135E+03 0.  0.
          5    1    3    3  502    0 -0.48645686289E+01 -0.46569170133E+02 -0.12944059153E+02  0.48758309058E+02  0.41800000000E+01 0.  1.
         -5    1    3    3    0  502 -0.53888683889E+01 -0.11351059097E+02 -0.23295176106E+03  0.23332784194E+03  0.41800000000E+01 0.  1.
        -11    1    1    2    0    0 -0.37002032098E+01  0.81671344525E+02 -0.25944622615E+03  0.27202250694E+03  0.00000000000E+00 0. -1.
         11    1    1    2    0    0  0.13953640228E+02 -0.23751115296E+02 -0.96417196381E+02  0.10027509816E+03  0.00000000000E+00 0.  1.
</event>
<event>
 7    1  0.2719869E-009  0.1981105E+03  0.7561462E-02  0.1151343E+00
          1   -1    0    0  501    0  0.00000000000E+00  0.00000000000E+00  0.60813629655E+03  0.60813629655E+03  0.00000000000E+00 0. -1.
         -1   -1    0    0    0  501 -0.00000000000E+00 -0.00000000000E+00 -0.79559708029E+02  0.79559708029E+02  0.00000000000E+00 0.  1.
         25    2    1    2    0    0 -0.15079522645E+03  0.82407074160E+02  0.19077624763E+03  0.28561030767E+03  0.12509014747E+03 0.  0.
          5    1    3    3  502    0 -0.14745009472E+03  0.20953515780E+02  0.11697133204E+03  0.18942107901E+03  0.41800000000E+01 0. -1.
         -5    1    3    3    0  502 -0.33451317361E+01  0.61453558380E+02  0.73804915590E+02  0.96189228654E+02  0.41800000000E+01 0. -1.
        -11    1    1    2    0    0  0.11766292841E+03 -0.93834031908E+02  0.33460580512E+03  0.36689294772E+03  0.00000000000E+00 0. -1.
         11    1    1    2    0    0  0.33132298043E+02  0.11426957748E+02  0.31945357753E+01  0.35192749194E+02  0.00000000000E+00 0.  1.
</event>
<event>
 7    1  0.2719869E-009  0.1017645E+03  0.7561462E-02  0.1276629E+00
         -2   -1    0    0    0  501 -0.00000000000E+00  0.00000000000E+00  0.34074015152E+02  0.34074015152E+02  0.00000000000E+00 0. -1.
          2   -1    0    0  501    0  0.00000000000E+00 -0.00000000000E+00 -0.67348840289E+03  0.67348840289E+03  0.00000000000E+00 0.  1.
         25    2    1    2    0    0 -0.48741728342E+02  0.29998558198E+02 -0.13667922723E+03  0.19391759070E+03  0.12508857362E+03 0.  0.
          5    1    3    3  502    0 -0.68297408641E+02  0.86381353325E+01 -0.14741436067E+03  0.16275017524E+03  0.41800000000E+01 0.  1.
         -5    1    3    3    0  502  0.19555680299E+02  0.21360422866E+02  0.10735133433E+02  0.31167415465E+02  0.41800000000E+01 0.  1.
        -11    1    1    2    0    0  0.59638106738E+02 -0.53040240520E+02 -0.38009422009E+03  0.38838329912E+03  0.00000000000E+00 0.  1.
         11    1    1    2    0    0 -0.10896378396E+02  0.23041682322E+02 -0.12264094041E+03  0.12526152822E+03  0.00000000000E+00 0. -1.
</event>
<event>
 7    1  0.2719869E-009  0.1160954E+03  0.7561462E-02  0.1249681E+00
         -3   -1    0    0    0  501 -0.00000000000E+00  0.00000000000E+00  0.62510837698E+02  0.62510837698E+02  0.00000000000E+00 0.  1.
          3   -1    0    0  501    0  0.00000000000E+00 -0.00000000000E+00 -0.29610349532E+03  0.29610349532E+03  0.00000000000E+00 0. -1.
         25    2    1    2    0    0 -0.55280153886E+02 -0.60902683887E+02 -0.14064485159E+03  0.20541543569E+03  0.12509794013E+03 0.  0.
          5    1    3    3  502    0  0.17165377208E+02 -0.68597258165E+02 -0.40797441727E+02  0.81744343253E+02  0.41800000000E+01 0. -1.
         -5    1    3    3    0  502 -0.72445531093E+02  0.76945742783E+01 -0.99847409866E+02  0.12367109244E+03  0.41800000000E+01 0. -1.
        -11    1    1    2    0    0  0.20945276405E+02  0.46782529394E+02  0.19534268599E+01  0.51294498113E+02  0.00000000000E+00 0.  1.
         11    1    1    2    0    0  0.34334877481E+02  0.14120154493E+02 -0.94901232892E+02  0.10190439921E+03  0.00000000000E+00 0. -1.
</event>
<event>
 7    1  0.2719869E-009  0.8937044E+02  0.7561462E-02  0.1304383E+00
         -2   -1    0    0    0  501 -0.00000000000E+00  0.00000000000E+00  0.26400027261E+03  0.26400027261E+03  0.00000000000E+00 0.  1.
          2   -1    0    0  501    0  0.00000000000E+00 -0.00000000000E+00 -0.10412093436E+03  0.10412093436E+03  0.00000000000E+00 0. -1.
         25    2    1    2    0    0  0.47587439896E+02  0.31558421669E+02 -0.38529827487E+02  0.14280210984E+03  0.12508955414E+03 0.  0.
          5    1    3    3  502    0 -0.27031284577E+02 -0.48490997848E+01  0.25625442249E+02  0.37793383085E+02  0.41800000000E+01 0. -1.
         -5    1    3    3    0  502  0.74618724472E+02  0.36407521453E+02 -0.64155269736E+02  0.10500872676E+03  0.41800000000E+01 0. -1.
        -11    1    1    2    0    0 -0.19638757346E+02  0.64328968809E+01 -0.72258966541E+00  0.20678130675E+02  0.00000000000E+00 0. -1.
         11    1    1    2    0    0 -0.27948682550E+02 -0.37991318549E+02  0.19913175540E+03  0.20464096645E+03  0.00000000000E+00 0.  1.
</event>
<event>
 7    1  0.2719869E-009  0.1108569E+03  0.7561462E-02  0.1258991E+00
         -2   -1    0    0    0  501 -0.00000000000E+00  0.00000000000E+00  0.21900438868E+03  0.21900438868E+03  0.00000000000E+00 0.  1.
          2   -1    0    0  501    0  0.00000000000E+00 -0.00000000000E+00 -0.56988796522E+02  0.56988796522E+02  0.00000000000E+00 0. -1.
         25    2    1    2    0    0  0.23749826173E+02 -0.12316827864E+02  0.93795796292E+02  0.15862062673E+03  0.12508834210E+03 0.  0.
          5    1    3    3  502    0 -0.44047625981E+02 -0.33518511775E+02  0.30234299717E+02  0.63208142399E+02  0.41800000000E+01 0.  1.
         -5    1    3    3    0  502  0.67797452154E+02  0.21201683911E+02  0.63561496574E+02  0.95412484330E+02  0.41800000000E+01 0.  1.
        -11    1    1    2    0    0 -0.51128542389E+02 -0.17993756975E+02  0.33138780321E+02  0.63530165261E+02  0.00000000000E+00 0.  1.
         11    1    1    2    0    0  0.27378716216E+02  0.30310584839E+02  0.35081015544E+02  0.53842393209E+02  0.00000000000E+00 0. -1.
</event>
<event>
 7    1  0.2719869E-009  0.1727194E+03  0.7561462E-02  0.1175041E+00
          1   -1    0    0  501    0  0.00000000000E+00  0.00000000000E+00  0.11317670624E+04  0.11317670624E+04  0.00000000000E+00 0. -1.
         -1   -1    0    0    0  501 -0.00000000000E+00 -0.00000000000E+00 -0.34536284882E+02  0.34536284882E+02  0.00000000000E+00 0.  1.
         25    2    1    2    0    0 -0.14791336369E+03 -0.72594319845E+02  0.53194174096E+03  0.57075391548E+03  0.12509883225E+03 0.  0.
          5    1    3    3  502    0 -0.54909924666E+02 -0.63973799269E+02  0.11042386113E+03  0.13899154049E+03  0.41800000000E+01 0.  1.
         -5    1    3    3    0  502 -0.93003439022E+02 -0.86205205765E+01  0.42151787983E+03  0.43176237499E+03  0.41800000000E+01 0.  1.
        -11    1    1    2    0    0  0.80284363156E+02  0.56034312248E+02  0.18879253039E+03  0.21266885678E+03  0.00000000000E+00 0.  1.
         11    1    1    2    0    0  0.67629000533E+02  0.16560007597E+02  0.37649650618E+03  0.38288057502E+03  0.00000000000E+00 0. -1.
</event>
<event>
 7    1  0.2719869E-009  0.1914058E+03  0.7561462E-02  0.1157200E+00
         -3   -1    0    0    0  501 -0.00000000000E+00  0.00000000000E+00  0.56137479494E+02  0.56137479494E+02  0.00000000000E+00 0.  1.
          3   -1    0    0  501    0  0.00000000000E+00 -0.00000000000E+00 -0.73522293811E+03  0.73522293811E+03  0.00000000000E+00 0. -1.
         25    2    1    2    0    0  0.15157858521E+03 -0.62416811375E+02 -0.45773698503E+03  0.50203920971E+03  0.12509314443E+03 0.  0.
          5    1    3    3  502    0  0.14520521697E+03 -0.93954458148E+02 -0.40002757364E+03  0.43583428882E+03  0.41800000000E+01 0.  1.
         -5    1    3    3    0  502  0.63733682433E+01  0.31537646772E+02 -0.57709411393E+02  0.66204920890E+02  0.41800000000E+01 0.  1.
        -11    1    1    2    0    0 -0.79264521606E+02  0.68544627058E+02 -0.85273413309E+02  0.13510286933E+03  0.00000000000E+00 0. -1.
         11    1    1    2    0    0 -0.72314063605E+02 -0.61278156833E+01 -0.13607506027E+03  0.15421833856E+03  0.00000000000E+00 0.  1.
</event>
<event>
 7    1  0.2719869E-009  0.1391984E+03  0.7561462E-02  0.1214412E+00
          1   -1    0    0  501    0  0.00000000000E+00  0.00000000000E+00  0.20640540576E+03  0.20640540576E+03  0.00000000000E+00 0. -1.
         -1   -1    0    0    0  501 -0.00000000000E+00 -0.00000000000E+00 -0.10069682240E+03  0.10069682240E+03  0.00000000000E+00 0.  1.
         25    2    1    2    0    0 -0.76390412691E+02  0.60660804320E+02  0.20438922565E+02  0.15994401017E+03  0.12509639684E+03 0.  0.
          5    1    3    3  502    0 -0.11039198467E+03  0.56439161209E+02  0.14130269733E+02  0.12485554101E+03  0.41800000000E+01 0.  1.
         -5    1    3    3    0  502  0.34001571980E+02  0.42216431108E+01  0.63086528317E+01  0.35088469163E+02  0.41800000000E+01 0.  1.
        -11    1    1    2    0    0  0.46909479188E+02 -0.73882793511E+02  0.65027321941E+02  0.10903081681E+03  0.00000000000E+00 0. -1.
         11    1    1    2    0    0  0.29480933502E+02  0.13221989191E+02  0.20242338857E+02  0.38127401180E+02  0.00000000000E+00 0.  1.
</event>
<event>
 7    1  0.2719869E-009  0.1327461E+03  0.7561462E-02  0.1223437E+00
          1   -1    0    0  501    0  0.00000000000E+00  0.00000000000E+00  0.11170566357E+03  0.11170566357E+03  0.00000000000E+00 0. -1.
         -1   -1    0    0    0  501 -0.00000000000E+00 -0.00000000000E+00 -0.22629092115E+03  0.22629092115E+03  0.00000000000E+00 0.  1.
         25    2    1    2    0    0  0.44769609534E+02  0.10551647498E+03 -0.60323465741E+02  0.18006920441E+03  0.12509178001E+03 0.  0.
          5    1    3    3  502    0 -0.19916151459E+02  0.12590617096E+02 -0.62314644511E+02  0.66751509708E+02  0.41800000000E+01 0.  1.
         -5    1    3    3    0  502  0.64685760994E+02  0.92925857888E+02  0.19911787691E+01  0.11331769470E+03  0.41800000000E+01 0.  1.
        -11    1    1    2    0    0 -0.69450610525E+00 -0.74178181791E+02  0.89714162846E+01  0.74721959977E+02  0.00000000000E+00 0. -1.
         11    1    1    2    0    0 -0.44075103429E+02 -0.31338293192E+02 -0.63233208128E+02  0.83205420332E+02  0.00000000000E+00 0.  1.
</event>
<event>
 7    1  0.2719869E-009  0.1357077E+03  0.7561462E-02  0.1219224E+00
          2   -1    0    0  501    0  0.00000000000E+00  0.00000000000E+00  0.94375727197E+03  0.94375727197E+03  0.00000000000E+00 0.  1.
         -2   -1    0    0    0  501 -0.00000000000E+00 -0.00000000000E+00 -0.22498563868E+02  0.22498563868E+02  0.00000000000E+00 0. -1.
         25    2    1    2    0    0  0.81086956378E+02 -0.50268069287E+02  0.43862399644E+03  0.46598296197E+03  0.12508851790E+03 0.  0.
          5    1    3    3  502    0 -0.23202551618E+02 -0.26887750079E+02  0.41861222531E+02  0.55055824921E+02  0.41800000000E+01 0. -1.
         -5    1    3    3    0  502  0.10428950800E+03 -0.23380319208E+02  0.39676277391E+03  0.41092713705E+03  0.41800000000E+01 0. -1.
        -11    1    1    2    0    0 -0.43817385020E+02 -0.20757504756E+02  0.13318632423E+03  0.14173720117E+03  0.00000000000E+00 0.  1.
         11    1    1    2    0    0 -0.37269571358E+02  0.71025574043E+02  0.34944838743E+03  0.35853567269E+03  0.00000000000E+00 0. -1.
</event>
<event>
 7    1  0.2719869E-009  0.1706324E+03  0.7561462E-02  0.1177190E+00
         -2   -1    0    0    0  501 -0.00000000000E+00  0.00000000000E+00  0.90897711180E+02  0.90897711180E+02  0.00000000000E+00 0.  1.
          2   -1    0    0  501    0  0.00000000000E+00 -0.00000000000E+00 -0.36153424239E+03  0.36153424239E+03  0.00000000000E+00 0. -1.
         25    2    1    2    0    0 -0.13609868965E+03  0.44131076641E+02 -0.17721967922E+03  0.25985580460E+03  0.12509124361E+03 0.  0.
          5    1    3    3  502    0 -0.44609466644E+02  0.71094991491E+02 -0.40981355743E+02  0.93495701761E+02  0.41800000000E+01 0.  1.
         -5    1    3    3    0  502 -0.91489223010E+02 -0.26963914850E+02 -0.13623832348E+03  0.16636010283E+03  0.41800000000E+01 0.  1.
        -11    1    1    2    0    0  0.89372592886E+02  0.10365818425E+02 -0.24932270118E+02  0.93362351320E+02  0.00000000000E+00 0.  1.
         11    1    1    2    0    0  0.46726096768E+02 -0.54496895066E+02 -0.68484581875E+02  0.99213797657E+02  0.00000000000E+00 0. -1.
</event>
<event>
 7    1  0.2719869E-009  0.4168633E+03  0.7561462E-02  0.1038092E+00
          1   -1    0    0  501    0  0.00000000000E+00  0.00000000000E+00  0.51280420387E+03  0.51280420387E+03  0.00000000000E+00 0. -1.
         -1   -1    0    0    0  501 -0.00000000000E+00 -0.00000000000E+00 -0.48651594751E+03  0.48651594751E+03  0.00000000000E+00 0.  1.
         25    2    1    2    0    0 -0.38786209017E+03 -0.13710910648E+03  0.27458381116E+03  0.51018146614E+03  0.12511175394E+03 0.  0.
          5    1    3    3  502    0 -0.37627297354E+03 -0.12115944416E+03  0.28514515575E+03  0.48742814216E+03  0.41800000000E+01 0. -1.
         -5    1    3    3    0  502 -0.11589116629E+02 -0.15949662313E+02 -0.10561344596E+02  0.22753323973E+02  0.41800000000E+01 0. -1.
        -11    1    1    2    0    0  0.19956010265E+03  0.30534303000E+02 -0.89937522201E+02  0.22100981003E+03  0.00000000000E+00 0.  1.
         11    1    1    2    0    0  0.18830198752E+03  0.10657480348E+03 -0.15835803260E+03  0.26812887522E+03  0.00000000000E+00 0. -1.
</event>
<event>
 7    1  0.2719869E-009  0.9021739E+02  0.7561462E-02  0.1302326E+00
          4   -1    0    0  501    0  0.00000000000E+00  0.00000000000E+00  0.32902334636E+02  0.32902334636E+02  0.00000000000E+00 0.  1.
         -4   -1    0    0    0  501 -0.00000000000E+00 -0.00000000000E+00 -0.38972028896E+03  0.38972028896E+03  0.00000000000E+00 0. -1.
         25    2    1    2    0    0  0.22351120397E+02 -0.21493540322E+02 -0.18834886303E+03  0.22821958173E+03  0.12508932177E+03 0.  0.
          5    1    3    3  502    0  0.55059517146E+02 -0.29943872727E+02 -0.36599615920E+02  0.72699313805E+02  0.41800000000E+01 0.  1.
         -5    1    3    3    0  502 -0.32708396749E+02  0.84503324053E+01 -0.15174924711E+03  0.15552026792E+03  0.41800000000E+01 0.  1.
        -11    1    1    2    0    0 -0.50963179140E+02  0.67966910189E+01 -0.50273325334E+02  0.71908607809E+02  0.00000000000E+00 0.  1.
         11    1    1    2    0    0  0.28612058743E+02  0.14696849303E+02 -0.11819576596E+03  0.12249443406E+03  0.00000000000E+00 0. -1.
</event>
<event>
 7    1  0.2719869E-009  0.8446100E+02  0.7561462E-02  0.1316848E+00
         -2   -1    0    0    0  501 -0.00000000000E+00  0.00000000000E+00  0.71809599564E+02  0.71809599564E+02  0.00000000000E+00 0.  1.
          2   -1    0    0  501    0  0.00000000000E+00 -0.00000000000E+00 -0.20565756084E+03  0.20565756084E+03  0.00000000000E+00 0. -1.
         25    2    1    2    0    0 -0.35718642687E+02  0.30757117092E+02 -0.44881021826E+02  0.14100964690E+03  0.12509033820E+03 0.  0.
          5    1    3    3  502    0  0.64644063665E+01 -0.37396117397E+02 -0.47208392273E+02  0.60715425117E+02  0.41800000000E+01 0. -1.
         -5    1    3    3    0  502 -0.42183049054E+02  0.68153234489E+02  0.23273704473E+01  0.80294221785E+02  0.41800000000E+01 0. -1.
        -11    1    1    2    0    0  0.13604548637E+02 -0.23595270855E+02  0.14191997902E+02  0.30712104370E+02  0.00000000000E+00 0.  1.
         11    1    1    2    0    0  0.22114094050E+02 -0.71618462365E+01 -0.10315893735E+03  0.10574540913E+03  0.00000000000E+00 0. -1.
</event>
<event>
 7    1  0.2719869E-009  0.1174209E+03  0.7561462E-02  0.1247413E+00
          3   -1    0    0  501    0  0.00000000000E+00  0.00000000000E+00  0.58429158770E+02  0.58429158770E+02  0.00000000000E+00 0. -1.
         -3   -1    0    0    0  501 -0.00000000000E+00 -0.00000000000E+00 -0.25246474971E+03  0.25246474971E+03  0.00000000000E+00 0.  1.
         25    2    1    2    0    0  0.25609443720E+02  0.29411349189E+02 -0.13562840014E+03  0.18858075516E+03  0.12508703860E+03 0.  0.
          5    1    3    3  502    0  0.73524042139E+02 -0.10022372396E+01 -0.84362756401E+02  0.11198810794E+03  0.41800000000E+01 0.  1.
         -5    1    3    3    0  502 -0.47914598419E+02  0.30413586428E+02 -0.51265643738E+02  0.76592647225E+02  0.41800000000E+01 0.  1.
        -11    1    1    2    0    0 -0.15498365359E+02 -0.65241436064E+02 -0.22881493346E+02  0.70853419439E+02  0.00000000000E+00 0.  1.
         11    1    1    2    0    0 -0.10111078360E+02  0.35830086875E+02 -0.35525697452E+02  0.51459733876E+02  0.00000000000E+00 0. -1.
</event>
<event>
 7    1  0.2719869E-009  0.1036130E+03  0.7561462E-02  0.1272877E+00
          2   -1    0    0  501    0  0.00000000000E+00  0.00000000000E+00  0.40623463138E+02  0.40623463138E+02  0.00000000000E+00 0. -1.
         -2   -1    0    0    0  501 -0.00000000000E+00 -0.00000000000E+00 -0.50327800027E+03  0.50327800027E+03  0.00000000000E+00 0.  1.
         25    2    1    2    0    0  0.73050658692E+02  0.43735838058E+02 -0.17916975141E+03  0.23451126999E+03  0.12507803030E+03 0.  0.
          5    1    3    3  502    0  0.52843768891E+02 -0.27518326272E+01 -0.52873676367E+01  0.53342901589E+02  0.41800000000E+01 0. -1.
         -5    1    3    3    0  502  0.20206889801E+02  0.46487670685E+02 -0.17388238377E+03  0.18116836840E+03  0.41800000000E+01 0. -1.
        -11    1    1    2    0    0 -0.56263975947E+02  0.18560674611E+00 -0.23580923928E+03  0.24242868388E+03  0.00000000000E+00 0.  1.
         11    1    1    2    0    0 -0.16786682745E+02 -0.43921444804E+02 -0.47675546443E+02  0.66961509540E+02  0.00000000000E+00 0. -1.
</event>
<event>
 7    1  0.2719869E-009  0.1170640E+03  0.7561462E-02  0.1248021E+00
          1   -1    0    0  501    0  0.00000000000E+00  0.00000000000E+00  0.74424324797E+03  0.74424324797E+03  0.00000000000E+00 0. -1.
         -1   -1    0    0    0  501 -0.00000000000E+00 -0.00000000000E+00 -0.19906998994E+02  0.19906998994E+02  0.00000000000E+00 0.  1.
         25    2    1    2    0    0  0.10768541447E+02  0.49980085588E+02  0.37953740917E+03  0.40287789354E+03  0.12509189304E+03 0.  0.
          5    1    3    3  502    0  0.25489518418E+02 -0.35211279983E+02  0.18277235538E+03  0.18791688609E+03  0.41800000000E+01 0.  1.
         -5    1    3    3    0  502 -0.14720976971E+02  0.85191365571E+02  0.19676505379E+03  0.21496100745E+03  0.41800000000E+01 0.  1.
        -11    1    1    2    0    0  0.22743648621E+02  0.17409009981E+02  0.14425866882E+03  0.14707450735E+03  0.00000000000E+00 0. -1.
         11    1    1    2    0    0 -0.33512190068E+02 -0.67389095570E+02  0.20054017099E+03  0.21419784608E+03  0.00000000000E+00 0.  1.
</event>
<event>
 7    1  0.2719869E-009  0.1312735E+03  0.7561462E-02  0.1225578E+00
          2   -1    0    0  501    0  0.00000000000E+00  0.00000000000E+00  0.79786506838E+02  0.79786506838E+02  0.00000000000E+00 0. -1.
         -2   -1    0    0    0  501 -0.00000000000E+00 -0.00000000000E+00 -0.45305167834E+03  0.45305167834E+03  0.00000000000E+00 0.  1.
         25    2    1    2    0    0 -0.22035804160E+02  0.96215070887E+02 -0.36811117015E+03  0.40111934274E+03  0.12509187426E+03 0.  0.
          5    1    3    3  502    0 -0.65009213346E+02  0.16606613294E+02 -0.12971280578E+03  0.14609880837E+03  0.41800000000E+01 0. -1.
         -5    1    3    3    0  502  0.42973409186E+02  0.79608457593E+02 -0.23839836437E+03  0.25502053437E+03  0.41800000000E+01 0. -1.
        -11    1    1    2    0    0 -0.95795953099E+01 -0.27414036130E+02 -0.39129665388E+02  0.48728110333E+02  0.00000000000E+00 0.  1.
         11    1    1    2    0    0  0.31615399470E+02 -0.68801034757E+02  0.33975664038E+02  0.82990732097E+02  0.00000000000E+00 0. -1.
</event>
<event>
 7    1  0.2719869E-009  0.9702248E+02  0.7561462E-02  0.1286685E+00
          1   -1    0    0  501    0  0.00000000000E+00  0.00000000000E+00  0.61953039125E+02  0.61953039125E+02  0.00000000000E+00 0. -1.
         -1   -1    0    0    0  501 -0.00000000000E+00 -0.00000000000E+00 -0.25964883301E+03  0.25964883301E+03  0.00000000000E+00 0.  1.
         25    2    1    2    0    0  0.56370482015E+02  0.38520818088E+01 -0.14653957576E+03  0.20078635040E+03  0.12509532951E+03 0.  0.
          5    1    3    3  502    0  0.15310233398E+02 -0.55280076133E+02 -0.98748624358E+02  0.11427621483E+03  0.41800000000E+01 0.  1.
         -5    1    3    3    0  502  0.41060248617E+02  0.59132157942E+02 -0.47790951405E+02  0.86510135565E+02  0.41800000000E+01 0.  1.
        -11    1    1    2    0    0 -0.10241850211E+02  0.11877859530E+02 -0.67587496858E+02  0.69383346520E+02  0.00000000000E+00 0.  1.
         11    1    1    2    0    0 -0.46128631804E+02 -0.15729941339E+02  0.16431278735E+02  0.51432175217E+02  0.00000000000E+00 0. -1.
</event>
<event>
 7    1  0.2719869E-009  0.9198657E+02  0.7561462E-02  0.1298111E+00
          2   -1    0    0  501    0  0.00000000000E+00  0.00000000000E+00  0.85006242757E+03  0.85006242757E+03  0.00000000000E+00 0. -1.
         -2   -1    0    0    0  501 -0.00000000000E+00 -0.00000000000E+00 -0.26747825955E+02  0.26747825955E+02  0.00000000000E+00 0.  1.
         25    2    1    2    0    0 -0.64970526968E+02 -0.44696937268E+02  0.64999190428E+03  0.66660033439E+03  0.12509014588E+03 0.  0.
          5    1    3    3  502    0 -0.61700350765E+02 -0.13696070363E+02  0.12012982998E+03  0.13580561137E+03  0.41800000000E+01 0. -1.
         -5    1    3    3    0  502 -0.32701762037E+01 -0.31000866906E+02  0.52986207430E+03  0.53079472302E+03  0.41800000000E+01 0. -1.
        -11    1    1    2    0    0  0.27558244321E+02  0.43811636377E+02  0.25452851934E+02  0.57678106623E+02  0.00000000000E+00 0.  1.
         11    1    1    2    0    0  0.37412282647E+02  0.88530089146E+00  0.14786984540E+03  0.15253181251E+03  0.00000000000E+00 0. -1.
</event>
<event>
 7    1  0.2719869E-009  0.1338049E+03  0.7561462E-02  0.1221917E+00
          1   -1    0    0  501    0  0.00000000000E+00  0.00000000000E+00  0.89348704875E+02  0.89348704875E+02  0.00000000000E+00 0. -1.
         -1   -1    0    0    0  501 -0.00000000000E+00 -0.00000000000E+00 -0.25472539868E+03  0.25472539868E+03  0.00000000000E+00 0.  1.
         25    2    1    2    0    0 -0.79831536555E+02  0.53750580986E+02 -0.44326545783E+02  0.16393420858E+03  0.12508949954E+03 0.  0.
          5    1    3    3  502    0 -0.45018559823E+02 -0.24089950216E+02  0.22069934577E+02  0.55781276807E+02  0.41800000000E+01 0. -1.
         -5    1    3    3    0  502 -0.34812976732E+02  0.77840531201E+02 -0.66396480360E+02  0.10815293177E+03  0.41800000000E+01 0. -1.
        -11    1    1    2    0    0  0.24610537724E+02  0.24832672865E+02 -0.48428078397E+02  0.59729548683E+02  0.00000000000E+00 0.  1.
         11    1    1    2    0    0  0.55220998831E+02 -0.78583253850E+02 -0.72622069620E+02  0.12041034629E+03  0.00000000000E+00 0. -1.
</event>
<event>
 7    1  0.2719869E-009  0.1267867E+03  0.7561462E-02  0.1232303E+00
         -1   -1    0    0    0  501 -0.00000000000E+00  0.00000000000E+00  0.39914948259E+02  0.39914948259E+02  0.00000000000E+00 0.  1.
          1   -1    0    0  501    0  0.00000000000E+00 -0.00000000000E+00 -0.49695090670E+03  0.49695090670E+03  0.00000000000E+00 0. -1.
         25    2    1    2    0    0 -0.52431767441E+02 -0.96473478074E+01 -0.35394737249E+03  0.37916704602E+03  0.12508694869E+03 0.  0.
          5    1    3    3  502    0  0.59625720855E+01 -0.58871695630E+02 -0.16393658301E+03  0.17433905030E+03  0.41800000000E+01 0.  1.
         -5    1    3    3    0  502 -0.58394339527E+02  0.49224347823E+02 -0.19001078949E+03  0.20482799571E+03  0.41800000000E+01 0.  1.
        -11    1    1    2    0    0  0.13540074110E+02  0.55795187333E+02 -0.37535627628E+02  0.68595625793E+02  0.00000000000E+00 0.  1.
         11    1    1    2    0    0  0.38891693331E+02 -0.46147839525E+02 -0.65552958317E+02  0.89103183148E+02  0.00000000000E+00 0. -1.
</event>
<event>
 7    1  0.2719869E-009  0.1400645E+03  0.7561462E-02  0.1213242E+00
          1   -1    0    0  501    0  0.00000000000E+00  0.00000000000E+00  0.43082976548E+03  0.43082976548E+03  0.00000000000E+00 0. -1.
         -1   -1    0    0    0  501 -0.00000000000E+00 -0.00000000000E+00 -0.47190053131E+02  0.47190053131E+02  0.00000000000E+00 0.  1.
         25    2    1    2    0    0 -0.77490127624E+02  0.44286931659E+02  0.24874429361E+03  0.29238272824E+03  0.12509150240E+03 0.  0.
          5    1    3    3  502    0 -0.10909382221E+03  0.50260881814E+02  0.18092914585E+03  0.21721060403E+03  0.41800000000E+01 0. -1.
         -5    1    3    3    0  502  0.31603694588E+02 -0.59739501550E+01  0.67815147754E+02  0.75172124202E+02  0.41800000000E+01 0. -1.
        -11    1    1    2    0    0  0.34507756528E+02 -0.69557440005E+02  0.80369434422E+02  0.11175092264E+03  0.00000000000E+00 0. -1.
         11    1    1    2    0    0  0.42982371096E+02  0.25270508347E+02  0.54525984316E+02  0.73886167736E+02  0.00000000000E+00 0.  1.
</event>
<event>
 7    1  0.2719869E-009  0.1494857E+03  0.7561462E-02  0.1201106E+00
         -1   -1    0    0    0  501 -0.00000000000E+00  0.00000000000E+00  0.12171490953E+03  0.12171490953E+03  0.00000000000E+00 0.  1.
          1   -1    0    0  501    0  0.00000000000E+00 -0.00000000000E+00 -0.20759344172E+03  0.20759344172E+03  0.00000000000E+00 0. -1.
         25    2    1    2    0    0 -0.47609692835E+01  0.11248506276E+03 -0.29736254296E+02  0.17088471715E+03  0.12506712423E+03 0.  0.
          5    1    3    3  502    0 -0.29390862621E+02 -0.11350924768E+02  0.17173526278E+02  0.36125734644E+02  0.41800000000E+01 0. -1.
         -5    1    3    3    0  502  0.24629893338E+02  0.12383598753E+03 -0.46909780575E+02  0.13475898251E+03  0.41800000000E+01 0. -1.
        -11    1    1    2    0    0 -0.38483574461E+02 -0.71902560575E+02 -0.78250573701E+01  0.81927988157E+02  0.00000000000E+00 0.  1.
         11    1    1    2    0    0  0.43244543745E+02 -0.40582502187E+02 -0.48317220524E+02  0.76495645932E+02  0.00000000000E+00 0. -1.
</event>
<event>
 7    1  0.2719869E-009  0.9130655E+02  0.7561462E-02  0.1299718E+00
          1   -1    0    0  501    0  0.00000000000E+00  0.00000000000E+00  0.11278416684E+04  0.11278416684E+04  0.00000000000E+00 0. -1.
         -1   -1    0    0    0  501 -0.00000000000E+00 -0.00000000000E+00 -0.15323783470E+02  0.15323783470E+02  0.00000000000E+00 0.  1.
         25    2    1    2    0    0 -0.46879455240E+02  0.19276029197E+01  0.87897278427E+03  0.88906741675E+03  0.12508523918E+03 0.  0.
          5    1    3    3  502    0 -0.58108184894E+02  0.21489407276E+02  0.84927333078E+03  0.85154037987E+03  0.41800000000E+01 0. -1.
         -5    1    3    3    0  502  0.11228729654E+02 -0.19561804356E+02  0.29699453493E+02  0.37527036882E+02  0.41800000000E+01 0. -1.
        -11    1    1    2    0    0  0.67693915956E+02 -0.19382021186E+02  0.19156009486E+03  0.20409164350E+03  0.00000000000E+00 0. -1.
         11    1    1    2    0    0 -0.20814460717E+02  0.17454418266E+02  0.41985005851E+02  0.50006391674E+02  0.00000000000E+00 0.  1.
</event>
<event>
 7    1  0.2719869E-009  0.1036383E+03  0.7561462E-02  0.1272826E+00
         -2   -1    0    0    0  501 -0.00000000000E+00  0.00000000000E+00  0.90542739259E+02  0.90542739259E+02  0.00000000000E+00 0.  1.
          2   -1    0    0  501    0  0.00000000000E+00 -0.00000000000E+00 -0.23689929947E+03  0.23689929947E+03  0.00000000000E+00 0. -1.
         25    2    1    2    0    0 -0.47856986565E+02  0.68453541554E+02 -0.21559928590E+02  0.15195220996E+03  0.12509382510E+03 0.  0.
          5    1    3    3  502    0 -0.25954567846E+02  0.28793826322E+02  0.52281384735E+02  0.65219166019E+02  0.41800000000E+01 0.  1.
         -5    1    3    3    0  502 -0.21902418719E+02  0.39659715232E+02 -0.73841313326E+02  0.86733043943E+02  0.41800000000E+01 0.  1.
        -11    1    1    2    0    0  0.25896134493E+02 -0.89014566718E+02 -0.86527745261E+02  0.12681188260E+03  0.00000000000E+00 0.  1.
         11    1    1    2    0    0  0.21960852071E+02  0.20561025163E+02 -0.38268886365E+02  0.48677946167E+02  0.00000000000E+00 0. -1.
</event>
<event>
 7    1  0.2719869E-009  0.1074983E+03  0.7561462E-02  0.1265274E+00
          2   -1    0    0  501    0  0.00000000000E+00  0.00000000000E+00  0.13523668662E+04  0.13523668662E+04  0.00000000000E+00 0.  1.
         -2   -1    0    0    0  501 -0.00000000000E+00 -0.00000000000E+00 -0.10551096363E+02  0.10551096363E+02  0.00000000000E+00 0. -1.
         25    2    1    2    0    0 -0.38468865749E+02 -0.25775178469E+02  0.87214100278E+03  0.88228152596E+03  0.12508616573E+03 0.  0.
          5    1    3    3  502    0 -0.11382146242E+02  0.40921979755E+02  0.57239527996E+03  0.57398431215E+03  0.41800000000E+01 0. -1.
         -5    1    3    3    0  502 -0.27086719507E+02 -0.66697158223E+02  0.29974572282E+03  0.30829721380E+03  0.41800000000E+01 0. -1.
        -11    1    1    2    0    0  0.22881425224E+02  0.59123030544E+02  0.25084306645E+03  0.25873023857E+03  0.00000000000E+00 0. -1.
         11    1    1    2    0    0  0.15587440525E+02 -0.33347852075E+02  0.21883170065E+03  0.22190619809E+03  0.00000000000E+00 0.  1.
</event>
<event>
 7    1  0.3066868E-009  0.1067629E+03  0.7561462E-02  0.1266685E+00
          2   -1    0    0  501    0  0.00000000000E+00  0.00000000000E+00  0.30320923518E+03  0.30320923518E+03  0.00000000000E+00 0. -1.
         -2   -1    0    0    0  501 -0.00000000000E+00 -0.00000000000E+00 -0.58476561843E+02  0.58476561843E+02  0.00000000000E+00 0.  1.
         25    2    1    2    0    0 -0.53104419858E+02 -0.44613630161E+02  0.17966244465E+03  0.22963811310E+03  0.12507842966E+03 0.  0.
          5    1    3    3  502    0  0.19849939642E+02 -0.43942386869E+01  0.13189405317E+03  0.13351720151E+03  0.41800000000E+01 0.  1.
         -5    1    3    3    0  502 -0.72954359501E+02 -0.40219391474E+02  0.47768391486E+02  0.96120911595E+02  0.41800000000E+01 0.  1.
        -11    1    1    2    0    0  0.26103091266E+02  0.68502175314E+02  0.23410321599E+02  0.76954288729E+02  0.00000000000E+00 0.  1.
         11    1    1    2    0    0  0.27001328593E+02 -0.23888545153E+02  0.41659907080E+02  0.55093395187E+02  0.00000000000E+00 0. -1.
</event>
<event>
 7    1  0.2719869E-009  0.2460178E+03  0.7561462E-02  0.1115848E+00
          1   -1    0    0  501    0  0.00000000000E+00  0.00000000000E+00  0.17705128622E+03  0.17705128622E+03  0.00000000000E+00 0. -1.
         -1   -1    0    0    0  501 -0.00000000000E+00 -0.00000000000E+00 -0.62649365782E+03  0.62649365782E+03  0.00000000000E+00 0.  1.
         25    2    1    2    0    0  0.68152206918E+02 -0.21887739966E+03  0.31255409483E+02  0.26301292454E+03  0.12508740328E+03 0.  0.
          5    1    3    3  502    0 -0.32134005295E+02 -0.87702699819E+02  0.28765564047E+02  0.97822737269E+02  0.41800000000E+01 0.  1.
         -5    1    3    3    0  502  0.10028621221E+03 -0.13117469984E+03  0.24898454359E+01  0.16519018727E+03  0.41800000000E+01 0.  1.
        -11    1    1    2    0    0 -0.22856105077E+02  0.14439067888E+03 -0.20797002279E+03  0.25420975604E+03  0.00000000000E+00 0. -1.
         11    1    1    2    0    0 -0.45296101841E+02  0.74486720780E+02 -0.27272775829E+03  0.28632226347E+03  0.00000000000E+00 0.  1.
</event>
<event>
 7    1  0.2719869E-009  0.6461868E+02  0.7561462E-02  0.1379412E+00
          2   -1    0    0  501    0  0.00000000000E+00  0.00000000000E+00  0.29954251109E+03  0.29954251109E+03  0.00000000000E+00 0. -1.
         -2   -1    0    0    0  501 -0.00000000000E+00 -0.00000000000E+00 -0.43153498228E+02  0.43153498228E+02  0.00000000000E+00 0.  1.
         25    2    1    2    0    0  0.18070074947E+02 -0.23250116779E+02  0.11354905103E+03  0.17148692359E+03  0.12508909798E+03 0.  0.
          5    1    3    3  502    0 -0.23841434047E+02 -0.69707272856E+01 -0.18939306399E+02  0.31514675045E+02  0.41800000000E+01 0. -1.
         -5    1    3    3    0  502  0.41911508995E+02 -0.16279389494E+02  0.13248835743E+03  0.13997224855E+03  0.41800000000E+01 0. -1.
        -11    1    1    2    0    0 -0.27148145031E+02 -0.63928065525E+01  0.30895328084E+01  0.28061271661E+02  0.00000000000E+00 0.  1.
         11    1    1    2    0    0  0.90780700837E+01  0.29642923332E+02  0.13975042902E+03  0.14314781406E+03  0.00000000000E+00 0. -1.
</event>
<event>
 7    1  0.2719869E-009  0.1925216E+03  0.7561462E-02  0.1156206E+00
         -3   -1    0    0    0  501 -0.00000000000E+00  0.00000000000E+00  0.86606620800E+03  0.86606620800E+03  0.00000000000E+00 0.  1.
          3   -1    0    0  501    0  0.00000000000E+00 -0.00000000000E+00 -0.49872634316E+02  0.49872634316E+02  0.00000000000E+00 0. -1.
         25    2    1    2    0    0 -0.14800561613E+03 -0.93244562526E+02  0.36645335750E+03  0.42489593350E+03  0.12509308627E+03 0.  0.
          5    1    3    3  502    0 -0.15234997798E+02  0.25380819042E+02  0.21974128544E+02  0.37102909029E+02  0.41800000000E+01 0.  1.
         -5    1    3    3    0  502 -0.13277061833E+03 -0.11862538157E+03  0.34447922896E+03  0.38779302447E+03  0.41800000000E+01 0.  1.
        -11    1    1    2    0    0  0.97570117615E+02  0.76253372125E+02  0.39799014126E+03  0.41681009723E+03  0.00000000000E+00 0.  1.
         11    1    1    2    0    0  0.50435498513E+02  0.16991190400E+02  0.51750074917E+02  0.74232811582E+02  0.00000000000E+00 0. -1.
</event>
<event>
 7    1  0.2719869E-009  0.8376542E+02  0.7561462E-02  0.1318693E+00
         -2   -1    0    0    0  501 -0.00000000000E+00  0.00000000000E+00  0.13668794386E+02  0.13668794386E+02  0.00000000000E+00 0.  1.
          2   -1    0    0  501    0  0.00000000000E+00 -0.00000000000E+00 -0.13747937918E+04  0.13747937918E+04  0.00000000000E+00 0. -1.
         25    2    1    2    0    0 -0.24298223614E+02  0.28270960849E+02 -0.11222569745E+04  0.11298213697E+04  0.12508381076E+03 0.  0.
          5    1    3    3  502    0 -0.70813029905E+01  0.48767986696E+02 -0.10683022679E+04  0.10694464313E+04  0.41800000000E+01 0.  1.
         -5    1    3    3    0  502 -0.17216920624E+02 -0.20497025847E+02 -0.53954706578E+02  0.60374938395E+02  0.41800000000E+01 0.  1.
        -11    1    1    2    0    0  0.53675546789E+02 -0.30114850116E+02 -0.20362370665E+03  0.21272184286E+03  0.00000000000E+00 0.  1.
         11    1    1    2    0    0 -0.29377323175E+02  0.18438892667E+01 -0.35244316232E+02  0.45919373593E+02  0.00000000000E+00 0. -1.
</event>
<event>
 7    1  0.2719869E-009  0.1266666E+03  0.7561462E-02  0.1232487E+00
         -1   -1    0    0    0  501 -0.00000000000E+00  0.00000000000E+00  0.10735697150E+02  0.10735697150E+02  0.00000000000E+00 0.  1.
          1   -1    0    0  501    0  0.00000000000E+00 -0.00000000000E+00 -0.19728261044E+04  0.19728261044E+04  0.00000000000E+00 0. -1.
         25    2    1    2    0    0 -0.76971681085E+02  0.23526160986E+02 -0.14344095698E+04  0.14421012073E+04  0.12508780149E+03 0.  0.
          5    1    3    3  502    0 -0.10000067477E+03  0.11834011399E+01 -0.13001563480E+04  0.13040036568E+04  0.41800000000E+01 0.  1.
         -5    1    3    3    0  502  0.23028993682E+02  0.22342759846E+02 -0.13425322181E+03  0.13809755042E+03  0.41800000000E+01 0.  1.
        -11    1    1    2    0    0  0.14962459437E+02  0.33466510803E+02 -0.13836361552E+03  0.14313760037E+03  0.00000000000E+00 0.  1.
         11    1    1    2    0    0  0.62009221647E+02 -0.56992671788E+02 -0.38931722192E+03  0.39832299393E+03  0.00000000000E+00 0. -1.
</event>
<event>
 7    1  0.2719869E-009  0.1231946E+03  0.7561462E-02  0.1237918E+00
         -1   -1    0    0    0  501 -0.00000000000E+00  0.00000000000E+00  0.21638675490E+03  0.21638675490E+03  0.00000000000E+00 0.  1.
          1   -1    0    0  501    0  0.00000000000E+00 -0.00000000000E+00 -0.96043228220E+02  0.96043228220E+02  0.00000000000E+00 0. -1.
         25    2    1    2    0    0 -0.29473258671E+02  0.72304440844E+02  0.13434047822E+03  0.19947818795E+03  0.12509028035E+03 0.  0.
          5    1    3    3  502    0 -0.70360302497E+02  0.67052414249E+02  0.59792941043E+02  0.11418960821E+03  0.41800000000E+01 0. -1.
         -5    1    3    3    0  502  0.40887043826E+02  0.52520265945E+01  0.74547537174E+02  0.85288579745E+02  0.41800000000E+01 0. -1.
        -11    1    1    2    0    0  0.33774180641E+02  0.14368094129E+01 -0.19245110484E+02  0.38899022825E+02  0.00000000000E+00 0. -1.
         11    1    1    2    0    0 -0.43009219691E+01 -0.73741250257E+02  0.52481589475E+01  0.74052772342E+02  0.00000000000E+00 0.  1.
</event>
<event>
 7    1  0.2719869E-009  0.9961489E+02  0.7561462E-02  0.1281108E+00
          2   -1    0    0  501    0  0.00000000000E+00  0.00000000000E+00  0.13451990166E+03  0.13451990166E+03  0.00000000000E+00 0. -1.
         -2   -1    0    0    0  501 -0.00000000000E+00 -0.00000000000E+00 -0.93421022789E+02  0.93421022789E+02  0.00000000000E+00 0.  1.
         25    2    1    2    0    0 -0.30889934856E+02 -0.18139606063E+01  0.27485450179E+02  0.13175818796E+03  0.12508913460E+03 0.  0.
          5    1    3    3  502    0  0.48570744942E+02 -0.36840281942E+01  0.55827017123E+01  0.49206994283E+02  0.41800000000E+01 0.  1.
         -5    1    3    3    0  502 -0.79460679798E+02  0.18700675880E+01  0.21902748467E+02  0.82551193675E+02  0.41800000000E+01 0.  1.
        -11    1    1    2    0    0 -0.15052752153E+02  0.16672440689E+02 -0.25543773107E+02  0.34015290244E+02  0.00000000000E+00 0.  1.
         11    1    1    2    0    0  0.45942687009E+02 -0.14858480082E+02  0.39157201797E+02  0.62167446245E+02  0.00000000000E+00 0. -1.
</event>
<event>
 7    1  0.2719869E-009  0.8132526E+02  0.7561462E-02  0.1325332E+00
         -1   -1    0    0    0  501 -0.00000000000E+00  0.00000000000E+00  0.19312535109E+03  0.19312535109E+03  0.00000000000E+00 0.  1.
          1   -1    0    0  501    0  0.00000000000E+00 -0.00000000000E+00 -0.76211703240E+02  0.76211703240E+02  0.00000000000E+00 0. -1.
         25    2    1    2    0    0  0.49187550141E+02 -0.18616289019E+02  0.54505573062E+02  0.14623245818E+03  0.12508834089E+03 0.  0.
          5    1    3    3  502    0  0.53038368894E+01  0.33058030550E+01  0.86947654048E+02  0.87272137386E+02  0.41800000000E+01 0.  1.
         -5    1    3    3    0  502  0.43883713251E+02 -0.21922092075E+02 -0.32442080986E+02  0.58960320796E+02  0.41800000000E+01 0.  1.
        -11    1    1    2    0    0  0.27240413178E+02  0.98664575764E+01  0.13647991200E+02  0.32025845173E+02  0.00000000000E+00 0. -1.
         11    1    1    2    0    0 -0.76427963319E+02  0.87498314431E+01  0.48760083584E+02  0.91078750972E+02  0.00000000000E+00 0.  1.
</event>
<event>
 7    1  0.2719869E-009  0.1171093E+03  0.7561462E-02  0.1247943E+00
          2   -1    0    0  501    0  0.00000000000E+00  0.00000000000E+00  0.62056972730E+03  0.62056972730E+03  0.00000000000E+00 0.  1.
         -2   -1    0    0    0  501 -0.00000000000E+00 -0.00000000000E+00 -0.30623006036E+02  0.30623006036E+02  0.00000000000E+00 0. -1.
         25    2    1    2    0    0 -0.65053822045E+02 -0.15279226249E+02  0.44767333964E+03  0.46960015699E+03  0.12508970342E+03 0.  0.
          5    1    3    3  502    0  0.31528607428E+02  0.13393428373E+02  0.18592789949E+03  0.18910339293E+03  0.41800000000E+01 0.  1.
         -5    1    3    3    0  502 -0.96582429473E+02 -0.28672654623E+02  0.26174544015E+03  0.28049676405E+03  0.41800000000E+01 0.  1.
        -11    1    1    2    0    0  0.10814689379E+01 -0.23855768502E+02  0.38899193863E+01  0.24195014750E+02  0.00000000000E+00 0. -1.
         11    1    1    2    0    0  0.63972353107E+02  0.39134994752E+02  0.13838346224E+03  0.15739756160E+03  0.00000000000E+00 0.  1.
</event>
<event>
 7    1  0.2719869E-009  0.1066556E+03  0.7561462E-02  0.1266892E+00
         -2   -1    0    0    0  501 -0.00000000000E+00  0.00000000000E+00  0.23249589131E+02  0.23249589131E+02  0.00000000000E+00 0.  1.
          2   -1    0    0  501    0  0.00000000000E+00 -0.00000000000E+00 -0.56056171009E+03  0.56056171009E+03  0.00000000000E+00 0. -1.
         25    2    1    2    0    0  0.10690691303E+02 -0.33518407735E+02 -0.32573239704E+03  0.35069491640E+03  0.12509018893E+03 0.  0.
          5    1    3    3  502    0 -0.52554856403E+00 -0.80116310589E+02 -0.17599297088E+03  0.19341638406E+03  0.41800000000E+01 0.  1.
         -5    1    3    3    0  502  0.11216239867E+02  0.46597902854E+02 -0.14973942617E+03  0.15727853234E+03  0.41800000000E+01 0.  1.
        -11    1    1    2    0    0 -0.42953047349E+02  0.76678252762E+01 -0.16574443379E+03  0.17139129836E+03  0.00000000000E+00 0. -1.
         11    1    1    2    0    0  0.32262356046E+02  0.25850582459E+02 -0.45835290131E+02  0.61725084467E+02  0.00000000000E+00 0.  1.
</event>
<event>
 7    1  0.2719869E-009  0.8539542E+02  0.7561462E-02  0.1314402E+00
          2   -1    0    0  501    0  0.00000000000E+00  0.00000000000E+00  0.32319418041E+02  0.32319418041E+02  0.00000000000E+00 0. -1.
         -2   -1    0    0    0  501 -0.00000000000E+00 -0.00000000000E+00 -0.40789108979E+03  0.40789108979E+03  0.00000000000E+00 0.  1.
         25    2    1    2    0    0 -0.18001451695E+02 -0.31896764345E+02 -0.23715318857E+03  0.27062742147E+03  0.12512438038E+03 0.  0.
          5    1    3    3  502    0 -0.95953520199E+01 -0.51977547297E+02 -0.24216466564E+03  0.24790105664E+03  0.41800000000E+01 0. -1.
         -5    1    3    3    0  502 -0.84060996749E+01  0.20080782952E+02  0.50114770700E+01  0.22726364824E+02  0.41800000000E+01 0. -1.
        -11    1    1    2    0    0  0.45251083858E+02  0.46334183372E+02 -0.10998663426E+03  0.12763846150E+03  0.00000000000E+00 0.  1.
         11    1    1    2    0    0 -0.27249632163E+02 -0.14437419026E+02 -0.28431848921E+02  0.41944624856E+02  0.00000000000E+00 0. -1.
</event>
<event>
 7    1  0.2719869E-009  0.1941017E+03  0.7561462E-02  0.1154813E+00
         -2   -1    0    0    0  501 -0.00000000000E+00  0.00000000000E+00  0.15398300854E+04  0.15398300854E+04  0.00000000000E+00 0.  1.
          2   -1    0    0  501    0  0.00000000000E+00 -0.00000000000E+00 -0.28626179440E+02  0.28626179440E+02  0.00000000000E+00 0. -1.
         25    2    1    2    0    0 -0.16435387124E+02 -0.17368676616E+03  0.94442887684E+03  0.96851994234E+03  0.12509100938E+03 0.  0.
          5    1    3    3  502    0  0.46408901879E+02 -0.12717779467E+03  0.55387100032E+03  0.57019166517E+03  0.41800000000E+01 0. -1.
         -5    1    3    3    0  502 -0.62844289003E+02 -0.46508971485E+02  0.39055787652E+03  0.39832827718E+03  0.41800000000E+01 0. -1.
        -11    1    1    2    0    0  0.15077878450E+02  0.16112777978E+03  0.56432228687E+03  0.58706826459E+03  0.00000000000E+00 0.  1.
         11    1    1    2    0    0  0.13575086737E+01  0.12558986382E+02  0.24527422118E+01  0.12868057861E+02  0.00000000000E+00 0. -1.
</event>
<event>
 7    1  0.2719869E-009  0.2392064E+03  0.7561462E-02  0.1120323E+00
         -2   -1    0    0    0  501 -0.00000000000E+00  0.00000000000E+00  0.62310445289E+02  0.62310445289E+02  0.00000000000E+00 0.  1.
          2   -1    0    0  501    0  0.00000000000E+00 -0.00000000000E+00 -0.97098897690E+03  0.97098897690E+03  0.00000000000E+00 0. -1.
         25    2    1    2    0    0 -0.99138533833E+02 -0.19121341821E+03 -0.56251388611E+03  0.61519159994E+03  0.12509121621E+03 0.  0.
          5    1    3    3  502    0 -0.76831681948E+02 -0.32364636927E+02 -0.13699829343E+03  0.16042625059E+03  0.41800000000E+01 0.  1.
         -5    1    3    3    0  502 -0.22306851885E+02 -0.15884878129E+03 -0.42551559268E+03  0.45476534935E+03  0.41800000000E+01 0.  1.
        -11    1    1    2    0    0  0.72973692305E+02  0.44551347157E+02 -0.12817055610E+03  0.15407035326E+03  0.00000000000E+00 0.  1.
         11    1    1    2    0    0  0.26164841528E+02  0.14666207106E+03 -0.21799408940E+03  0.26403746900E+03  0.00000000000E+00 0. -1.
</event>
<event>
 7    1  0.3056434E-009  0.1917616E+03  0.7561462E-02  0.1156882E+00
          1   -1    0    0  501    0  0.00000000000E+00  0.00000000000E+00  0.32751826676E+04  0.32751826676E+04  0.00000000000E+00 0. -1.
         -1   -1    0    0    0  501 -0.00000000000E+00 -0.00000000000E+00 -0.15422436073E+02  0.15422436073E+02  0.00000000000E+00 0.  1.
         25    2    1    2    0    0 -0.93595687288E+02  0.12716699670E+03  0.25411362223E+04  0.25491080876E+04  0.12508854625E+03 0.  0.
          5    1    3    3  502    0 -0.94471455403E+02  0.15046916671E+03  0.22267145516E+04  0.22337951993E+04  0.41800000000E+01 0.  1.
         -5    1    3    3    0  502  0.87576811453E+00 -0.23302170014E+02  0.31442167074E+03  0.31531288830E+03  0.41800000000E+01 0.  1.
        -11    1    1    2    0    0  0.49235833408E+02 -0.19508924157E+01  0.22300534339E+03  0.22838422987E+03  0.00000000000E+00 0.  1.
         11    1    1    2    0    0  0.44359853880E+02 -0.12521610428E+03  0.49561866581E+03  0.51311278615E+03  0.00000000000E+00 0. -1.
</event>
<event>
 7    1  0.2719869E-009  0.9126090E+02  0.7561462E-02  0.1299827E+00
         -2   -1    0    0    0  501 -0.00000000000E+00  0.00000000000E+00  0.92079646943E+02  0.92079646943E+02  0.00000000000E+00 0.  1.
          2   -1    0    0  501    0  0.00000000000E+00 -0.00000000000E+00 -0.15425665369E+03  0.15425665369E+03  0.00000000000E+00 0. -1.
         25    2    1    2    0    0 -0.48444643222E+02 -0.27240188224E+01 -0.23012704801E+02  0.13611682115E+03  0.12507557988E+03 0.  0.
          5    1    3    3  502    0 -0.27059875257E+02 -0.34117710330E+02 -0.65631234394E+02  0.78874497368E+02  0.41800000000E+01 0.  1.
         -5    1    3    3    0  502 -0.21384767966E+02  0.31393691508E+02  0.42618529593E+02  0.57242323783E+02  0.41800000000E+01 0.  1.
        -11    1    1    2    0    0  0.97932494388E+01 -0.41028593855E+02 -0.47418973191E+01  0.42446894332E+02  0.00000000000E+00 0.  1.
         11    1    1    2    0    0  0.38651393783E+02  0.43752612677E+02 -0.34422404629E+02  0.67772585150E+02  0.00000000000E+00 0. -1.
</event>
<event>
 7    1  0.2719869E-009  0.1415842E+03  0.7561462E-02  0.1211213E+00
         -2   -1    0    0    0  501 -0.00000000000E+00  0.00000000000E+00  0.20413348488E+03  0.20413348488E+03  0.00000000000E+00 0. -1.
          2   -1    0    0  501    0  0.00000000000E+00 -0.00000000000E+00 -0.14020329835E+03  0.14020329835E+03  0.00000000000E+00 0.  1.
         25    2    1    2    0    0 -0.10119286286E+03 -0.68242461398E+02 -0.99469812900E+01  0.17505369467E+03  0.12509126488E+03 0.  0.
          5    1    3    3  502    0 -0.11965395239E+03 -0.41081307719E+02 -0.37462060896E+02  0.13200613839E+03  0.41800000000E+01 0.  1.
         -5    1    3    3    0  502  0.18461089530E+02 -0.27161153679E+02  0.27515079606E+02  0.43047556278E+02  0.41800000000E+01 0.  1.
        -11    1    1    2    0    0  0.90802494511E+02  0.53320599416E+02  0.13421653568E+02  0.10615234390E+03  0.00000000000E+00 0.  1.
         11    1    1    2    0    0  0.10390368344E+02  0.14921861981E+02  0.60455514248E+02  0.63130744668E+02  0.00000000000E+00 0. -1.
</event>
<event>
 7    1  0.2719869E-009  0.1149602E+03  0.7561462E-02  0.1251650E+00
          1   -1    0    0  501    0  0.00000000000E+00  0.00000000000E+00  0.17457101118E+02  0.17457101118E+02  0.00000000000E+00 0. -1.
         -1   -1    0    0    0  501 -0.00000000000E+00 -0.00000000000E+00 -0.97119614219E+03  0.97119614219E+03  0.00000000000E+00 0.  1.
         25    2    1    2    0    0  0.47024813418E+02 -0.24646729276E+02 -0.65185153259E+03  0.66586514883E+03  0.12508869469E+03 0.  0.
          5    1    3    3  502    0  0.52989808677E+02  0.41241922459E+02 -0.26697393153E+03  0.27532048327E+03  0.41800000000E+01 0. -1.
         -5    1    3    3    0  502 -0.59649952592E+01 -0.65888651736E+02 -0.38487760106E+03  0.39054466555E+03  0.41800000000E+01 0. -1.
        -11    1    1    2    0    0 -0.31094350762E+02  0.54367769556E+02 -0.26707788698E+03  0.27432336891E+03  0.00000000000E+00 0.  1.
         11    1    1    2    0    0 -0.15930462656E+02 -0.29721040280E+02 -0.34809621498E+02  0.48464725570E+02  0.00000000000E+00 0. -1.
</event>
<event>
 7    1  0.2719869E-009  0.9598345E+02  0.7561462E-02  0.1288976E+00
         -2   -1    0    0    0  501 -0.00000000000E+00  0.00000000000E+00  0.47774365694E+02  0.47774365694E+02  0.00000000000E+00 0.  1.
          2   -1    0    0  501    0  0.00000000000E+00 -0.00000000000E+00 -0.28140467654E+03  0.28140467654E+03  0.00000000000E+00 0. -1.
         25    2    1    2    0    0  0.27938505243E+02 -0.35127999496E+02 -0.12804550632E+03  0.18454625168E+03  0.12508849226E+03 0.  0.
          5    1    3    3  502    0 -0.40154950174E+01 -0.74927846425E+02 -0.10309976752E+03  0.12758268234E+03  0.41800000000E+01 0.  1.
         -5    1    3    3    0  502  0.31954000261E+02  0.39799846929E+02 -0.24945738809E+02  0.56963569349E+02  0.41800000000E+01 0.  1.
        -11    1    1    2    0    0 -0.13429588093E+02  0.45712821348E+02 -0.11491049850E+03  0.12439629632E+03  0.00000000000E+00 0. -1.
         11    1    1    2    0    0 -0.14508917150E+02 -0.10584821852E+02  0.93256939810E+01  0.20236494230E+02  0.00000000000E+00 0.  1.
</event>
<event>
 7    1  0.2719869E-009  0.1007948E+03  0.7561462E-02  0.1278634E+00
          2   -1    0    0  501    0  0.00000000000E+00  0.00000000000E+00  0.44727852503E+02  0.44727852503E+02  0.00000000000E+00 0.  1.
         -2   -1    0    0    0  501 -0.00000000000E+00 -0.00000000000E+00 -0.55737291748E+03  0.55737291748E+03  0.00000000000E+00 0. -1.
         25    2    1    2    0    0 -0.41024760319E+01  0.76838053810E+02 -0.43489439531E+03  0.45902529892E+03  0.12510065212E+03 0.  0.
          5    1    3    3  502    0  0.16584996118E+02  0.39605982196E+02 -0.31624921780E+02  0.53491158143E+02  0.41800000000E+01 0. -1.
         -5    1    3    3    0  502 -0.20687472150E+02  0.37232071614E+02 -0.40326947353E+03  0.40553414078E+03  0.41800000000E+01 0. -1.
        -11    1    1    2    0    0 -0.14194406376E+02  0.15790110603E+02 -0.31372358023E+02  0.37881837510E+02  0.00000000000E+00 0. -1.
         11    1    1    2    0    0  0.18296882408E+02 -0.92628164413E+02 -0.46378311650E+02  0.10519363355E+03  0.00000000000E+00 0.  1.
</event>
<event>
 7    1  0.2719869E-009  0.6916967E+02  0.7561462E-02  0.1362940E+00
         -4   -1    0    0    0  501 -0.00000000000E+00  0.00000000000E+00  0.85177607862E+02  0.85177607862E+02  0.00000000000E+00 0. -1.
          4   -1    0    0  501    0  0.00000000000E+00 -0.00000000000E+00 -0.15761077143E+03  0.15761077143E+03  0.00000000000E+00 0.  1.
         25    2    1    2    0    0  0.27661795437E+02 -0.15286424147E+02 -0.62241926005E+02  0.14324270543E+03  0.12508223541E+03 0.  0.
          5    1    3    3  502    0  0.40747456293E+01 -0.29161961837E+02  0.32785602000E+02  0.44265016307E+02  0.41800000000E+01 0. -1.
         -5    1    3    3    0  502  0.23587049808E+02  0.13875537689E+02 -0.95027528005E+02  0.98977689120E+02  0.41800000000E+01 0. -1.
        -11    1    1    2    0    0 -0.31119683090E+01  0.43446010213E+02  0.23278142466E+02  0.49387367483E+02  0.00000000000E+00 0. -1.
         11    1    1    2    0    0 -0.24549827128E+02 -0.28159586066E+02 -0.33469380028E+02  0.50158306380E+02  0.00000000000E+00 0.  1.
</event>
<event>
 7    1  0.2719869E-009  0.1154400E+03  0.7561462E-02  0.1250815E+00
         -2   -1    0    0    0  501 -0.00000000000E+00  0.00000000000E+00  0.87859669157E+02  0.87859669157E+02  0.00000000000E+00 0. -1.
          2   -1    0    0  501    0  0.00000000000E+00 -0.00000000000E+00 -0.17397659686E+03  0.17397659686E+03  0.00000000000E+00 0.  1.
         25    2    1    2    0    0  0.53289233381E+02  0.60106285135E+01 -0.21850697399E+02  0.13784471347E+03  0.12509133465E+03 0.  0.
          5    1    3    3  502    0 -0.27278184852E+02  0.31896127031E+02  0.15917637088E+02  0.45081103124E+02  0.41800000000E+01 0. -1.
         -5    1    3    3    0  502  0.80567418233E+02 -0.25885498518E+02 -0.37768334487E+02  0.92763610345E+02  0.41800000000E+01 0. -1.
        -11    1    1    2    0    0  0.10592145708E+02  0.29179890646E+02 -0.85116412813E+01  0.32188625415E+02  0.00000000000E+00 0.  1.
         11    1    1    2    0    0 -0.63881379090E+02 -0.35190519159E+02 -0.55754589022E+02  0.91802927133E+02  0.00000000000E+00 0. -1.
</event>
<event>
 7    1  0.2719869E-009  0.1208595E+03  0.7561462E-02  0.1241686E+00
          2   -1    0    0  501    0  0.00000000000E+00  0.00000000000E+00  0.90790261223E+02  0.90790261223E+02  0.00000000000E+00 0. -1.
         -2   -1    0    0    0  501 -0.00000000000E+00 -0.00000000000E+00 -0.16446978420E+03  0.16446978420E+03  0.00000000000E+00 0.  1.
         25    2    1    2    0    0 -0.52501755872E+02  0.15790971095E+02 -0.49022047825E+02  0.14511017952E+03  0.12509202169E+03 0.  0.
          5    1    3    3  502    0 -0.92060047890E+02  0.15562392360E+01 -0.21358652814E+02  0.94610457921E+02  0.41800000000E+01 0. -1.
         -5    1    3    3    0  502  0.39558292018E+02  0.14234731859E+02 -0.27663395011E+02  0.50499721603E+02  0.41800000000E+01 0. -1.
        -11    1    1    2    0    0 -0.20887248039E+02 -0.25842340027E+02 -0.60493275086E+01  0.33774221412E+02  0.00000000000E+00 0.  1.
         11    1    1    2    0    0  0.73389003911E+02  0.10051368932E+02 -0.18608147647E+02  0.76375644490E+02  0.00000000000E+00 0. -1.
</event>
<event>
 7    1  0.3659153E-009  0.1221228E+03  0.7561462E-02  0.1239636E+00
          2   -1    0    0  501    0  0.00000000000E+00  0.00000000000E+00  0.17896374309E+04  0.17896374309E+04  0.00000000000E+00 0.  1.
         -2   -1    0    0    0  501 -0.00000000000E+00 -0.00000000000E+00 -0.16793241353E+02  0.16793241353E+02  0.00000000000E+00 0. -1.
         25    2    1    2    0    0  0.24348648325E+02  0.91839757051E+02  0.14379779984E+04  0.14465318381E+04  0.12508491914E+03 0.  0.
          5    1    3    3  502    0 -0.78145274664E+01 -0.91404220574E+01  0.77654430264E+03  0.77664865964E+03  0.41800000000E+01 0.  1.
         -5    1    3    3    0  502  0.32163175792E+02  0.10098017911E+03  0.66143369576E+03  0.66988317842E+03  0.41800000000E+01 0.  1.
        -11    1    1    2    0    0  0.16574824546E+02 -0.81602381552E+02  0.26977379353E+03  0.28233238064E+03  0.00000000000E+00 0. -1.
         11    1    1    2    0    0 -0.40923472871E+02 -0.10237375499E+02  0.65092397632E+02  0.77566453564E+02  0.00000000000E+00 0.  1.
</event>
<event>
 7    1  0.2719869E-009  0.1181681E+03  0.7561462E-02  0.1246150E+00
          2   -1    0    0  501    0  0.00000000000E+00  0.00000000000E+00  0.94789871138E+03  0.94789871138E+03  0.00000000000E+00 0. -1.
         -2   -1    0    0    0  501 -0.00000000000E+00 -0.00000000000E+00 -0.15949741654E+02  0.15949741654E+02  0.00000000000E+00 0.  1.
         25    2    1    2    0    0 -0.53074214386E+02 -0.82450971412E+01  0.43875365347E+03  0.45938610510E+03  0.12508385696E+03 0.  0.
          5    1    3    3  502    0  0.35100555407E+02 -0.22082507737E+02  0.87105126654E+02  0.96563251951E+02  0.41800000000E+01 0.  1.
         -5    1    3    3    0  502 -0.88174769793E+02  0.13837410596E+02  0.35164852681E+03  0.36282285315E+03  0.41800000000E+01 0.  1.
        -11    1    1    2    0    0  0.20652086020E+02 -0.41253024821E+02  0.18742120895E+03  0.19301562185E+03  0.00000000000E+00 0.  1.
         11    1    1    2    0    0  0.32422128366E+02  0.49498121962E+02  0.30577410730E+03  0.31144672607E+03  0.00000000000E+00 0. -1.
</event>
<event>
 7    1  0.2719869E-009  0.2260926E+03  0.7561462E-02  0.1129421E+00
         -1   -1    0    0    0  501 -0.00000000000E+00  0.00000000000E+00  0.13188825422E+03  0.13188825422E+03  0.00000000000E+00 0. -1.
          1   -1    0    0  501    0  0.00000000000E+00 -0.00000000000E+00 -0.51345827184E+03  0.51345827184E+03  0.00000000000E+00 0.  1.
         25    2    1    2    0    0 -0.38700333172E+02  0.21120539230E+03 -0.74918111013E+02  0.25954887377E+03  0.12508981170E+03 0.  0.
          5    1    3    3  502    0 -0.44841869768E+02  0.21606581996E+03 -0.92923855707E+02  0.23947347911E+03  0.41800000000E+01 0.  1.
         -5    1    3    3    0  502  0.61415365963E+01 -0.48604276525E+01  0.18005744694E+02  0.20075394659E+02  0.41800000000E+01 0.  1.
        -11    1    1    2    0    0  0.51701566797E+02 -0.12277504224E+03 -0.12195197725E+03  0.18060744104E+03  0.00000000000E+00 0. -1.
         11    1    1    2    0    0 -0.13001233626E+02 -0.88430350064E+02 -0.18469992936E+03  0.20519021126E+03  0.00000000000E+00 0.  1.
</event>
<event>
 7    1  0.2719869E-009  0.1536290E+03  0.7561462E-02  0.1196083E+00
         -4   -1    0    0    0  501 -0.00000000000E+00  0.00000000000E+00  0.49848065674E+03  0.49848065674E+03  0.00000000000E+00 0.  1.
          4   -1    0    0  501    0  0.00000000000E+00 -0.00000000000E+00 -0.61037935944E+02  0.61037935944E+02  0.00000000000E+00 0. -1.
         25    2    1    2    0    0  0.61804833659E+02 -0.10984400073E+03  0.14928196169E+03  0.23198629222E+03  0.12508794399E+03 0.  0.
          5    1    3    3  502    0 -0.24629886290E+02 -0.63129487071E+02  0.10284577952E+03  0.12323428988E+03  0.41800000000E+01 0. -1.
         -5    1    3    3    0  502  0.86434719949E+02 -0.46714513656E+02  0.46436182168E+02  0.10875200234E+03  0.41800000000E+01 0. -1.
        -11    1    1    2    0    0 -0.62244306866E+02  0.46538585695E+02  0.22525679899E+03  0.23828726190E+03  0.00000000000E+00 0.  1.
         11    1    1    2    0    0  0.43947320687E+00  0.63305415032E+02  0.62903960122E+02  0.89245038563E+02  0.00000000000E+00 0. -1.
</event>
<event>
 6    1  0.2719869E-009  0.2463783E+03  0.7561462E-02  0.1115615E+00
          1   -1    0    0  501    0  0.00000000000E+00  0.00000000000E+00  0.21292936477E+03  0.21292936477E+03  0.00000000000E+00 0. -1.
         -1   -1    0    0    0  501 -0.00000000000E+00 -0.00000000000E+00 -0.41820986446E+03  0.41820986446E+03  0.00000000000E+00 0.  1.
          5    1    1    2  502    0 -0.22047471364E+03 -0.99637019147E+02 -0.26309242728E+03  0.35745172070E+03  0.41800000000E+01 0.  1.
         -5    1    1    2    0  502  0.15890668065E+02 -0.99360588519E+00 -0.84359859679E+01  0.18496995525E+02  0.41800000000E+01 0.  1.
        -11    1    1    2    0    0  0.57624860378E+02  0.26448259453E+01 -0.16698529897E+02  0.60053813689E+02  0.00000000000E+00 0.  1.
         11    1    1    2    0    0  0.14695918520E+03  0.97985799087E+02  0.82946443456E+02  0.19513669931E+03  0.00000000000E+00 0. -1.
</event>
<event>
 7    1  0.2719869E-009  0.7987475E+02  0.7561462E-02  0.1329407E+00
         -1   -1    0    0    0  501 -0.00000000000E+00  0.00000000000E+00  0.69193821345E+02  0.69193821345E+02  0.00000000000E+00 0.  1.
          1   -1    0    0  501    0  0.00000000000E+00 -0.00000000000E+00 -0.19962197465E+03  0.19962197465E+03  0.00000000000E+00 0. -1.
         25    2    1    2    0    0  0.41279319254E+02  0.22494437696E+02 -0.68465797288E+02  0.15015075290E+03  0.12509077213E+03 0.  0.
          5    1    3    3  502    0  0.43184554988E+02  0.57192702397E+02  0.16263443767E+01  0.71805489992E+02  0.41800000000E+01 0. -1.
         -5    1    3    3    0  502 -0.19052357343E+01 -0.34698264701E+02 -0.70092141665E+02  0.78345262905E+02  0.41800000000E+01 0. -1.
        -11    1    1    2    0    0 -0.13898640912E+02 -0.21451971388E+02  0.19864635748E+02  0.32372257398E+02  0.00000000000E+00 0.  1.
         11    1    1    2    0    0 -0.27380678342E+02 -0.10424663081E+01 -0.81826991764E+02  0.86292785699E+02  0.00000000000E+00 0. -1.
</event>
<event>
 7    1  0.2719869E-009  0.1297863E+03  0.7561462E-02  0.1227773E+00
         -2   -1    0    0    0  501 -0.00000000000E+00  0.00000000000E+00  0.32911286177E+02  0.32911286177E+02  0.00000000000E+00 0.  1.
          2   -1    0    0  501    0  0.00000000000E+00 -0.00000000000E+00 -0.64235094052E+03  0.64235094052E+03  0.00000000000E+00 0. -1.
         25    2    1    2    0    0  0.81075660481E+02  0.34064870069E+02 -0.42613862588E+03  0.45274246434E+03  0.12509169620E+03 0.  0.
          5    1    3    3  502    0  0.10225995587E+03 -0.15937862897E+01 -0.22298206245E+03  0.24535303403E+03  0.41800000000E+01 0. -1.
         -5    1    3    3    0  502 -0.21184295392E+02  0.35658656359E+02 -0.20315656343E+03  0.20738943032E+03  0.41800000000E+01 0. -1.
        -11    1    1    2    0    0 -0.32246371541E+02 -0.53911590203E+02 -0.53820409842E+02  0.82721971394E+02  0.00000000000E+00 0.  1.
         11    1    1    2    0    0 -0.48829288939E+02  0.19846720133E+02 -0.12948061862E+03  0.13979779096E+03  0.00000000000E+00 0. -1.
</event>
<event>
 7    1  0.2719869E-009  0.1975369E+03  0.7561462E-02  0.1151834E+00
         -1   -1    0    0    0  501 -0.00000000000E+00  0.00000000000E+00  0.38555991182E+02  0.38555991182E+02  0.00000000000E+00 0.  1.
          1   -1    0    0  501    0  0.00000000000E+00 -0.00000000000E+00 -0.12270846418E+04  0.12270846418E+04  0.00000000000E+00 0. -1.
         25    2    1    2    0    0 -0.26102498987E+02  0.18668641641E+03 -0.62716409856E+03  0.66672024316E+03  0.12509163681E+03 0.  0.
          5    1    3    3  502    0  0.23380305397E+02  0.47860893109E+02 -0.58388582208E+02  0.79145452819E+02  0.41800000000E+01 0.  1.
         -5    1    3    3    0  502 -0.49482804384E+02  0.13882552330E+03 -0.56877551635E+03  0.58757479035E+03  0.41800000000E+01 0.  1.
        -11    1    1    2    0    0 -0.13402298411E+01 -0.14030831414E+03 -0.28882876330E+03  0.32110788490E+03  0.00000000000E+00 0.  1.
         11    1    1    2    0    0  0.27442728828E+02 -0.46378102272E+02 -0.27253578877E+03  0.27781250494E+03  0.00000000000E+00 0. -1.
</event>
<event>
 7    1  0.2719869E-009  0.8221729E+02  0.7561462E-02  0.1322874E+00
         -2   -1    0    0    0  501 -0.00000000000E+00  0.00000000000E+00  0.23458021576E+03  0.23458021576E+03  0.00000000000E+00 0.  1.
          2   -1    0    0  501    0  0.00000000000E+00 -0.00000000000E+00 -0.70944412023E+02  0.70944412023E+02  0.00000000000E+00 0. -1.
         25    2    1    2    0    0 -0.56072401846E+02  0.19301855166E+02  0.88710749398E+02  0.16441834168E+03  0.12508844136E+03 0.  0.
          5    1    3    3  502    0 -0.47769202695E+02 -0.18775515522E+02  0.10880194667E+03  0.12037338871E+03  0.41800000000E+01 0.  1.
         -5    1    3    3    0  502 -0.83031991506E+01  0.38077370688E+02 -0.20091197277E+02  0.44044952976E+02  0.41800000000E+01 0.  1.
        -11    1    1    2    0    0  0.29184073270E+02  0.12799783969E+02 -0.19814199079E+02  0.37525285974E+02  0.00000000000E+00 0. -1.
         11    1    1    2    0    0  0.26888328576E+02 -0.32101639134E+02  0.94739253422E+02  0.10358100013E+03  0.00000000000E+00 0.  1.
</event>
<event>
 7    1  0.2719869E-009  0.1105109E+03  0.7561462E-02  0.1259627E+00
         -2   -1    0    0    0  501 -0.00000000000E+00  0.00000000000E+00  0.92544188501E+02  0.92544188501E+02  0.00000000000E+00 0.  1.
          2   -1    0    0  501    0  0.00000000000E+00 -0.00000000000E+00 -0.20912036182E+03  0.20912036182E+03  0.00000000000E+00 0. -1.
         25    2    1    2    0    0  0.77426762004E+02 -0.48317296260E+01 -0.10842107036E+03  0.18282809401E+03  0.12511088832E+03 0.  0.
          5    1    3    3  502    0 -0.23617079957E+02  0.22590278746E+02 -0.12891921852E+01  0.32973043171E+02  0.41800000000E+01 0. -1.
         -5    1    3    3    0  502  0.10104384196E+03 -0.27422008372E+02 -0.10713187818E+03  0.14985505084E+03  0.41800000000E+01 0. -1.
        -11    1    1    2    0    0 -0.61326986608E+02 -0.91032620704E+01  0.34652357246E+02  0.71025731460E+02  0.00000000000E+00 0.  1.
         11    1    1    2    0    0 -0.16099775396E+02  0.13934991696E+02 -0.42807460203E+02  0.47810724847E+02  0.00000000000E+00 0. -1.
</event>
<event>
 7    1  0.2719869E-009  0.1485002E+03  0.7561462E-02  0.1202328E+00
         -1   -1    0    0    0  501 -0.00000000000E+00  0.00000000000E+00  0.76054500041E+02  0.76054500041E+02  0.00000000000E+00 0.  1.
          1   -1    0    0  501    0  0.00000000000E+00 -0.00000000000E+00 -0.38633810856E+03  0.38633810856E+03  0.00000000000E+00 0. -1.
         25    2    1    2    0    0 -0.68160808004E+02 -0.10290572253E+03 -0.22915029852E+03  0.28878049804E+03  0.12509529670E+03 0.  0.
          5    1    3    3  502    0 -0.40020891294E+02 -0.12656334014E+03 -0.14374022358E+03  0.19570047287E+03  0.41800000000E+01 0.  1.
         -5    1    3    3    0  502 -0.28139916710E+02  0.23657617604E+02 -0.85410074946E+02  0.93080025169E+02  0.41800000000E+01 0.  1.
        -11    1    1    2    0    0  0.40701768192E+02  0.34053318518E+02  0.12171634828E+02  0.54446406037E+02  0.00000000000E+00 0.  1.
         11    1    1    2    0    0  0.27459039813E+02  0.68852404017E+02 -0.93304944822E+02  0.11916570452E+03  0.00000000000E+00 0. -1.
</event>
<event>
 7    1  0.2719869E-009  0.1197734E+03  0.7561462E-02  0.1243471E+00
          2   -1    0    0  501    0  0.00000000000E+00  0.00000000000E+00  0.26975019250E+03  0.26975019250E+03  0.00000000000E+00 0.  1.
         -2   -1    0    0    0  501 -0.00000000000E+00 -0.00000000000E+00 -0.74182774531E+02  0.74182774531E+02  0.00000000000E+00 0. -1.
         25    2    1    2    0    0  0.45943063246E+02 -0.68241988023E+02  0.59516684385E+02  0.16110043886E+03  0.12507350515E+03 0.  0.
          5    1    3    3  502    0  0.57533380046E+02  0.11517531514E+02  0.54579108348E+02  0.80243970614E+02  0.41800000000E+01 0.  1.
         -5    1    3    3    0  502 -0.11590316801E+02 -0.79759519538E+02  0.49375760365E+01  0.80856468248E+02  0.41800000000E+01 0.  1.
        -11    1    1    2    0    0 -0.49306186811E+02  0.22577658279E+02  0.12421916096E+03  0.13554058677E+03  0.00000000000E+00 0.  1.
         11    1    1    2    0    0  0.33631235654E+01  0.45664329745E+02  0.11831572626E+02  0.47291941406E+02  0.00000000000E+00 0. -1.
</event>
<event>
 7    1  0.2719869E-009  0.1153641E+03  0.7561462E-02  0.1250947E+00
          2   -1    0    0  501    0  0.00000000000E+00  0.00000000000E+00  0.94118782519E+03  0.94118782519E+03  0.00000000000E+00 0.  1.
         -2   -1    0    0    0  501 -0.00000000000E+00 -0.00000000000E+00 -0.22020327530E+02  0.22020327530E+02  0.00000000000E+00 0. -1.
         25    2    1    2    0    0  0.72076785724E+02  0.17421990014E+02  0.70793321599E+03  0.72271389577E+03  0.12508936031E+03 0.  0.
          5    1    3    3  502    0  0.80813851240E+02  0.45613740358E+02  0.65826554659E+03  0.66478755561E+03  0.41800000000E+01 0.  1.
         -5    1    3    3    0  502 -0.87370655160E+01 -0.28191750345E+02  0.49667669400E+02  0.57926340165E+02  0.41800000000E+01 0.  1.
        -11    1    1    2    0    0  0.76044353254E+01  0.18963378113E+02  0.81036605327E+02  0.83572534657E+02  0.00000000000E+00 0.  1.
         11    1    1    2    0    0 -0.79681221049E+02 -0.36385368127E+02  0.13019767634E+03  0.15692172229E+03  0.00000000000E+00 0. -1.
</event>
<event>
 7    1  0.2719869E-009  0.1146953E+03  0.7561462E-02  0.1252114E+00
         -3   -1    0    0    0  501 -0.00000000000E+00  0.00000000000E+00  0.27420446314E+02  0.27420446314E+02  0.00000000000E+00 0.  1.
          3   -1    0    0  501    0  0.00000000000E+00 -0.00000000000E+00 -0.68175314607E+03  0.68175314607E+03  0.00000000000E+00 0. -1.
         25    2    1    2    0    0  0.31169701693E+02 -0.26061574137E+02 -0.54508851931E+03  0.56073158103E+03  0.12509059170E+03 0.  0.
          5    1    3    3  502    0 -0.68331614809E+01  0.46687667969E+02 -0.24810256369E+03  0.25258421357E+03  0.41800000000E+01 0.  1.
         -5    1    3    3    0  502  0.38002863174E+02 -0.72749242106E+02 -0.29698595562E+03  0.30814736746E+03  0.41800000000E+01 0.  1.
        -11    1    1    2    0    0 -0.41755268710E+02 -0.24342920451E+02 -0.61432224811E+02  0.78166479301E+02  0.00000000000E+00 0. -1.
         11    1    1    2    0    0  0.10585567017E+02  0.50404494588E+02 -0.47811955641E+02  0.70275532058E+02  0.00000000000E+00 0.  1.
</event>
<event>
 7    1  0.2719869E-009  0.9657996E+02  0.7561462E-02  0.1287657E+00
          1   -1    0    0  501    0  0.00000000000E+00  0.00000000000E+00  0.16835590819E+03  0.16835590819E+03  0.00000000000E+00 0. -1.
         -1   -1    0    0    0  501 -0.00000000000E+00 -0.00000000000E+00 -0.11137883231E+03  0.11137883231E+03  0.00000000000E+00 0.  1.
         25    2    1    2    0    0  0.25284994356E+02 -0.55100028502E+02  0.89001125759E+02  0.16505362019E+03  0.12508458366E+03 0.  0.
          5    1    3    3  502    0 -0.27828209102E+02 -0.35908032132E+02  0.97637673078E+02  0.10777004963E+03  0.41800000000E+01 0. -1.
         -5    1    3    3    0  502  0.53113203458E+02 -0.19191996370E+02 -0.86365473185E+01  0.57283570557E+02  0.41800000000E+01 0. -1.
        -11    1    1    2    0    0 -0.34045597338E+02 -0.10687534601E+01 -0.44934405493E+02  0.56385687271E+02  0.00000000000E+00 0.  1.
         11    1    1    2    0    0  0.87606029816E+01  0.56168781962E+02  0.12910355612E+02  0.58295433044E+02  0.00000000000E+00 0. -1.
</event>
<event>
 7    1  0.2719869E-009  0.1057849E+03  0.7561462E-02  0.1268581E+00
          2   -1    0    0  501    0  0.00000000000E+00  0.00000000000E+00  0.47535242820E+03  0.47535242820E+03  0.00000000000E+00 0. -1.
         -2   -1    0    0    0  501 -0.00000000000E+00 -0.00000000000E+00 -0.49943854531E+02  0.49943854531E+02  0.00000000000E+00 0.  1.
         25    2    1    2    0    0 -0.51217052696E+02 -0.32001022008E+02  0.37506749893E+03  0.39996350305E+03  0.12509165888E+03 0.  0.
          5    1    3    3  502    0 -0.68926615197E+02 -0.12600094014E+02  0.92354572510E+02  0.11600206944E+03  0.41800000000E+01 0.  1.
         -5    1    3    3    0  502  0.17709562501E+02 -0.19400927994E+02  0.28271292642E+03  0.28396143361E+03  0.41800000000E+01 0.  1.
        -11    1    1    2    0    0  0.46951691832E+02  0.65731755712E+02  0.35214144315E+02  0.88120151127E+02  0.00000000000E+00 0.  1.
         11    1    1    2    0    0  0.42653608639E+01 -0.33730733704E+02  0.15126930417E+02  0.37212628546E+02  0.00000000000E+00 0. -1.
</event>
<event>
 7    1  0.2719869E-009  0.1590231E+03  0.7561462E-02  0.1189804E+00
          1   -1    0    0  501    0  0.00000000000E+00  0.00000000000E+00  0.15900063607E+03  0.15900063607E+03  0.00000000000E+00 0. -1.
         -1   -1    0    0    0  501 -0.00000000000E+00 -0.00000000000E+00 -0.20457230791E+03  0.20457230791E+03  0.00000000000E+00 0.  1.
         25    2    1    2    0    0  0.54099243557E+02  0.12692746084E+03  0.12950084928E+02  0.18668918273E+03  0.12509131776E+03 0.  0.
          5    1    3    3  502    0  0.71095224797E+02  0.12540766780E+03  0.44199475336E+02  0.15083991565E+03  0.41800000000E+01 0.  1.
         -5    1    3    3    0  502 -0.16995981240E+02  0.15197930314E+01 -0.31249390408E+02  0.35849267078E+02  0.41800000000E+01 0.  1.
        -11    1    1    2    0    0 -0.23067171510E+02 -0.12280700687E+03 -0.70375999343E+02  0.14341002971E+03  0.00000000000E+00 0.  1.
         11    1    1    2    0    0 -0.31032072047E+02 -0.41204539639E+01  0.11854242569E+02  0.33473731541E+02  0.00000000000E+00 0. -1.
</event>
<event>
 7    1  0.2746472E-009  0.9695220E+02  0.7561462E-02  0.1286839E+00
         -3   -1    0    0    0  501 -0.00000000000E+00  0.00000000000E+00  0.31561181829E+02  0.31561181829E+02  0.00000000000E+00 0.  1.
          3   -1    0    0  501    0  0.00000000000E+00 -0.00000000000E+00 -0.54333613320E+03  0.54333613320E+03  0.00000000000E+00 0. -1.
         25    2    1    2    0    0 -0.24448773831E+02  0.28003461710E+02 -0.41950381271E+03  0.43933214244E+03  0.12508935246E+03 0.  0.
          5    1    3    3  502    0  0.42983733298E+02  0.21337681981E+02 -0.82288802510E+02  0.95351022119E+02  0.41800000000E+01 0. -1.
         -5    1    3    3    0  502 -0.67432507130E+02  0.66657797286E+01 -0.33721501020E+03  0.34398112033E+03  0.41800000000E+01 0. -1.
        -11    1    1    2    0    0  0.39303035453E+01  0.22756826373E+02  0.52893732403E+01  0.23691726442E+02  0.00000000000E+00 0.  1.
         11    1    1    2    0    0  0.20518470286E+02 -0.50760288083E+02 -0.97560511899E+02  0.11187344614E+03  0.00000000000E+00 0. -1.
</event>
<event>
 7    1  0.2719869E-009  0.1049810E+03  0.7561462E-02  0.1270157E+00
          2   -1    0    0  501    0  0.00000000000E+00  0.00000000000E+00  0.25029949382E+03  0.25029949382E+03  0.00000000000E+00 0. -1.
         -2   -1    0    0    0  501 -0.00000000000E+00 -0.00000000000E+00 -0.59684909032E+02  0.59684909032E+02  0.00000000000E+00 0.  1.
         25    2    1    2    0    0 -0.89565609741E+01 -0.24408642807E+02  0.16981663478E+03  0.21251299495E+03  0.12509229292E+03 0.  0.
          5    1    3    3  502    0  0.46168902967E+02  0.25230121113E+02  0.81540953825E+02  0.97131489041E+02  0.41800000000E+01 0.  1.
         -5    1    3    3    0  502 -0.55125463941E+02 -0.49638763921E+02  0.88275680953E+02  0.11538150591E+03  0.41800000000E+01 0.  1.
        -11    1    1    2    0    0  0.40944622469E+02 -0.25888878658E+01  0.34314509775E+02  0.53485044925E+02  0.00000000000E+00 0.  1.
         11    1    1    2    0    0 -0.31988061495E+02  0.26997530673E+02 -0.13516559761E+02  0.43986362982E+02  0.00000000000E+00 0. -1.
</event>
<event>
 7    1  0.2719869E-009  0.1173238E+03  0.7561462E-02  0.1247578E+00
         -2   -1    0    0    0  501 -0.00000000000E+00  0.00000000000E+00  0.76434256942E+02  0.76434256942E+02  0.00000000000E+00 0.  1.
          2   -1    0    0  501    0  0.00000000000E+00 -0.00000000000E+00 -0.22911790903E+03  0.22911790903E+03  0.00000000000E+00 0. -1.
         25    2    1    2    0    0  0.84897170521E+02 -0.63645459811E+01 -0.87489078733E+02  0.17478065361E+03  0.12508357594E+03 0.  0.
          5    1    3    3  502    0  0.29201841405E+01 -0.34275245987E+02 -0.80689310665E+02  0.87815472546E+02  0.41800000000E+01 0.  1.
         -5    1    3    3    0  502  0.81976986381E+02  0.27910700006E+02 -0.67997680677E+01  0.86965181060E+02  0.41800000000E+01 0.  1.
        -11    1    1    2    0    0  0.38854350192E+01 -0.20242851778E+02 -0.10171456730E+02  0.22985390695E+02  0.00000000000E+00 0.  1.
         11    1    1    2    0    0 -0.88782605541E+02  0.26607397759E+02 -0.55023116629E+02  0.10778612167E+03  0.00000000000E+00 0. -1.
</event>
<event>
 7    1  0.2719869E-009  0.2059346E+03  0.7561462E-02  0.1144826E+00
         -2   -1    0    0    0  501 -0.00000000000E+00  0.00000000000E+00  0.69501598424E+03  0.69501598424E+03  0.00000000000E+00 0.  1.
          2   -1    0    0  501    0  0.00000000000E+00 -0.00000000000E+00 -0.70137062505E+02  0.70137062505E+02  0.00000000000E+00 0. -1.
         25    2    1    2    0    0 -0.17531466832E+03 -0.78121564312E+02  0.29088802794E+03  0.37027178925E+03  0.12508853415E+03 0.  0.
          5    1    3    3  502    0 -0.18170673251E+03 -0.61463307343E+02  0.19844834194E+03  0.27603313498E+03  0.41800000000E+01 0. -1.
         -5    1    3    3    0  502  0.63920641920E+01 -0.16658256969E+02  0.92439686003E+02  0.94238654268E+02  0.41800000000E+01 0. -1.
        -11    1    1    2    0    0  0.39152829667E+02 -0.88095402696E+01  0.12149409379E+03  0.12795064243E+03  0.00000000000E+00 0. -1.
         11    1    1    2    0    0  0.13616183865E+03  0.86931104582E+02  0.21249680000E+03  0.26693061507E+03  0.00000000000E+00 0.  1.
</event>
<event>
 7    1  0.2719869E-009  0.1097472E+03  0.7561462E-02  0.1261039E+00
         -2   -1    0    0    0  501 -0.00000000000E+00  0.00000000000E+00  0.12661493537E+02  0.12661493537E+02  0.00000000000E+00 0. -1.
          2   -1    0    0  501    0  0.00000000000E+00 -0.00000000000E+00 -0.12227626781E+04  0.12227626781E+04  0.00000000000E+00 0.  1.
         25    2    1    2    0    0 -0.54237894568E+02 -0.69656123789E+01 -0.75642220335E+03  0.76864339994E+03  0.12509139696E+03 0.  0.
          5    1    3    3  502    0  0.24794912732E+02 -0.16465654043E+02 -0.48046863123E+03  0.48140781408E+03  0.41800000000E+01 0.  1.
         -5    1    3    3    0  502 -0.79032807301E+02  0.95000416645E+01 -0.27595357211E+03  0.28723558586E+03  0.41800000000E+01 0.  1.
        -11    1    1    2    0    0  0.49750780318E+02  0.47594706063E+02 -0.29370578602E+03  0.30166783874E+03  0.00000000000E+00 0. -1.
         11    1    1    2    0    0  0.44871142508E+01 -0.40629093684E+02 -0.15997319517E+03  0.16511293293E+03  0.00000000000E+00 0.  1.
</event>
<event>
 7    1  0.2719869E-009  0.1067540E+03  0.7561462E-02  0.1266702E+00
         -1   -1    0    0    0  501 -0.00000000000E+00  0.00000000000E+00  0.25456432016E+02  0.25456432016E+02  0.00000000000E+00 0.  1.
          1   -1    0    0  501    0  0.00000000000E+00 -0.00000000000E+00 -0.62276647544E+03  0.62276647544E+03  0.00000000000E+00 0. -1.
         25    2    1    2    0    0  0.27727091074E+02 -0.42822961255E+02 -0.43184605373E+03  0.45248319941E+03  0.12508970397E+03 0.  0.
          5    1    3    3  502    0 -0.41789929751E+02 -0.48338634721E+02 -0.23671609553E+03  0.24522439544E+03  0.41800000000E+01 0. -1.
         -5    1    3    3    0  502  0.69517020824E+02  0.55156734664E+01 -0.19512995819E+03  0.20725880397E+03  0.41800000000E+01 0. -1.
        -11    1    1    2    0    0  0.18559673554E+02  0.22208199587E+02 -0.13171953707E+03  0.13486178872E+03  0.00000000000E+00 0.  1.
         11    1    1    2    0    0 -0.46286764628E+02  0.20614761668E+02 -0.33744452632E+02  0.60877919329E+02  0.00000000000E+00 0. -1.
</event>
<event>
 7    1  0.2719869E-009  0.2226147E+03  0.7561462E-02  0.1131949E+00
          2   -1    0    0  501    0  0.00000000000E+00  0.00000000000E+00  0.25119424811E+04  0.25119424811E+04  0.00000000000E+00 0.  1.
         -2   -1    0    0    0  501 -0.00000000000E+00 -0.00000000000E+00 -0.23534895186E+02  0.23534895186E+02  0.00000000000E+00 0. -1.
         25    2    1    2    0    0 -0.12140001463E+03 -0.16416762919E+03  0.16610564830E+04  0.16782277052E+04  0.12510242557E+03 0.  0.
          5    1    3    3  502    0 -0.14348618276E+03 -0.12891077637E+03  0.12159118220E+04  0.12311235942E+04  0.41800000000E+01 0.  1.
         -5    1    3    3    0  502  0.22086168128E+02 -0.35256852824E+02  0.44514466092E+03  0.44710411096E+03  0.41800000000E+01 0.  1.
        -11    1    1    2    0    0  0.30677841716E+02  0.83955242440E+02  0.50609198368E+03  0.51392480837E+03  0.00000000000E+00 0.  1.
         11    1    1    2    0    0  0.90722172918E+02  0.80212386750E+02  0.32125911924E+03  0.34332486269E+03  0.00000000000E+00 0. -1.
</event>
<event>
 7    1  0.2719869E-009  0.1249038E+03  0.7561462E-02  0.1235220E+00
         -2   -1    0    0    0  501 -0.00000000000E+00  0.00000000000E+00  0.31170904857E+02  0.31170904857E+02  0.00000000000E+00 0.  1.
          2   -1    0    0  501    0  0.00000000000E+00 -0.00000000000E+00 -0.55003279284E+03  0.55003279284E+03  0.00000000000E+00 0. -1.
         25    2    1    2    0    0 -0.40967031080E+02  0.54376131291E+02 -0.34198638744E+03  0.37045506814E+03  0.12508879656E+03 0.  0.
          5    1    3    3  502    0 -0.10848248939E+02 -0.40671321049E+02 -0.11352033046E+03  0.12114527926E+03  0.41800000000E+01 0. -1.
         -5    1    3    3    0  502 -0.30118782141E+02  0.95047452340E+02 -0.22846605698E+03  0.24930978887E+03  0.41800000000E+01 0. -1.
        -11    1    1    2    0    0 -0.25537073382E+02 -0.84706731823E+01 -0.17612190565E+02  0.32157171480E+02  0.00000000000E+00 0.  1.
         11    1    1    2    0    0  0.66504104462E+02 -0.45905458109E+02 -0.15926330997E+03  0.17859145808E+03  0.00000000000E+00 0. -1.
</event>
<event>
 7    1  0.2719869E-009  0.1376411E+03  0.7561462E-02  0.1216539E+00
          4   -1    0    0  501    0  0.00000000000E+00  0.00000000000E+00  0.32494022476E+02  0.32494022476E+02  0.00000000000E+00 0. -1.
         -4   -1    0    0    0  501 -0.00000000000E+00 -0.00000000000E+00 -0.82409132324E+03  0.82409132324E+03  0.00000000000E+00 0.  1.
         25    2    1    2    0    0  0.12218170095E+03  0.52848700139E+01 -0.42309799903E+03  0.45783818472E+03  0.12509032220E+03 0.  0.
          5    1    3    3  502    0  0.18881038527E+02 -0.12308276515E+02 -0.10402289806E+01  0.22946497836E+02  0.41800000000E+01 0. -1.
         -5    1    3    3    0  502  0.10330066242E+03  0.17593146529E+02 -0.42205777005E+03  0.43489168689E+03  0.41800000000E+01 0. -1.
        -11    1    1    2    0    0 -0.12208840712E+03  0.18691738690E+02 -0.26300646491E+03  0.29056386705E+03  0.00000000000E+00 0.  1.
         11    1    1    2    0    0 -0.93293833891E-01 -0.23976608704E+02 -0.10549283681E+03  0.10818329394E+03  0.00000000000E+00 0. -1.
</event>
<event>
 7    1  0.2719869E-009  0.2746254E+03  0.7561462E-02  0.1098661E+00
         -1   -1    0    0    0  501 -0.00000000000E+00  0.00000000000E+00  0.25652401089E+02  0.25652401089E+02  0.00000000000E+00 0.  1.
          1   -1    0    0  501    0  0.00000000000E+00 -0.00000000000E+00 -0.33696861954E+04  0.33696861954E+04  0.00000000000E+00 0. -1.
         25    2    1    2    0    0 -0.26676542126E+03  0.30581710695E+02 -0.19894002381E+04  0.20113329474E+04  0.12509151324E+03 0.  0.
          5    1    3    3  502    0 -0.16544213852E+03  0.31340123768E+02 -0.16037786287E+04  0.16125993510E+04  0.41800000000E+01 0. -1.
         -5    1    3    3    0  502 -0.10132328274E+03 -0.75841307346E+00 -0.38562160941E+03  0.39873359635E+03  0.41800000000E+01 0. -1.
        -11    1    1    2    0    0  0.51900814406E+02 -0.38135330893E+02 -0.22229247028E+03  0.23143452712E+03  0.00000000000E+00 0. -1.
         11    1    1    2    0    0  0.21486460686E+03  0.75536201987E+01 -0.11323410859E+04  0.11525711220E+04  0.00000000000E+00 0.  1.
</event>
<event>
 7    1  0.2719869E-009  0.1182856E+03  0.7561462E-02  0.1245952E+00
          1   -1    0    0  501    0  0.00000000000E+00  0.00000000000E+00  0.11214120270E+03  0.11214120270E+03  0.00000000000E+00 0. -1.
         -1   -1    0    0    0  501 -0.00000000000E+00 -0.00000000000E+00 -0.16801721305E+03  0.16801721305E+03  0.00000000000E+00 0.  1.
         25    2    1    2    0    0  0.12151382403E+02 -0.71736715831E+02 -0.91475516743E+02  0.17120027133E+03  0.12509176731E+03 0.  0.
          5    1    3    3  502    0 -0.49234400988E+02  0.64915382695E+00 -0.26176157632E+02  0.55920580020E+02  0.41800000000E+01 0. -1.
         -5    1    3    3    0  502  0.61385783391E+02 -0.72385869658E+02 -0.65299359110E+02  0.11527969131E+03  0.41800000000E+01 0. -1.
        -11    1    1    2    0    0  0.88129132193E+01  0.70611029853E+02  0.43248017955E+01  0.71290173845E+02  0.00000000000E+00 0.  1.
         11    1    1    2    0    0 -0.20964295622E+02  0.11256859783E+01  0.31274704591E+02  0.37667970573E+02  0.00000000000E+00 0. -1.
</event>
<event>
 7    1  0.2719869E-009  0.6263488E+02  0.7561462E-02  0.1387096E+00
          1   -1    0    0  501    0  0.00000000000E+00  0.00000000000E+00  0.12091408070E+03  0.12091408070E+03  0.00000000000E+00 0. -1.
         -1   -1    0    0    0  501 -0.00000000000E+00 -0.00000000000E+00 -0.14639713180E+03  0.14639713180E+03  0.00000000000E+00 0.  1.
         25    2    1    2    0    0  0.35823889722E+02  0.17045381698E+02  0.52228435913E+02  0.14125818802E+03  0.12510863300E+03 0.  0.
          5    1    3    3  502    0  0.66592600409E+01  0.95041004019E+01 -0.41198775990E+02  0.43005641628E+02  0.41800000000E+01 0.  1.
         -5    1    3    3    0  502  0.29164629681E+02  0.75412812958E+01  0.93427211903E+02  0.98252546390E+02  0.41800000000E+01 0.  1.
        -11    1    1    2    0    0 -0.50124353816E+02  0.10750001630E+02 -0.11071426233E+02  0.52446066195E+02  0.00000000000E+00 0. -1.
         11    1    1    2    0    0  0.14300464094E+02 -0.27795383328E+02 -0.66640060781E+02  0.73606958289E+02  0.00000000000E+00 0.  1.
</event>
<event>
 7    1  0.2719869E-009  0.1068232E+03  0.7561462E-02  0.1266569E+00
         -2   -1    0    0    0  501 -0.00000000000E+00  0.00000000000E+00  0.52226571056E+02  0.52226571056E+02  0.00000000000E+00 0.  1.
          2   -1    0    0  501    0  0.00000000000E+00 -0.00000000000E+00 -0.33110086262E+03  0.33110086262E+03  0.00000000000E+00 0. -1.
         25    2    1    2    0    0 -0.18216064675E+02  0.22540887136E+02 -0.25132220463E+03  0.28222318905E+03  0.12508861377E+03 0.  0.
          5    1    3    3  502    0  0.51104321322E+02  0.29268253177E+01 -0.68048331658E+02  0.85254124860E+02  0.41800000000E+01 0.  1.
         -5    1    3    3    0  502 -0.69320385997E+02  0.19614061818E+02 -0.18327387297E+03  0.19696906419E+03  0.41800000000E+01 0.  1.
        -11    1    1    2    0    0  0.44773294295E+02 -0.38578186258E+02 -0.35676352855E+02  0.69034241432E+02  0.00000000000E+00 0. -1.
         11    1    1    2    0    0 -0.26557229620E+02  0.16037299122E+02  0.81242659152E+01  0.32070003194E+02  0.00000000000E+00 0.  1.
</event>
<event>
 7    1  0.2719869E-009  0.4539672E+03  0.7561462E-02  0.1026546E+00
          1   -1    0    0  501    0  0.00000000000E+00  0.00000000000E+00  0.27696435586E+04  0.27696435586E+04  0.00000000000E+00 0. -1.
         -1   -1    0    0    0  501 -0.00000000000E+00 -0.00000000000E+00 -0.85821718280E+02  0.85821718280E+02  0.00000000000E+00 0.  1.
         25    2    1    2    0    0 -0.31136879332E+03 -0.31595284095E+03  0.87114189884E+03  0.98555168558E+03  0.12508874401E+03 0.  0.
          5    1    3    3  502    0 -0.28084361063E+03 -0.32141080674E+03  0.77950718205E+03  0.88872209357E+03  0.41800000000E+01 0.  1.
         -5    1    3    3    0  502 -0.30525182692E+02  0.54579657915E+01  0.91634716786E+02  0.96829592013E+02  0.41800000000E+01 0.  1.
        -11    1    1    2    0    0  0.46756394664E+02  0.91752489331E+02  0.27610298932E+03  0.29468210066E+03  0.00000000000E+00 0.  1.
         11    1    1    2    0    0  0.26461239865E+03  0.22420035162E+03  0.15365769522E+04  0.15752314906E+04  0.00000000000E+00 0. -1.
</event>
<event>
 7    1  0.2719869E-009  0.1106356E+03  0.7561462E-02  0.1259397E+00
          2   -1    0    0  501    0  0.00000000000E+00  0.00000000000E+00  0.13095441936E+04  0.13095441936E+04  0.00000000000E+00 0. -1.
         -2   -1    0    0    0  501 -0.00000000000E+00 -0.00000000000E+00 -0.12425467614E+02  0.12425467614E+02  0.00000000000E+00 0.  1.
         25    2    1    2    0    0  0.16532832286E+02 -0.63597981172E+02  0.81507416863E+03  0.82723115433E+03  0.12508974609E+03 0.  0.
          5    1    3    3  502    0 -0.38923069975E+02 -0.23819944975E+02  0.11451566558E+03  0.12334384954E+03  0.41800000000E+01 0.  1.
         -5    1    3    3    0  502  0.55455902261E+02 -0.39778036197E+02  0.70055850305E+03  0.70388730480E+03  0.41800000000E+01 0.  1.
        -11    1    1    2    0    0  0.16967761038E+02 -0.14354885933E+02  0.54523559838E+02  0.58879421211E+02  0.00000000000E+00 0.  1.
         11    1    1    2    0    0 -0.33500593324E+02  0.77952867105E+02  0.42752099756E+03  0.43585908571E+03  0.00000000000E+00 0. -1.
</event>
<event>
 7    1  0.2719869E-009  0.1491725E+03  0.7561462E-02  0.1201494E+00
         -1   -1    0    0    0  501 -0.00000000000E+00  0.00000000000E+00  0.78738854303E+02  0.78738854303E+02  0.00000000000E+00 0.  1.
          1   -1    0    0  501    0  0.00000000000E+00 -0.00000000000E+00 -0.38744151036E+03  0.38744151036E+03  0.00000000000E+00 0. -1.
         25    2    1    2    0    0  0.11899120067E+03 -0.10239573390E+02 -0.23425104608E+03  0.29117535539E+03  0.12508309357E+03 0.  0.
          5    1    3    3  502    0  0.11099154979E+03 -0.32947679348E+02 -0.95077584690E+02  0.14987292354E+03  0.41800000000E+01 0.  1.
         -5    1    3    3    0  502  0.79996508726E+01  0.22708105958E+02 -0.13917346139E+03  0.14130243185E+03  0.41800000000E+01 0.  1.
        -11    1    1    2    0    0 -0.92482402999E+02  0.53851379383E+02 -0.55586439884E+02  0.12059360773E+03  0.00000000000E+00 0.  1.
         11    1    1    2    0    0 -0.26508797668E+02 -0.43611805994E+02 -0.18865170093E+02  0.54411401548E+02  0.00000000000E+00 0. -1.
</event>
<event>
 7    1  0.2719869E-009  0.1597126E+03  0.7561462E-02  0.1189022E+00
          1   -1    0    0  501    0  0.00000000000E+00  0.00000000000E+00  0.15313018061E+03  0.15313018061E+03  0.00000000000E+00 0. -1.
         -1   -1    0    0    0  501 -0.00000000000E+00 -0.00000000000E+00 -0.21250215372E+03  0.21250215372E+03  0.00000000000E+00 0.  1.
         25    2    1    2    0    0 -0.33260796288E+02  0.12684292980E+03 -0.89250044230E+02  0.20201215739E+03  0.12509169408E+03 0.  0.
          5    1    3    3  502    0 -0.18205798118E+02 -0.20457416068E+02 -0.34140725656E+02  0.43966106328E+02  0.41800000000E+01 0.  1.
         -5    1    3    3    0  502 -0.15054998170E+02  0.14730034587E+03 -0.55109318574E+02  0.15804605106E+03  0.41800000000E+01 0.  1.
        -11    1    1    2    0    0 -0.17023827224E+02 -0.31623161253E+02 -0.24016363564E+02  0.43204406486E+02  0.00000000000E+00 0.  1.
         11    1    1    2    0    0  0.50284623512E+02 -0.95219768550E+02  0.53894434677E+02  0.12041577045E+03  0.00000000000E+00 0. -1.
</event>
<event>
 7    1  0.2719869E-009  0.1662040E+03  0.7561462E-02  0.1181865E+00
         -2   -1    0    0    0  501 -0.00000000000E+00  0.00000000000E+00  0.94407501250E+02  0.94407501250E+02  0.00000000000E+00 0.  1.
          2   -1    0    0  501    0  0.00000000000E+00 -0.00000000000E+00 -0.40290607061E+03  0.40290607061E+03  0.00000000000E+00 0. -1.
         25    2    1    2    0    0  0.11339633837E+03  0.86498327759E+02 -0.64454144539E+02  0.20035500714E+03  0.12508837627E+03 0.  0.
          5    1    3    3  502    0  0.21478347283E+01  0.49633497044E+02  0.22166443921E+02  0.54561166217E+02  0.41800000000E+01 0.  1.
         -5    1    3    3    0  502  0.11124850364E+03  0.36864830714E+02 -0.86620588460E+02  0.14579384092E+03  0.41800000000E+01 0.  1.
        -11    1    1    2    0    0 -0.28204299184E+02 -0.73979580653E+02 -0.85413184811E+02  0.11646404160E+03  0.00000000000E+00 0. -1.
         11    1    1    2    0    0 -0.85192039184E+02 -0.12518747106E+02 -0.15863124001E+03  0.18049452312E+03  0.00000000000E+00 0.  1.
</event>
<event>
 7    1  0.2719869E-009  0.1166586E+03  0.7561462E-02  0.1248713E+00
          2   -1    0    0  501    0  0.00000000000E+00  0.00000000000E+00  0.83848457797E+02  0.83848457797E+02  0.00000000000E+00 0. -1.
         -2   -1    0    0    0  501 -0.00000000000E+00 -0.00000000000E+00 -0.34157121081E+03  0.34157121081E+03  0.00000000000E+00 0.  1.
         25    2    1    2    0    0 -0.28647950123E+02 -0.75745107593E+02 -0.26419259509E+03  0.30332121457E+03  0.12509198830E+03 0.  0.
          5    1    3    3  502    0 -0.48635947075E+02 -0.20732770999E+02 -0.28048979037E+02  0.59996006252E+02  0.41800000000E+01 0.  1.
         -5    1    3    3    0  502  0.19987996952E+02 -0.55012336594E+02 -0.23614361605E+03  0.24332520831E+03  0.41800000000E+01 0.  1.
        -11    1    1    2    0    0  0.54082577543E+02  0.15581448697E+02  0.74409368575E+01  0.56772125894E+02  0.00000000000E+00 0. -1.
         11    1    1    2    0    0 -0.25434627420E+02  0.60163658896E+02 -0.97109478110E+00  0.65326328144E+02  0.00000000000E+00 0.  1.
</event>
<event>
 6    1  0.2719869E-009  0.1869199E+03  0.7561462E-02  0.1161269E+00
          2   -1    0    0  501    0  0.00000000000E+00  0.00000000000E+00  0.15442967676E+04  0.15442967676E+04  0.00000000000E+00 0. -1.
         -2   -1    0    0    0  501 -0.00000000000E+00 -0.00000000000E+00 -0.26918830652E+02  0.26918830652E+02  0.00000000000E+00 0.  1.
          5    1    1    2  502    0 -0.18798732294E+02 -0.31045045253E+02  0.30880297686E+03  0.31095648906E+03  0.41800000000E+01 0.  1.
         -5    1    1    2    0  502 -0.14985219274E+03  0.17825155257E+02  0.36530776914E+03  0.39527288602E+03  0.41800000000E+01 0.  1.
        -11    1    1    2    0    0  0.11039197490E+03  0.45885309597E+02  0.63867968184E+03  0.64977194903E+03  0.00000000000E+00 0. -1.
         11    1    1    2    0    0  0.58258950131E+02 -0.32665419601E+02  0.20458750906E+03  0.21521427409E+03  0.00000000000E+00 0.  1.
</event>
<event>
 7    1  0.2719869E-009  0.1904888E+03  0.7561462E-02  0.1158021E+00
         -2   -1    0    0    0  501 -0.00000000000E+00  0.00000000000E+00  0.14261111761E+03  0.14261111761E+03  0.00000000000E+00 0.  1.
          2   -1    0    0  501    0  0.00000000000E+00 -0.00000000000E+00 -0.32395487444E+03  0.32395487444E+03  0.00000000000E+00 0. -1.
         25    2    1    2    0    0  0.86529880693E+02 -0.16220866729E+03 -0.12607902629E+03  0.25562143412E+03  0.12508926698E+03 0.  0.
          5    1    3    3  502    0  0.41518674891E+02 -0.14004901208E+03 -0.14104720706E+03  0.20309926925E+03  0.41800000000E+01 0.  1.
         -5    1    3    3    0  502  0.45011205802E+02 -0.22159655211E+02  0.14968180774E+02  0.52522164869E+02  0.41800000000E+01 0.  1.
        -11    1    1    2    0    0 -0.26817810959E+02  0.36123301775E+02  0.23476831699E+02  0.50746916580E+02  0.00000000000E+00 0.  1.
         11    1    1    2    0    0 -0.59712069734E+02  0.12608536552E+03 -0.78741562247E+02  0.16019764135E+03  0.00000000000E+00 0. -1.
</event>
<event>
 7    1  0.2719869E-009  0.1697080E+03  0.7561462E-02  0.1178153E+00
          2   -1    0    0  501    0  0.00000000000E+00  0.00000000000E+00  0.73360893102E+03  0.73360893102E+03  0.00000000000E+00 0.  1.
         -2   -1    0    0    0  501 -0.00000000000E+00 -0.00000000000E+00 -0.44293917144E+02  0.44293917144E+02  0.00000000000E+00 0. -1.
         25    2    1    2    0    0 -0.12569001954E+03 -0.55995197087E+02  0.44996734824E+03  0.48687970090E+03  0.12509110906E+03 0.  0.
          5    1    3    3  502    0  0.65981218453E+01  0.23502326704E+02  0.12065886423E+03  0.12317438244E+03  0.41800000000E+01 0.  1.
         -5    1    3    3    0  502 -0.13228814138E+03 -0.79497523791E+02  0.32930848401E+03  0.36370531846E+03  0.41800000000E+01 0.  1.
        -11    1    1    2    0    0  0.56631991511E+01  0.38554851864E+02  0.93745436346E+02  0.10152219099E+03  0.00000000000E+00 0.  1.
         11    1    1    2    0    0  0.12002682039E+03  0.17440345223E+02  0.14560222930E+03  0.18950095628E+03  0.00000000000E+00 0. -1.
</event>
<event>
 7    1  0.2719869E-009  0.5772330E+02  0.7561462E-02  0.1407642E+00
         -2   -1    0    0    0  501 -0.00000000000E+00  0.00000000000E+00  0.40137746626E+02  0.40137746626E+02  0.00000000000E+00 0.  1.
          2   -1    0    0  501    0  0.00000000000E+00 -0.00000000000E+00 -0.19442128997E+04  0.19442128997E+04  0.00000000000E+00 0. -1.
         25    2    1    2    0    0  0.25764224723E+02  0.17489545972E+02 -0.18813281337E+04  0.18857393340E+04  0.12509040688E+03 0.  0.
          5    1    3    3  502    0  0.52497932740E+01  0.11517749754E+02 -0.18597061088E+02  0.22881039529E+02  0.41800000000E+01 0. -1.
         -5    1    3    3    0  502  0.20514431449E+02  0.59717962187E+01 -0.18627310726E+04  0.18628582945E+04  0.41800000000E+01 0. -1.
        -11    1    1    2    0    0 -0.32840927552E+02  0.22451840617E+02  0.15656779891E+02  0.42752151129E+02  0.00000000000E+00 0.  1.
         11    1    1    2    0    0  0.70767028296E+01 -0.39941386589E+02 -0.38403799301E+02  0.55859161168E+02  0.00000000000E+00 0. -1.
</event>
<event>
 7    1  0.2719869E-009  0.9854683E+02  0.7561462E-02  0.1283382E+00
          1   -1    0    0  501    0  0.00000000000E+00  0.00000000000E+00  0.59414795545E+02  0.59414795545E+02  0.00000000000E+00 0. -1.
         -1   -1    0    0    0  501 -0.00000000000E+00 -0.00000000000E+00 -0.24670412655E+03  0.24670412655E+03  0.00000000000E+00 0.  1.
         25    2    1    2    0    0 -0.75267667264E+01  0.44903811764E+02 -0.13824408108E+03  0.19191599723E+03  0.12508924619E+03 0.  0.
          5    1    3    3  502    0  0.57971304195E+02  0.30140674576E+02 -0.75380705492E+02  0.99844156235E+02  0.41800000000E+01 0. -1.
         -5    1    3    3    0  502 -0.65498070921E+02  0.14763137188E+02 -0.62863375591E+02  0.92071840998E+02  0.41800000000E+01 0. -1.
        -11    1    1    2    0    0  0.20806692859E+02 -0.37953750620E+01  0.22340028092E+02  0.30763618037E+02  0.00000000000E+00 0.  1.
         11    1    1    2    0    0 -0.13279926133E+02 -0.41108436702E+02 -0.71385278014E+02  0.83439306824E+02  0.00000000000E+00 0. -1.
</event>
<event>
 7    1  0.2719869E-009  0.1069504E+03  0.7561462E-02  0.1266324E+00
          1   -1    0    0  501    0  0.00000000000E+00  0.00000000000E+00  0.44160930594E+03  0.44160930594E+03  0.00000000000E+00 0. -1.
         -1   -1    0    0    0  501 -0.00000000000E+00 -0.00000000000E+00 -0.40099009101E+02  0.40099009101E+02  0.00000000000E+00 0.  1.
         25    2    1    2    0    0 -0.26667944322E+02 -0.37980781237E+02  0.11224482298E+03  0.17435496879E+03  0.12508811238E+03 0.  0.
          5    1    3    3  502    0 -0.64954167581E+02 -0.37359155425E+02  0.11320772025E+03  0.13582419043E+03  0.41800000000E+01 0.  1.
         -5    1    3    3    0  502  0.38286223259E+02 -0.62162581177E+00 -0.96289727067E+00  0.38530778363E+02  0.41800000000E+01 0.  1.
        -11    1    1    2    0    0  0.55225439034E+02  0.44638910816E+02  0.16421328040E+03  0.17890914716E+03  0.00000000000E+00 0.  1.
         11    1    1    2    0    0 -0.28557494712E+02 -0.66581295792E+01  0.12505219345E+03  0.12844419909E+03  0.00000000000E+00 0. -1.
</event>
<event>
 7    1  0.2719869E-009  0.1161107E+03  0.7561462E-02  0.1249655E+00
          1   -1    0    0  501    0  0.00000000000E+00  0.00000000000E+00  0.53575845455E+03  0.53575845455E+03  0.00000000000E+00 0. -1.
         -1   -1    0    0    0  501 -0.00000000000E+00 -0.00000000000E+00 -0.32444980341E+02  0.32444980341E+02  0.00000000000E+00 0.  1.
         25    2    1    2    0    0 -0.27957067400E+01  0.73813496448E+02  0.26109790081E+03  0.29879392083E+03  0.12509774212E+03 0.  0.
          5    1    3    3  502    0 -0.50524061326E+02  0.53421176666E+02  0.73288384997E+02  0.10389977221E+03  0.41800000000E+01 0. -1.
         -5    1    3    3    0  502  0.47728354586E+02  0.20392319782E+02  0.18780951582E+03  0.19489414863E+03  0.41800000000E+01 0. -1.
        -11    1    1    2    0    0  0.39603994745E+02 -0.33069992239E+02  0.60164071371E+02  0.79257909828E+02  0.00000000000E+00 0.  1.
         11    1    1    2    0    0 -0.36808288005E+02 -0.40743504209E+02  0.18205150203E+03  0.19015160423E+03  0.00000000000E+00 0. -1.
</event>
<event>
 7    1  0.2719869E-009  0.1840275E+03  0.7561462E-02  0.1163961E+00
         -1   -1    0    0    0  501 -0.00000000000E+00  0.00000000000E+00  0.43789918651E+02  0.43789918651E+02  0.00000000000E+00 0.  1.
          1   -1    0    0  501    0  0.00000000000E+00 -0.00000000000E+00 -0.10070054993E+04  0.10070054993E+04  0.00000000000E+00 0. -1.
         25    2    1    2    0    0 -0.63105059780E+00  0.16266970114E+03 -0.30834553865E+03  0.37038624805E+03  0.12508865514E+03 0.  0.
          5    1    3    3  502    0 -0.41943717706E+02  0.63320874545E+02 -0.21437490301E+03  0.22747061360E+03  0.41800000000E+01 0. -1.
         -5    1    3    3    0  502  0.41312667108E+02  0.99348826590E+02 -0.93970635643E+02  0.14291563445E+03  0.41800000000E+01 0. -1.
        -11    1    1    2    0    0  0.34542388100E+02 -0.25300105380E+02 -0.17067478645E+03  0.17596350371E+03  0.00000000000E+00 0.  1.
         11    1    1    2    0    0 -0.33911337502E+02 -0.13736959576E+03 -0.48419525558E+03  0.50444566623E+03  0.00000000000E+00 0. -1.
</event>
<event>
 7    1  0.2719869E-009  0.4675047E+02  0.7561462E-02  0.1463701E+00
          1   -1    0    0  501    0  0.00000000000E+00  0.00000000000E+00  0.46790187660E+02  0.46790187660E+02  0.00000000000E+00 0. -1.
         -1   -1    0    0    0  501 -0.00000000000E+00 -0.00000000000E+00 -0.30236738035E+03  0.30236738035E+03  0.00000000000E+00 0.  1.
         25    2    1    2    0    0  0.31656179963E+02  0.13395296535E+02 -0.16643185425E+03  0.21102034768E+03  0.12509387405E+03 0.  0.
          5    1    3    3  502    0  0.67329029028E+01  0.11690497489E+02 -0.18116735931E+03  0.18171704431E+03  0.41800000000E+01 0. -1.
         -5    1    3    3    0  502  0.24923277060E+02  0.17047990457E+01  0.14735505054E+02  0.29303303370E+02  0.41800000000E+01 0. -1.
        -11    1    1    2    0    0 -0.13973718618E+02 -0.27883306602E+02  0.12760927113E+02  0.33698440021E+02  0.00000000000E+00 0. -1.
         11    1    1    2    0    0 -0.17682461345E+02  0.14488010067E+02 -0.10190626555E+03  0.10443878031E+03  0.00000000000E+00 0.  1.
</event>
<event>
 7    1  0.2719869E-009  0.1765323E+03  0.7561462E-02  0.1171202E+00
         -1   -1    0    0    0  501 -0.00000000000E+00  0.00000000000E+00  0.11670983438E+03  0.11670983438E+03  0.00000000000E+00 0.  1.
          1   -1    0    0  501    0  0.00000000000E+00 -0.00000000000E+00 -0.39687852776E+03  0.39687852776E+03  0.00000000000E+00 0. -1.
         25    2    1    2    0    0  0.15789222921E+03  0.55780634314E+02 -0.50859851970E+02  0.21511837808E+03  0.12509099422E+03 0.  0.
          5    1    3    3  502    0  0.29427081658E+02  0.46162700399E+02  0.30391023563E+02  0.62753762885E+02  0.41800000000E+01 0.  1.
         -5    1    3    3    0  502  0.12846514755E+03  0.96179339156E+01 -0.81250875533E+02  0.15236461519E+03  0.41800000000E+01 0.  1.
        -11    1    1    2    0    0 -0.58866864980E+02 -0.83026529118E+01 -0.21115536288E+02  0.63088094841E+02  0.00000000000E+00 0.  1.
         11    1    1    2    0    0 -0.99025364226E+02 -0.47477981402E+02 -0.20819330512E+03  0.23538188923E+03  0.00000000000E+00 0. -1.
</event>
<event>
 7    1  0.2719869E-009  0.1331340E+03  0.7561462E-02  0.1222878E+00
         -1   -1    0    0    0  501 -0.00000000000E+00  0.00000000000E+00  0.31052633929E+02  0.31052633929E+02  0.00000000000E+00 0.  1.
          1   -1    0    0  501    0  0.00000000000E+00 -0.00000000000E+00 -0.76704463240E+03  0.76704463240E+03  0.00000000000E+00 0. -1.
         25    2    1    2    0    0 -0.90953106174E+02  0.31262713723E+02 -0.51432454544E+03  0.53798438643E+03  0.12509051604E+03 0.  0.
          5    1    3    3  502    0 -0.10479948188E+03  0.62414750975E+02 -0.36917677336E+03  0.38882836179E+03  0.41800000000E+01 0.  1.
         -5    1    3    3    0  502  0.13846375711E+02 -0.31152037252E+02 -0.14514777209E+03  0.14915602464E+03  0.41800000000E+01 0.  1.
        -11    1    1    2    0    0  0.48973779928E+02 -0.44174081303E+02 -0.49583046151E+02  0.82512175132E+02  0.00000000000E+00 0.  1.
         11    1    1    2    0    0  0.41979326246E+02  0.12911367580E+02 -0.17208440688E+03  0.17760070477E+03  0.00000000000E+00 0. -1.
</event>
<event>
 7    1  0.2719869E-009  0.1067213E+03  0.7561462E-02  0.1266765E+00
         -1   -1    0    0    0  501 -0.00000000000E+00  0.00000000000E+00  0.20610056414E+03  0.20610056414E+03  0.00000000000E+00 0.  1.
          1   -1    0    0  501    0  0.00000000000E+00 -0.00000000000E+00 -0.69911710663E+02  0.69911710663E+02  0.00000000000E+00 0. -1.
         25    2    1    2    0    0 -0.13146628525E+02 -0.70224731108E+01  0.14015302157E+03  0.18844730199E+03  0.12508943681E+03 0.  0.
          5    1    3    3  502    0  0.49703898502E+02  0.24459514482E+02  0.62328034093E+02  0.83492524270E+02  0.41800000000E+01 0.  1.
         -5    1    3    3    0  502 -0.62850527027E+02 -0.31481987593E+02  0.77824987477E+02  0.10495477772E+03  0.41800000000E+01 0.  1.
        -11    1    1    2    0    0  0.21213242327E+02  0.44413267668E+02 -0.26881950101E+01  0.49292660583E+02  0.00000000000E+00 0. -1.
         11    1    1    2    0    0 -0.80666138024E+01 -0.37390794557E+02 -0.12759730858E+01  0.38272312227E+02  0.00000000000E+00 0.  1.
</event>
<event>
 7    1  0.2719869E-009  0.1007436E+03  0.7561462E-02  0.1278740E+00
         -2   -1    0    0    0  501 -0.00000000000E+00  0.00000000000E+00  0.30929231693E+02  0.30929231693E+02  0.00000000000E+00 0.  1.
          2   -1    0    0  501    0  0.00000000000E+00 -0.00000000000E+00 -0.10033405876E+04  0.10033405876E+04  0.00000000000E+00 0. -1.
         25    2    1    2    0    0 -0.27440905429E+02  0.75215054614E+02 -0.84630277491E+03  0.85923589412E+03  0.12509047601E+03 0.  0.
          5    1    3    3  502    0 -0.70765028252E+01  0.32344821797E+02 -0.75936958704E+03  0.76010256315E+03  0.41800000000E+01 0. -1.
         -5    1    3    3    0  502 -0.20364402603E+02  0.42870232816E+02 -0.86933187868E+02  0.99133330964E+02  0.41800000000E+01 0. -1.
        -11    1    1    2    0    0 -0.33221838973E+02 -0.30601503831E+02 -0.37145179190E+02  0.58479970575E+02  0.00000000000E+00 0.  1.
         11    1    1    2    0    0  0.60662744401E+02 -0.44613550783E+02 -0.88963401806E+02  0.11655395460E+03  0.00000000000E+00 0. -1.
</event>
<event>
 7    1  0.2821365E-009  0.1341632E+03  0.7561462E-02  0.1221406E+00
          1   -1    0    0  501    0  0.00000000000E+00  0.00000000000E+00  0.18540600961E+03  0.18540600961E+03  0.00000000000E+00 0. -1.
         -1   -1    0    0    0  501 -0.00000000000E+00 -0.00000000000E+00 -0.13342952715E+03  0.13342952715E+03  0.00000000000E+00 0.  1.
         25    2    1    2    0    0 -0.10732486272E+03  0.88264559112E+01 -0.98650578172E+01  0.16535135182E+03  0.12508883923E+03 0.  0.
          5    1    3    3  502    0  0.26326287939E+02  0.58149039977E+00  0.12634869076E+02  0.29504641742E+02  0.41800000000E+01 0.  1.
         -5    1    3    3    0  502 -0.13365115066E+03  0.82449655115E+01 -0.22499926893E+02  0.13584671007E+03  0.41800000000E+01 0.  1.
        -11    1    1    2    0    0  0.54465732000E+02 -0.50679507590E+01 -0.18061372570E+02  0.57605670436E+02  0.00000000000E+00 0.  1.
         11    1    1    2    0    0  0.52859130716E+02 -0.37585051522E+01  0.79902912849E+02  0.95878514501E+02  0.00000000000E+00 0. -1.
</event>
<event>
 7    1  0.2719869E-009  0.1110826E+03  0.7561462E-02  0.1258578E+00
         -3   -1    0    0    0  501 -0.00000000000E+00  0.00000000000E+00  0.15338607817E+03  0.15338607817E+03  0.00000000000E+00 0.  1.
          3   -1    0    0  501    0  0.00000000000E+00 -0.00000000000E+00 -0.14888360642E+03  0.14888360642E+03  0.00000000000E+00 0. -1.
         25    2    1    2    0    0 -0.69965537913E+02 -0.17894858906E+02 -0.74275720065E+02  0.16241795700E+03  0.12508919895E+03 0.  0.
          5    1    3    3  502    0  0.29907908809E+02  0.17150591046E+02 -0.35379110576E+02  0.49575998706E+02  0.41800000000E+01 0. -1.
         -5    1    3    3    0  502 -0.99873446722E+02 -0.35045449952E+02 -0.38896609490E+02  0.11284195830E+03  0.41800000000E+01 0. -1.
        -11    1    1    2    0    0  0.68890004230E+02  0.55442905764E+01  0.96210216719E+02  0.11846086967E+03  0.00000000000E+00 0.  1.
         11    1    1    2    0    0  0.10755336822E+01  0.12350568330E+02 -0.17432024903E+02  0.21390857930E+02  0.00000000000E+00 0. -1.
</event>
<event>
 7    1  0.2719869E-009  0.1505334E+03  0.7561462E-02  0.1199819E+00
         -2   -1    0    0    0  501 -0.00000000000E+00  0.00000000000E+00  0.75720117926E+02  0.75720117926E+02  0.00000000000E+00 0.  1.
          2   -1    0    0  501    0  0.00000000000E+00 -0.00000000000E+00 -0.34164355078E+03  0.34164355078E+03  0.00000000000E+00 0. -1.
         25    2    1    2    0    0 -0.12202181703E+03  0.31209036398E+02 -0.15040103299E+03  0.23266139946E+03  0.12509008069E+03 0.  0.
          5    1    3    3  502    0 -0.12753278607E+03  0.25268814719E+01 -0.66892462424E+02  0.14409396442E+03  0.41800000000E+01 0.  1.
         -5    1    3    3    0  502  0.55109690326E+01  0.28682154926E+02 -0.83508570570E+02  0.88567435040E+02  0.41800000000E+01 0.  1.
        -11    1    1    2    0    0  0.96816119777E+02  0.81925191312E+01 -0.73606691178E+02  0.12189513282E+03  0.00000000000E+00 0.  1.
         11    1    1    2    0    0  0.25205697258E+02 -0.39401555529E+02 -0.41915708678E+02  0.62807136429E+02  0.00000000000E+00 0. -1.
</event>
<event>
 7    1  0.2719869E-009  0.2743449E+03  0.7561462E-02  0.1098818E+00
         -1   -1    0    0    0  501 -0.00000000000E+00  0.00000000000E+00  0.70074248982E+03  0.70074248982E+03  0.00000000000E+00 0.  1.
          1   -1    0    0  501    0  0.00000000000E+00 -0.00000000000E+00 -0.11186308797E+03  0.11186308797E+03  0.00000000000E+00 0. -1.
         25    2    1    2    0    0 -0.25675040511E+03 -0.29658059278E+01  0.28879171488E+03  0.40617505006E+03  0.12509176704E+03 0.  0.
          5    1    3    3  502    0 -0.23371496925E+03  0.31925276287E+02  0.20544924378E+03  0.31283985406E+03  0.41800000000E+01 0.  1.
         -5    1    3    3    0  502 -0.23035435856E+02 -0.34891082215E+02  0.83342471104E+02  0.93335196003E+02  0.41800000000E+01 0.  1.
        -11    1    1    2    0    0  0.11260505242E+03 -0.41332390600E+02  0.16485906664E+03  0.20387931772E+03  0.00000000000E+00 0. -1.
         11    1    1    2    0    0  0.14414535269E+03  0.44298196528E+02  0.13522862034E+03  0.20255121001E+03  0.00000000000E+00 0.  1.
</event>
<event>
 7    1  0.2719869E-009  0.1142999E+03  0.7561462E-02  0.1252808E+00
         -1   -1    0    0    0  501 -0.00000000000E+00  0.00000000000E+00  0.70762872696E+02  0.70762872696E+02  0.00000000000E+00 0.  1.
          1   -1    0    0  501    0  0.00000000000E+00 -0.00000000000E+00 -0.40390685852E+03  0.40390685852E+03  0.00000000000E+00 0. -1.
         25    2    1    2    0    0  0.55104717427E+02  0.99054144490E+02 -0.26332662363E+03  0.31278857749E+03  0.12509008782E+03 0.  0.
          5    1    3    3  502    0  0.20327608962E+01  0.88722772504E+01 -0.17641336385E+03  0.17669747244E+03  0.41800000000E+01 0. -1.
         -5    1    3    3    0  502  0.53071956531E+02  0.90181867240E+02 -0.86913259783E+02  0.13609110505E+03  0.41800000000E+01 0. -1.
        -11    1    1    2    0    0 -0.34492299179E+01 -0.13394755965E+02  0.22074933870E+02  0.26050323986E+02  0.00000000000E+00 0.  1.
         11    1    1    2    0    0 -0.51655487509E+02 -0.85659388525E+02 -0.91892296060E+02  0.13583082974E+03  0.00000000000E+00 0. -1.
</event>
<event>
 7    1  0.2719869E-009  0.1067205E+03  0.7561462E-02  0.1266766E+00
          1   -1    0    0  501    0  0.00000000000E+00  0.00000000000E+00  0.69341070405E+03  0.69341070405E+03  0.00000000000E+00 0. -1.
         -1   -1    0    0    0  501 -0.00000000000E+00 -0.00000000000E+00 -0.27648634880E+02  0.27648634880E+02  0.00000000000E+00 0.  1.
         25    2    1    2    0    0 -0.25965768518E+02 -0.50588234396E+02  0.53717014125E+03  0.55446471188E+03  0.12508383378E+03 0.  0.
          5    1    3    3  502    0  0.68601867602E+01  0.28259880455E+02  0.31563241076E+03  0.31699680460E+03  0.41800000000E+01 0.  1.
         -5    1    3    3    0  502 -0.32825955278E+02 -0.78848114851E+02  0.22153773049E+03  0.23746790728E+03  0.41800000000E+01 0.  1.
        -11    1    1    2    0    0  0.39755512959E+02 -0.60900517945E+01  0.23998533364E+02  0.46835020499E+02  0.00000000000E+00 0.  1.
         11    1    1    2    0    0 -0.13789744441E+02  0.56678286190E+02  0.10459339455E+03  0.11975960655E+03  0.00000000000E+00 0. -1.
</event>
<event>
 7    1  0.2719869E-009  0.1445223E+03  0.7561462E-02  0.1207370E+00
         -1   -1    0    0    0  501 -0.00000000000E+00  0.00000000000E+00  0.12024741268E+03  0.12024741268E+03  0.00000000000E+00 0.  1.
          1   -1    0    0  501    0  0.00000000000E+00 -0.00000000000E+00 -0.25319832391E+03  0.25319832391E+03  0.00000000000E+00 0. -1.
         25    2    1    2    0    0  0.97885191357E+01  0.13625221889E+03 -0.70895162686E+02  0.19832308134E+03  0.12508172624E+03 0.  0.
          5    1    3    3  502    0 -0.69900658021E+01  0.99969207753E+02  0.16947299670E+02  0.10172210618E+03  0.41800000000E+01 0.  1.
         -5    1    3    3    0  502  0.16778584938E+02  0.36283011138E+02 -0.87842462356E+02  0.96600975163E+02  0.41800000000E+01 0.  1.
        -11    1    1    2    0    0  0.24297012432E+02 -0.69033233064E+02 -0.67498837385E+02  0.99559153918E+02  0.00000000000E+00 0. -1.
         11    1    1    2    0    0 -0.34085531568E+02 -0.67218985827E+02  0.54430888408E+01  0.75563501335E+02  0.00000000000E+00 0.  1.
</event>
<event>
 7    1  0.2719869E-009  0.1464808E+03  0.7561462E-02  0.1204865E+00
          2   -1    0    0  501    0  0.00000000000E+00  0.00000000000E+00  0.13170665892E+03  0.13170665892E+03  0.00000000000E+00 0. -1.
         -2   -1    0    0    0  501 -0.00000000000E+00 -0.00000000000E+00 -0.17092162064E+03  0.17092162064E+03  0.00000000000E+00 0.  1.
         25    2    1    2    0    0 -0.21785277018E+02  0.96256473989E+02 -0.50980413402E+02  0.16729395819E+03  0.12509340037E+03 0.  0.
          5    1    3    3  502    0 -0.63957853479E+02  0.97066381984E+02 -0.43861791070E+02  0.12431338886E+03  0.41800000000E+01 0. -1.
         -5    1    3    3    0  502  0.42172576461E+02 -0.80990799487E+00 -0.71186223312E+01  0.42980569333E+02  0.41800000000E+01 0. -1.
        -11    1    1    2    0    0 -0.11595061934E+02 -0.99996968909E+02  0.34258058071E+01  0.10072524707E+03  0.00000000000E+00 0.  1.
         11    1    1    2    0    0  0.33380338952E+02  0.37404949198E+01  0.83396458744E+01  0.34609074303E+02  0.00000000000E+00 0. -1.
</event>
<event>
 7    1  0.2719869E-009  0.1209025E+03  0.7561462E-02  0.1241616E+00
         -2   -1    0    0    0  501 -0.00000000000E+00  0.00000000000E+00  0.69241408462E+02  0.69241408462E+02  0.00000000000E+00 0.  1.
          2   -1    0    0  501    0  0.00000000000E+00 -0.00000000000E+00 -0.56186020563E+03  0.56186020563E+03  0.00000000000E+00 0. -1.
         25    2    1    2    0    0  0.70981736741E+02  0.42189899068E+02 -0.48798592874E+03  0.51047995871E+03  0.12506449162E+03 0.  0.
          5    1    3    3  502    0  0.64801816809E+02  0.79545141150E+02 -0.42175762083E+03  0.43407795161E+03  0.41800000000E+01 0.  1.
         -5    1    3    3    0  502  0.61799199312E+01 -0.37355242082E+02 -0.66228307911E+02  0.76402007107E+02  0.41800000000E+01 0.  1.
        -11    1    1    2    0    0 -0.55268558042E+02  0.78040820134E+00 -0.35260806637E+02  0.65563305512E+02  0.00000000000E+00 0. -1.
         11    1    1    2    0    0 -0.15713178698E+02 -0.42970307270E+02  0.30627938206E+02  0.55058349870E+02  0.00000000000E+00 0.  1.
</event>
<event>
 6    1  0.2719869E-009  0.1397447E+03  0.7561462E-02  0.1213673E+00
         -3   -1    0    0    0  501 -0.00000000000E+00  0.00000000000E+00  0.21033122618E+03  0.21033122618E+03  0.00000000000E+00 0.  1.
          3   -1    0    0  501    0  0.00000000000E+00 -0.00000000000E+00 -0.99600042879E+02  0.99600042879E+02  0.00000000000E+00 0. -1.
          5    1    1    2  502    0 -0.24790275463E+02  0.19165855017E+02  0.12200853460E+02  0.33885409562E+02  0.41800000000E+01 0.  1.
         -5    1    1    2    0  502  0.88786279599E+02 -0.85621723245E+02  0.74291407902E+02  0.14405127082E+03  0.41800000000E+01 0.  1.
        -11    1    1    2    0    0 -0.19772853739E+01  0.62269272705E+02 -0.65196545941E+01  0.62640864272E+02  0.00000000000E+00 0. -1.
         11    1    1    2    0    0 -0.62018718762E+02  0.41865955221E+01  0.30758576538E+02  0.69353724411E+02  0.00000000000E+00 0.  1.
</event>
<event>
 7    1  0.2719869E-009  0.1074700E+03  0.7561462E-02  0.1265328E+00
          1   -1    0    0  501    0  0.00000000000E+00  0.00000000000E+00  0.44875390467E+03  0.44875390467E+03  0.00000000000E+00 0. -1.
         -1   -1    0    0    0  501 -0.00000000000E+00 -0.00000000000E+00 -0.27508601528E+02  0.27508601528E+02  0.00000000000E+00 0.  1.
         25    2    1    2    0    0  0.29357365898E+01  0.16081235646E+02  0.27797039487E+03  0.30525658025E+03  0.12508722824E+03 0.  0.
          5    1    3    3  502    0  0.52623566638E+02  0.43892829725E+02  0.16380954119E+03  0.17761435317E+03  0.41800000000E+01 0.  1.
         -5    1    3    3    0  502 -0.49687830048E+02 -0.27811594079E+02  0.11416085369E+03  0.12764222708E+03  0.41800000000E+01 0.  1.
        -11    1    1    2    0    0 -0.43095403588E+02 -0.22348958825E+02  0.10259081038E+03  0.11349697857E+03  0.00000000000E+00 0.  1.
         11    1    1    2    0    0  0.40159666998E+02  0.62677231786E+01  0.40684097888E+02  0.57508947375E+02  0.00000000000E+00 0. -1.
</event>
<event>
 7    1  0.2719869E-009  0.8775388E+02  0.7561462E-02  0.1308384E+00
          2   -1    0    0  501    0  0.00000000000E+00  0.00000000000E+00  0.12868876748E+03  0.12868876748E+03  0.00000000000E+00 0.  1.
         -2   -1    0    0    0  501 -0.00000000000E+00 -0.00000000000E+00 -0.10468588625E+03  0.10468588625E+03  0.00000000000E+00 0. -1.
         25    2    1    2    0    0 -0.52945014528E+01 -0.36979490316E+02  0.35897321690E+02  0.13539329117E+03  0.12508881300E+03 0.  0.
          5    1    3    3  502    0  0.14541594632E+02 -0.66521013753E+02 -0.18109642397E+02  0.70582822223E+02  0.41800000000E+01 0.  1.
         -5    1    3    3    0  502 -0.19836096085E+02  0.29541523437E+02  0.54006964087E+02  0.64810468944E+02  0.41800000000E+01 0.  1.
        -11    1    1    2    0    0 -0.20247257950E+02 -0.63005629813E+01 -0.36357000672E+02  0.42088953969E+02  0.00000000000E+00 0. -1.
         11    1    1    2    0    0  0.25541759403E+02  0.43280053298E+02  0.24462560209E+02  0.55892408598E+02  0.00000000000E+00 0.  1.
</event>
<event>
 7    1  0.2719869E-009  0.1939534E+03  0.7561462E-02  0.1154943E+00
          1   -1    0    0  501    0  0.00000000000E+00  0.00000000000E+00  0.11872224050E+03  0.11872224050E+03  0.00000000000E+00 0. -1.
         -1   -1    0    0    0  501 -0.00000000000E+00 -0.00000000000E+00 -0.34761008390E+03  0.34761008390E+03  0.00000000000E+00 0.  1.
         25    2    1    2    0    0  0.13054082508E+03 -0.10650597895E+03 -0.15466783066E+03  0.26067935546E+03  0.12508860044E+03 0.  0.
          5    1    3    3  502    0  0.49492358416E+02 -0.11697786150E+03 -0.82019931613E+02  0.15125493448E+03  0.41800000000E+01 0. -1.
         -5    1    3    3    0  502  0.81048466659E+02  0.10471882547E+02 -0.72647899044E+02  0.10942442098E+03  0.41800000000E+01 0. -1.
        -11    1    1    2    0    0 -0.40034873394E+02  0.71513336873E+02 -0.71209189416E+02  0.10857116144E+03  0.00000000000E+00 0.  1.
         11    1    1    2    0    0 -0.90505951681E+02  0.34992642082E+02 -0.30108233285E+01  0.97081807496E+02  0.00000000000E+00 0. -1.
</event>
<event>
 7    1  0.2719869E-009  0.1272654E+03  0.7561462E-02  0.1231571E+00
          1   -1    0    0  501    0  0.00000000000E+00  0.00000000000E+00  0.22333722526E+03  0.22333722526E+03  0.00000000000E+00 0. -1.
         -1   -1    0    0    0  501 -0.00000000000E+00 -0.00000000000E+00 -0.11148500364E+03  0.11148500364E+03  0.00000000000E+00 0.  1.
         25    2    1    2    0    0 -0.99832404699E+02  0.53497411354E+02  0.80461712557E+02  0.18695410273E+03  0.12509703150E+03 0.  0.
          5    1    3    3  502    0 -0.97092019329E+02  0.46225780766E+02  0.16279787529E+01  0.10762808992E+03  0.41800000000E+01 0. -1.
         -5    1    3    3    0  502 -0.27403853700E+01  0.72716305885E+01  0.78833733804E+02  0.79326012814E+02  0.41800000000E+01 0. -1.
        -11    1    1    2    0    0  0.45279356780E+02  0.17510285565E+02 -0.94365836394E+01  0.49455832434E+02  0.00000000000E+00 0.  1.
         11    1    1    2    0    0  0.54553047919E+02 -0.71007696919E+02  0.40827092696E+02  0.98412293729E+02  0.00000000000E+00 0. -1.
</event>
<event>
 7    1  0.2719869E-009  0.9458739E+02  0.7561462E-02  0.1292108E+00
         -1   -1    0    0    0  501 -0.00000000000E+00  0.00000000000E+00  0.28267191701E+02  0.28267191701E+02  0.00000000000E+00 0.  1.
          1   -1    0    0  501    0  0.00000000000E+00 -0.00000000000E+00 -0.67156239628E+03  0.67156239628E+03  0.00000000000E+00 0. -1.
         25    2    1    2    0    0  0.40797348731E+02 -0.51982005215E+02 -0.48301644836E+03  0.50330766399E+03  0.12508861945E+03 0.  0.
          5    1    3    3  502    0  0.22505726514E+02 -0.66892646468E+02 -0.11838801962E+03  0.13789245617E+03  0.41800000000E+01 0.  1.
         -5    1    3    3    0  502  0.18291622217E+02  0.14910641253E+02 -0.36462842873E+03  0.36541520782E+03  0.41800000000E+01 0.  1.
        -11    1    1    2    0    0 -0.32631451567E+02 -0.83037207017E+01 -0.11729589576E+03  0.12203315357E+03  0.00000000000E+00 0.  1.
         11    1    1    2    0    0 -0.81658971637E+01  0.60285725916E+02 -0.42982860472E+02  0.74488770430E+02  0.00000000000E+00 0. -1.
</event>
<event>
 7    1  0.2719869E-009  0.1521435E+03  0.7561462E-02  0.1197864E+00
          1   -1    0    0  501    0  0.00000000000E+00  0.00000000000E+00  0.10701218280E+04  0.10701218280E+04  0.00000000000E+00 0. -1.
         -1   -1    0    0    0  501 -0.00000000000E+00 -0.00000000000E+00 -0.23269955183E+02  0.23269955183E+02  0.00000000000E+00 0.  1.
         25    2    1    2    0    0 -0.17682707742E+02 -0.10489800235E+03  0.70401671634E+03  0.72291408980E+03  0.12509586443E+03 0.  0.
          5    1    3    3  502    0  0.48622582034E+02 -0.12491897429E+02  0.21017629729E+03  0.21612901547E+03  0.41800000000E+01 0.  1.
         -5    1    3    3    0  502 -0.66305289776E+02 -0.92406104918E+02  0.49384041905E+03  0.50678507433E+03  0.41800000000E+01 0.  1.
        -11    1    1    2    0    0  0.50326367574E+02  0.30475568856E+02  0.15640590058E+03  0.16710568305E+03  0.00000000000E+00 0.  1.
         11    1    1    2    0    0 -0.32643659832E+02  0.74422433491E+02  0.18642925592E+03  0.20337201035E+03  0.00000000000E+00 0. -1.
</event>
<event>
 7    1  0.2719869E-009  0.1365819E+03  0.7561462E-02  0.1218004E+00
          4   -1    0    0  501    0  0.00000000000E+00  0.00000000000E+00  0.53231402174E+03  0.53231402174E+03  0.00000000000E+00 0. -1.
         -4   -1    0    0    0  501 -0.00000000000E+00 -0.00000000000E+00 -0.39848013496E+02  0.39848013496E+02  0.00000000000E+00 0.  1.
         25    2    1    2    0    0  0.32284825182E+02  0.76208408428E+02  0.30090516412E+03  0.33621770790E+03  0.12509355643E+03 0.  0.
          5    1    3    3  502    0 -0.38084944171E+02 -0.65666749676E+01  0.10799972614E+03  0.11478239168E+03  0.41800000000E+01 0. -1.
         -5    1    3    3    0  502  0.70369769353E+02  0.82775083396E+02  0.19290543798E+03  0.22143531622E+03  0.41800000000E+01 0. -1.
        -11    1    1    2    0    0 -0.34902355625E+02 -0.97787378591E+02  0.10886697463E+03  0.15044123106E+03  0.00000000000E+00 0.  1.
         11    1    1    2    0    0  0.26175304430E+01  0.21578970163E+02  0.82693869502E+02  0.85503096272E+02  0.00000000000E+00 0. -1.
</event>
<event>
 7    1  0.2719869E-009  0.9804469E+02  0.7561462E-02  0.1284462E+00
         -3   -1    0    0    0  501 -0.00000000000E+00  0.00000000000E+00  0.36654282369E+02  0.36654282369E+02  0.00000000000E+00 0.  1.
          3   -1    0    0  501    0  0.00000000000E+00 -0.00000000000E+00 -0.37852352090E+03  0.37852352090E+03  0.00000000000E+00 0. -1.
         25    2    1    2    0    0  0.85015978538E+01  0.50081122672E+02 -0.19040645514E+03  0.23342000351E+03  0.12509949585E+03 0.  0.
          5    1    3    3  502    0  0.31170892939E+02 -0.13575931108E+02 -0.32668404151E+01  0.34410392592E+02  0.41800000000E+01 0.  1.
         -5    1    3    3    0  502 -0.22669295085E+02  0.63657053781E+02 -0.18713961473E+03  0.19900961092E+03  0.41800000000E+01 0.  1.
        -11    1    1    2    0    0  0.31362291894E+02 -0.16509593220E+01 -0.23422343339E+02  0.39178121280E+02  0.00000000000E+00 0.  1.
         11    1    1    2    0    0 -0.39863889748E+02 -0.48430163350E+02 -0.12804044005E+03  0.14257967848E+03  0.00000000000E+00 0. -1.
</event>
<event>
 7    1  0.2719869E-009  0.1228650E+03  0.7561462E-02  0.1238444E+00
          2   -1    0    0  501    0  0.00000000000E+00  0.00000000000E+00  0.16348654531E+03  0.16348654531E+03  0.00000000000E+00 0. -1.
         -2   -1    0    0    0  501 -0.00000000000E+00 -0.00000000000E+00 -0.11521004735E+03  0.11521004735E+03  0.00000000000E+00 0.  1.
         25    2    1    2    0    0 -0.75598824660E+02  0.48335357273E+00  0.63778593636E+02  0.15947341614E+03  0.12509454636E+03 0.  0.
          5    1    3    3  502    0  0.19216624394E+02 -0.33644957664E+02 -0.20657691970E+01  0.39025653507E+02  0.41800000000E+01 0.  1.
         -5    1    3    3    0  502 -0.94815449053E+02  0.34128311237E+02  0.65844362833E+02  0.12044776264E+03  0.41800000000E+01 0.  1.
        -11    1    1    2    0    0  0.77231302641E+02 -0.25117974329E+02 -0.34333468568E+02  0.88172409551E+02  0.00000000000E+00 0.  1.
         11    1    1    2    0    0 -0.16324779810E+01  0.24634620756E+02  0.18831372891E+02  0.31050766965E+02  0.00000000000E+00 0. -1.
</event>
<event>
 7    1  0.2719869E-009  0.1008677E+03  0.7561462E-02  0.1278482E+00
         -4   -1    0    0    0  501 -0.00000000000E+00  0.00000000000E+00  0.12234720534E+03  0.12234720534E+03  0.00000000000E+00 0.  1.
          4   -1    0    0  501    0  0.00000000000E+00 -0.00000000000E+00 -0.11149430597E+03  0.11149430597E+03  0.00000000000E+00 0. -1.
         25    2    1    2    0    0 -0.23881907777E+02 -0.32808567693E+02  0.23298264807E+02  0.13355540092E+03  0.12508992101E+03 0.  0.
          5    1    3    3  502    0  0.35863835435E+02  0.18898349131E+02  0.34812326609E+02  0.53597880330E+02  0.41800000000E+01 0. -1.
         -5    1    3    3    0  502 -0.59745743212E+02 -0.51706916824E+02 -0.11514061802E+02  0.79957520588E+02  0.41800000000E+01 0. -1.
        -11    1    1    2    0    0 -0.25025133633E+02  0.47442139289E+01  0.22468815127E+02  0.33964872035E+02  0.00000000000E+00 0.  1.
         11    1    1    2    0    0  0.48907041410E+02  0.28064353764E+02 -0.34914180567E+02  0.66321238351E+02  0.00000000000E+00 0. -1.
</event>
<event>
 7    1  0.2719869E-009  0.1446797E+03  0.7561462E-02  0.1207167E+00
          2   -1    0    0  501    0  0.00000000000E+00  0.00000000000E+00  0.48816449781E+03  0.48816449781E+03  0.00000000000E+00 0. -1.
         -2   -1    0    0    0  501 -0.00000000000E+00 -0.00000000000E+00 -0.60988594354E+02  0.60988594354E+02  0.00000000000E+00 0.  1.
         25    2    1    2    0    0  0.91166487971E+02  0.67186588257E+02  0.34205170354E+03  0.38140832708E+03  0.12509027901E+03 0.  0.
          5    1    3    3  502    0  0.90375230107E+00  0.68670360935E+02  0.87631506546E+02  0.11141448999E+03  0.41800000000E+01 0. -1.
         -5    1    3    3    0  502  0.90262735670E+02 -0.14837726775E+01  0.25442019699E+03  0.26999383710E+03  0.41800000000E+01 0. -1.
        -11    1    1    2    0    0 -0.27376590827E+02 -0.60050507568E+02  0.66022064383E+01  0.66325939981E+02  0.00000000000E+00 0.  1.
         11    1    1    2    0    0 -0.63789897145E+02 -0.71360806894E+01  0.78521993481E+02  0.10141882510E+03  0.00000000000E+00 0. -1.
</event>
<event>
 7    1  0.2719869E-009  0.1099335E+03  0.7561462E-02  0.1260693E+00
          1   -1    0    0  501    0  0.00000000000E+00  0.00000000000E+00  0.33274037372E+03  0.33274037372E+03  0.00000000000E+00 0. -1.
         -1   -1    0    0    0  501 -0.00000000000E+00 -0.00000000000E+00 -0.40187305171E+02  0.40187305171E+02  0.00000000000E+00 0.  1.
         25    2    1    2    0    0 -0.59431212624E+01  0.28672124296E+02  0.12484441365E+03  0.17913934476E+03  0.12508943130E+03 0.  0.
          5    1    3    3  502    0  0.48647950528E+02 -0.17044615937E+02  0.78750648496E+02  0.94214006716E+02  0.41800000000E+01 0.  1.
         -5    1    3    3    0  502 -0.54591071790E+02  0.45716740234E+02  0.46093765150E+02  0.84925338047E+02  0.41800000000E+01 0.  1.
        -11    1    1    2    0    0  0.47961108252E+02 -0.26390736051E+02  0.87545530781E+02  0.10325191918E+03  0.00000000000E+00 0. -1.
         11    1    1    2    0    0 -0.42017986989E+02 -0.22813882456E+01  0.80163124122E+02  0.90536414950E+02  0.00000000000E+00 0.  1.
</event>
<event>
 7    1  0.2719869E-009  0.6160011E+02  0.7561462E-02  0.1391237E+00
         -1   -1    0    0    0  501 -0.00000000000E+00  0.00000000000E+00  0.53531406074E+02  0.53531406074E+02  0.00000000000E+00 0.  1.
          1   -1    0    0  501    0  0.00000000000E+00 -0.00000000000E+00 -0.28354321425E+03  0.28354321425E+03  0.00000000000E+00 0. -1.
         25    2    1    2    0    0 -0.21419122260E+02  0.56721133222E+02 -0.15505260792E+03  0.20824714253E+03  0.12509794322E+03 0.  0.
          5    1    3    3  502    0 -0.57122262808E+01  0.96980234287E+01 -0.15795404721E+03  0.15840970494E+03  0.41800000000E+01 0. -1.
         -5    1    3    3    0  502 -0.15706895979E+02  0.47023109793E+02  0.29014392955E+01  0.49837437593E+02  0.41800000000E+01 0. -1.
        -11    1    1    2    0    0  0.19567268734E+02 -0.39101206039E+02  0.76079552802E+01  0.44380888938E+02  0.00000000000E+00 0.  1.
         11    1    1    2    0    0  0.18518535261E+01 -0.17619927183E+02 -0.82567155537E+02  0.84446588853E+02  0.00000000000E+00 0. -1.
</event>
<event>
 7    1  0.2719869E-009  0.9545248E+02  0.7561462E-02  0.1290160E+00
         -1   -1    0    0    0  501 -0.00000000000E+00  0.00000000000E+00  0.65243343303E+02  0.65243343303E+02  0.00000000000E+00 0.  1.
          1   -1    0    0  501    0  0.00000000000E+00 -0.00000000000E+00 -0.26850005133E+03  0.26850005133E+03  0.00000000000E+00 0. -1.
         25    2    1    2    0    0  0.69052459803E+02  0.74151977861E+01 -0.73704649083E+02  0.16093540369E+03  0.12507838143E+03 0.  0.
          5    1    3    3  502    0  0.22422704650E+02  0.18564244810E+02 -0.10128395975E+03  0.10546715969E+03  0.41800000000E+01 0. -1.
         -5    1    3    3    0  502  0.46629755152E+02 -0.11149047024E+02  0.27579310671E+02  0.55468243998E+02  0.41800000000E+01 0. -1.
        -11    1    1    2    0    0 -0.69613227138E+02 -0.40329101834E+02 -0.10179751733E+03  0.12975042344E+03  0.00000000000E+00 0. -1.
         11    1    1    2    0    0  0.56076733530E+00  0.32913904048E+02 -0.27754541612E+02  0.43057567509E+02  0.00000000000E+00 0.  1.
</event>
<event>
 7    1  0.2719869E-009  0.1440002E+03  0.7561462E-02  0.1208046E+00
         -2   -1    0    0    0  501 -0.00000000000E+00  0.00000000000E+00  0.10737655685E+03  0.10737655685E+03  0.00000000000E+00 0. -1.
          2   -1    0    0  501    0  0.00000000000E+00 -0.00000000000E+00 -0.22699446269E+03  0.22699446269E+03  0.00000000000E+00 0.  1.
         25    2    1    2    0    0 -0.20120377386E+02  0.11003402323E+03 -0.65523696752E+02  0.18014780147E+03  0.12509020619E+03 0.  0.
          5    1    3    3  502    0 -0.24198488397E+01  0.12188464429E+03 -0.86831964139E+02  0.14972970506E+03  0.41800000000E+01 0.  1.
         -5    1    3    3    0  502 -0.17700528546E+02 -0.11850621057E+02  0.21308267388E+02  0.30418096412E+02  0.41800000000E+01 0.  1.
        -11    1    1    2    0    0 -0.33876848959E+02 -0.20035537536E+02 -0.17484116053E+02  0.43066901142E+02  0.00000000000E+00 0.  1.
         11    1    1    2    0    0  0.53997226345E+02 -0.89998485692E+02 -0.36610093042E+02  0.11115631693E+03  0.00000000000E+00 0. -1.
</event>
<event>
 7    1  0.2719869E-009  0.1154531E+03  0.7561462E-02  0.1250792E+00
         -1   -1    0    0    0  501 -0.00000000000E+00  0.00000000000E+00  0.69361988161E+02  0.69361988161E+02  0.00000000000E+00 0.  1.
          1   -1    0    0  501    0  0.00000000000E+00 -0.00000000000E+00 -0.30799951533E+03  0.30799951533E+03  0.00000000000E+00 0. -1.
         25    2    1    2    0    0 -0.74762418760E+02  0.55659734471E+02 -0.93618198830E+02  0.18193109907E+03  0.12508849810E+03 0.  0.
          5    1    3    3  502    0 -0.45959904813E+02  0.84119571559E+01  0.23399539333E+02  0.52422177698E+02  0.41800000000E+01 0. -1.
         -5    1    3    3    0  502 -0.28802513947E+02  0.47247777315E+02 -0.11701773816E+03  0.12950892137E+03  0.41800000000E+01 0. -1.
        -11    1    1    2    0    0 -0.12582250688E+02  0.12481759910E+02 -0.86101465324E+01  0.19703857139E+02  0.00000000000E+00 0.  1.
         11    1    1    2    0    0  0.87344669448E+02 -0.68141494381E+02 -0.13640918180E+03  0.17572654728E+03  0.00000000000E+00 0. -1.
</event>
<event>
 7    1  0.2719869E-009  0.1680813E+03  0.7561462E-02  0.1179864E+00
         -1   -1    0    0    0  501 -0.00000000000E+00  0.00000000000E+00  0.11656734764E+03  0.11656734764E+03  0.00000000000E+00 0.  1.
          1   -1    0    0  501    0  0.00000000000E+00 -0.00000000000E+00 -0.35193363065E+03  0.35193363065E+03  0.00000000000E+00 0. -1.
         25    2    1    2    0    0  0.97898819491E+02  0.11832388799E+03 -0.20875959936E+03  0.28777261302E+03  0.12509110739E+03 0.  0.
          5    1    3    3  502    0  0.44577158052E+02  0.11231632525E+03 -0.71813334382E+02  0.14062968155E+03  0.41800000000E+01 0. -1.
         -5    1    3    3    0  502  0.53321661439E+02  0.60075627409E+01 -0.13694626498E+03  0.14714293147E+03  0.41800000000E+01 0. -1.
        -11    1    1    2    0    0 -0.82029395388E+02 -0.12012241507E+03 -0.48764051507E+02  0.15341495700E+03  0.00000000000E+00 0.  1.
         11    1    1    2    0    0 -0.15869424103E+02  0.17985270857E+01  0.22157367864E+02  0.27313408277E+02  0.00000000000E+00 0. -1.
</event>
<event>
 7    1  0.2719869E-009  0.1313064E+03  0.7561462E-02  0.1225530E+00
          1   -1    0    0  501    0  0.00000000000E+00  0.00000000000E+00  0.61688446012E+03  0.61688446012E+03  0.00000000000E+00 0. -1.
         -1   -1    0    0    0  501 -0.00000000000E+00 -0.00000000000E+00 -0.29041276624E+02  0.29041276624E+02  0.00000000000E+00 0.  1.
         25    2    1    2    0    0 -0.72755800959E+02  0.25597074167E+02  0.30955831756E+03  0.34268252582E+03  0.12512531621E+03 0.  0.
          5    1    3    3  502    0  0.67904673737E+01  0.57016697017E+02  0.16392295634E+03  0.17373894843E+03  0.41800000000E+01 0.  1.
         -5    1    3    3    0  502 -0.79546268332E+02 -0.31419622850E+02  0.14563536122E+03  0.16894357739E+03  0.41800000000E+01 0.  1.
        -11    1    1    2    0    0  0.79783959433E+02 -0.49906825366E+02  0.20142035651E+03  0.22232033514E+03  0.00000000000E+00 0.  1.
         11    1    1    2    0    0 -0.70281584739E+01  0.24309751198E+02  0.76864509427E+02  0.80922875778E+02  0.00000000000E+00 0. -1.
</event>
<event>
 7    1  0.2719869E-009  0.9598047E+02  0.7561462E-02  0.1288983E+00
         -2   -1    0    0    0  501 -0.00000000000E+00  0.00000000000E+00  0.29427297923E+03  0.29427297923E+03  0.00000000000E+00 0.  1.
          2   -1    0    0  501    0  0.00000000000E+00 -0.00000000000E+00 -0.67543652281E+02  0.67543652281E+02  0.00000000000E+00 0. -1.
         25    2    1    2    0    0 -0.82621403267E+02 -0.38243912054E+02  0.15304828107E+03  0.21761488527E+03  0.12507425341E+03 0.  0.
          5    1    3    3  502    0 -0.21003245396E+02 -0.26248145286E+02 -0.15834570254E+02  0.37393949554E+02  0.41800000000E+01 0. -1.
         -5    1    3    3    0  502 -0.61618157871E+02 -0.11995766768E+02  0.16888285133E+03  0.18022093572E+03  0.41800000000E+01 0. -1.
        -11    1    1    2    0    0  0.35957800016E+02  0.31918583292E+02 -0.91282285173E+01  0.48939594372E+02  0.00000000000E+00 0. -1.
         11    1    1    2    0    0  0.46663603251E+02  0.63253287620E+01  0.82809274399E+02  0.95262151869E+02  0.00000000000E+00 0.  1.
</event>
<event>
 7    1  0.2719869E-009  0.1143428E+03  0.7561462E-02  0.1252733E+00
         -2   -1    0    0    0  501 -0.00000000000E+00  0.00000000000E+00  0.51180975054E+02  0.51180975054E+02  0.00000000000E+00 0.  1.
          2   -1    0    0  501    0  0.00000000000E+00 -0.00000000000E+00 -0.38817363318E+03  0.38817363318E+03  0.00000000000E+00 0. -1.
         25    2    1    2    0    0 -0.65458564844E+02  0.36276628090E+01 -0.88808685432E+02  0.16682850305E+03  0.12508710234E+03 0.  0.
          5    1    3    3  502    0 -0.17711616809E+02 -0.58282310974E+02 -0.52497783067E+02  0.80523405104E+02  0.41800000000E+01 0. -1.
         -5    1    3    3    0  502 -0.47746948036E+02  0.61909973784E+02 -0.36310902365E+02  0.86305097944E+02  0.41800000000E+01 0. -1.
        -11    1    1    2    0    0 -0.10619989675E+02 -0.77437748087E+01 -0.24591468272E+00  0.13145748477E+02  0.00000000000E+00 0.  1.
         11    1    1    2    0    0  0.76078554520E+02  0.41161119997E+01 -0.24793805801E+03  0.25938035671E+03  0.00000000000E+00 0. -1.
</event>
<event>
 7    1  0.2719869E-009  0.1135929E+03  0.7561462E-02  0.1254057E+00
          3   -1    0    0  501    0  0.00000000000E+00  0.00000000000E+00  0.10169853632E+03  0.10169853632E+03  0.00000000000E+00 0. -1.
         -3   -1    0    0    0  501 -0.00000000000E+00 -0.00000000000E+00 -0.14682322495E+03  0.14682322495E+03  0.00000000000E+00 0.  1.
         25    2    1    2    0    0 -0.16898580604E+02 -0.48740335335E+02  0.48584702996E+01  0.13539742881E+03  0.12509067383E+03 0.  0.
          5    1    3    3  502    0 -0.95147727400E+01 -0.86488031150E+02  0.26518752289E+02  0.91057273490E+02  0.41800000000E+01 0. -1.
         -5    1    3    3    0  502 -0.73838078640E+01  0.37747695814E+02 -0.21660281989E+02  0.44340155319E+02  0.41800000000E+01 0. -1.
        -11    1    1    2    0    0 -0.30481563172E+02 -0.37073948500E+01 -0.17428790125E+02  0.35307693144E+02  0.00000000000E+00 0.  1.
         11    1    1    2    0    0  0.47380143775E+02  0.52447730185E+02 -0.32554368806E+02  0.77816639314E+02  0.00000000000E+00 0. -1.
</event>
<event>
 7    1  0.2719869E-009  0.1025379E+03  0.7561462E-02  0.1275048E+00
         -1   -1    0    0    0  501 -0.00000000000E+00  0.00000000000E+00  0.49222025595E+02  0.49222025595E+02  0.00000000000E+00 0.  1.
          1   -1    0    0  501    0  0.00000000000E+00 -0.00000000000E+00 -0.28174175367E+03  0.28174175367E+03  0.00000000000E+00 0. -1.
         25    2    1    2    0    0 -0.38092471509E+02  0.20128655511E+02 -0.11299457803E+03  0.17398756683E+03  0.12509076540E+03 0.  0.
          5    1    3    3  502    0 -0.70318291180E+02  0.51079044776E+02 -0.67922926424E+02  0.11038445191E+03  0.41800000000E+01 0.  1.
         -5    1    3    3    0  502  0.32225819671E+02 -0.30950389265E+02 -0.45071651607E+02  0.63603114921E+02  0.41800000000E+01 0.  1.
        -11    1    1    2    0    0  0.18127545675E+02 -0.40678786595E+02 -0.12033670034E+03  0.12831326135E+03  0.00000000000E+00 0. -1.
         11    1    1    2    0    0  0.19964925834E+02  0.20550131084E+02  0.81155028601E+00  0.28662951086E+02  0.00000000000E+00 0.  1.
</event>
<event>
 7    1  0.2719869E-009  0.1099556E+03  0.7561462E-02  0.1260652E+00
         -2   -1    0    0    0  501 -0.00000000000E+00  0.00000000000E+00  0.38639641010E+02  0.38639641010E+02  0.00000000000E+00 0. -1.
          2   -1    0    0  501    0  0.00000000000E+00 -0.00000000000E+00 -0.47246902761E+03  0.47246902761E+03  0.00000000000E+00 0.  1.
         25    2    1    2    0    0  0.14155235061E+02 -0.31069550355E+02 -0.34417368505E+03  0.36778973568E+03  0.12509227215E+03 0.  0.
          5    1    3    3  502    0  0.64769769057E+02 -0.35548037648E+02 -0.15333834210E+03  0.17026128603E+03  0.41800000000E+01 0.  1.
         -5    1    3    3    0  502 -0.50614533996E+02  0.44784872938E+01 -0.19083534296E+03  0.19752844965E+03  0.41800000000E+01 0.  1.
        -11    1    1    2    0    0 -0.35429249847E+02  0.53399476854E+02 -0.19986288357E+02  0.67128143094E+02  0.00000000000E+00 0. -1.
         11    1    1    2    0    0  0.21274014786E+02 -0.22329926500E+02 -0.69669413185E+02  0.76190789838E+02  0.00000000000E+00 0.  1.
</event>
<event>
 7    1  0.2719869E-009  0.1114461E+03  0.7561462E-02  0.1257915E+00
         -2   -1    0    0    0  501 -0.00000000000E+00  0.00000000000E+00  0.59860862951E+02  0.59860862951E+02  0.00000000000E+00 0.  1.
          2   -1    0    0  501    0  0.00000000000E+00 -0.00000000000E+00 -0.25763865408E+03  0.25763865408E+03  0.00000000000E+00 0. -1.
         25    2    1    2    0    0  0.23522949247E+02  0.78019912374E+01 -0.17953331106E+03  0.22021377015E+03  0.12509074537E+03 0.  0.
          5    1    3    3  502    0 -0.28062050279E+02  0.52057460783E+02 -0.88709760022E+02  0.10669747800E+03  0.41800000000E+01 0. -1.
         -5    1    3    3    0  502  0.51584999526E+02 -0.44255469546E+02 -0.90823551037E+02  0.11351629215E+03  0.41800000000E+01 0. -1.
        -11    1    1    2    0    0  0.35594546585E+02  0.16911570892E+01 -0.52854009318E+01  0.36024536387E+02  0.00000000000E+00 0.  1.
         11    1    1    2    0    0 -0.59117495832E+02 -0.94931483266E+01 -0.12959079139E+02  0.61261210490E+02  0.00000000000E+00 0. -1.
</event>
<event>
 7    1  0.2719869E-009  0.1271512E+03  0.7561462E-02  0.1231745E+00
         -2   -1    0    0    0  501 -0.00000000000E+00  0.00000000000E+00  0.67894841350E+02  0.67894841350E+02  0.00000000000E+00 0.  1.
          2   -1    0    0  501    0  0.00000000000E+00 -0.00000000000E+00 -0.31913244067E+03  0.31913244067E+03  0.00000000000E+00 0. -1.
         25    2    1    2    0    0 -0.96579136741E+02 -0.20835276569E+02 -0.15024048977E+03  0.21905775649E+03  0.12510978182E+03 0.  0.
          5    1    3    3  502    0 -0.74859106492E+02  0.16819508051E+02 -0.15706873066E+03  0.17485662763E+03  0.41800000000E+01 0.  1.
         -5    1    3    3    0  502 -0.21720030249E+02 -0.37654784620E+02  0.68282408864E+01  0.44201128859E+02  0.41800000000E+01 0.  1.
        -11    1    1    2    0    0  0.18625175162E+02  0.47805124810E+02 -0.32337597765E+02  0.60646082619E+02  0.00000000000E+00 0. -1.
         11    1    1    2    0    0  0.77953961579E+02 -0.26969848240E+02 -0.68659511783E+02  0.10732344291E+03  0.00000000000E+00 0.  1.
</event>
<event>
 7    1  0.2742775E-009  0.2036907E+03  0.7561462E-02  0.1146662E+00
          1   -1    0    0  501    0  0.00000000000E+00  0.00000000000E+00  0.14281303309E+04  0.14281303309E+04  0.00000000000E+00 0. -1.
         -1   -1    0    0    0  501 -0.00000000000E+00 -0.00000000000E+00 -0.33566114416E+02  0.33566114416E+02  0.00000000000E+00 0.  1.
         25    2    1    2    0    0 -0.12210838660E+03 -0.13247264214E+03  0.92048327919E+03  0.94625388664E+03  0.12508993449E+03 0.  0.
          5    1    3    3  502    0 -0.36710275918E+02  0.20401319949E+02  0.13346520251E+03  0.13997960885E+03  0.41800000000E+01 0.  1.
         -5    1    3    3    0  502 -0.85398110680E+02 -0.15287396209E+03  0.78701807668E+03  0.80627427779E+03  0.41800000000E+01 0.  1.
        -11    1    1    2    0    0  0.36801469314E+02  0.84452406098E+02  0.14226344151E+03  0.16948582192E+03  0.00000000000E+00 0.  1.
         11    1    1    2    0    0  0.85306917284E+02  0.48020236044E+02  0.33181749580E+03  0.34595673678E+03  0.00000000000E+00 0. -1.
</event>
<event>
 7    1  0.2719869E-009  0.2031017E+03  0.7561462E-02  0.1147148E+00
         -2   -1    0    0    0  501 -0.00000000000E+00  0.00000000000E+00  0.34428409448E+02  0.34428409448E+02  0.00000000000E+00 0.  1.
          2   -1    0    0  501    0  0.00000000000E+00 -0.00000000000E+00 -0.14895593676E+04  0.14895593676E+04  0.00000000000E+00 0. -1.
         25    2    1    2    0    0  0.14969069025E+03  0.12728592864E+03 -0.66416537755E+03  0.70382632032E+03  0.12508728975E+03 0.  0.
          5    1    3    3  502    0  0.10001314147E+03  0.10126609132E+03 -0.60761021181E+03  0.62407138342E+03  0.41800000000E+01 0. -1.
         -5    1    3    3    0  502  0.49677548777E+02  0.26019837317E+02 -0.56555165749E+02  0.79754936897E+02  0.41800000000E+01 0. -1.
        -11    1    1    2    0    0 -0.23608858807E+02  0.57392550798E+01 -0.37189916567E+02  0.44423047591E+02  0.00000000000E+00 0.  1.
         11    1    1    2    0    0 -0.12608183144E+03 -0.13302518372E+03 -0.75377566400E+03  0.77573840911E+03  0.00000000000E+00 0. -1.
</event>
<event>
 7    1  0.2719869E-009  0.1100482E+03  0.7561462E-02  0.1260481E+00
         -1   -1    0    0    0  501 -0.00000000000E+00  0.00000000000E+00  0.50053710402E+03  0.50053710402E+03  0.00000000000E+00 0.  1.
          1   -1    0    0  501    0  0.00000000000E+00 -0.00000000000E+00 -0.26194552099E+02  0.26194552099E+02  0.00000000000E+00 0. -1.
         25    2    1    2    0    0 -0.23750817723E+02 -0.59194778790E+01  0.20787325940E+03  0.24384081580E+03  0.12509160611E+03 0.  0.
          5    1    3    3  502    0 -0.73300701726E+02  0.80274113963E+01  0.10078793959E+03  0.12495244445E+03  0.41800000000E+01 0. -1.
         -5    1    3    3    0  502  0.49549884003E+02 -0.13946889275E+02  0.10708531981E+03  0.11888837136E+03  0.41800000000E+01 0. -1.
        -11    1    1    2    0    0 -0.11645719799E+02 -0.37099729188E+02  0.12227464063E+03  0.12830861404E+03  0.00000000000E+00 0.  1.
         11    1    1    2    0    0  0.35396537523E+02  0.43019207067E+02  0.14419465189E+03  0.15458222627E+03  0.00000000000E+00 0. -1.
</event>
<event>
 7    1  0.2719869E-009  0.1195626E+03  0.7561462E-02  0.1243820E+00
          2   -1    0    0  501    0  0.00000000000E+00  0.00000000000E+00  0.65895846123E+02  0.65895846123E+02  0.00000000000E+00 0. -1.
         -2   -1    0    0    0  501 -0.00000000000E+00 -0.00000000000E+00 -0.25873707796E+03  0.25873707796E+03  0.00000000000E+00 0.  1.
         25    2    1    2    0    0  0.68828442536E+02  0.79719002955E+01 -0.12806437753E+03  0.19196045330E+03  0.12508966841E+03 0.  0.
          5    1    3    3  502    0  0.66208566974E+02  0.51327298935E+02 -0.38416529247E+02  0.92257076022E+02  0.41800000000E+01 0. -1.
         -5    1    3    3    0  502  0.26198755620E+01 -0.43355398640E+02 -0.89647848279E+02  0.99703377276E+02  0.41800000000E+01 0. -1.
        -11    1    1    2    0    0 -0.89982495607E+02 -0.38830723922E+01 -0.36639921010E+02  0.97233798540E+02  0.00000000000E+00 0. -1.
         11    1    1    2    0    0  0.21154053071E+02 -0.40888279033E+01 -0.28136933303E+02  0.35438672247E+02  0.00000000000E+00 0.  1.
</event>
<event>
 7    1  0.2719869E-009  0.1138616E+03  0.7561462E-02  0.1253581E+00
         -2   -1    0    0    0  501 -0.00000000000E+00  0.00000000000E+00  0.42993856585E+02  0.42993856585E+02  0.00000000000E+00 0.  1.
          2   -1    0    0  501    0  0.00000000000E+00 -0.00000000000E+00 -0.35866690895E+03  0.35866690895E+03  0.00000000000E+00 0. -1.
         25    2    1    2    0    0 -0.10250303226E+02 -0.53285577463E+02 -0.13716579694E+03  0.19340515010E+03  0.12508666897E+03 0.  0.
          5    1    3    3  502    0  0.34266515388E+02  0.17794468010E+02 -0.87775098752E+02  0.95983214832E+02  0.41800000000E+01 0. -1.
         -5    1    3    3    0  502 -0.44516818614E+02 -0.71080045473E+02 -0.49390698185E+02  0.97421935267E+02  0.41800000000E+01 0. -1.
        -11    1    1    2    0    0  0.49992922379E+02  0.23463949370E+02 -0.11541568186E+03  0.12794775820E+03  0.00000000000E+00 0.  1.
         11    1    1    2    0    0 -0.39742619153E+02  0.29821628093E+02 -0.63091573570E+02  0.80307857242E+02  0.00000000000E+00 0. -1.
</event>
<event>
 7    1  0.2719869E-009  0.1277385E+03  0.7561462E-02  0.1230850E+00
         -1   -1    0    0    0  501 -0.00000000000E+00  0.00000000000E+00  0.31302993649E+02  0.31302993649E+02  0.00000000000E+00 0.  1.
          1   -1    0    0  501    0  0.00000000000E+00 -0.00000000000E+00 -0.56467284382E+03  0.56467284382E+03  0.00000000000E+00 0. -1.
         25    2    1    2    0    0 -0.21055559596E+02 -0.69820553746E+02 -0.35218459027E+03  0.38078894954E+03  0.12509193480E+03 0.  0.
          5    1    3    3  502    0 -0.62950225182E+02 -0.60168416791E+01 -0.21004317880E+03  0.21939585820E+03  0.41800000000E+01 0.  1.
         -5    1    3    3    0  502  0.41894665586E+02 -0.63803712067E+02 -0.14214141147E+03  0.16139309134E+03  0.41800000000E+01 0.  1.
        -11    1    1    2    0    0  0.20646712510E+02 -0.18268651704E+02 -0.35618273350E+02  0.45041000977E+02  0.00000000000E+00 0.  1.
         11    1    1    2    0    0  0.40884708550E+00  0.88089205451E+02 -0.14556698655E+03  0.17014588695E+03  0.00000000000E+00 0. -1.
</event>
<event>
 7    1  0.2719869E-009  0.1917335E+03  0.7561462E-02  0.1156907E+00
          1   -1    0    0  501    0  0.00000000000E+00  0.00000000000E+00  0.21177383629E+03  0.21177383629E+03  0.00000000000E+00 0. -1.
         -1   -1    0    0    0  501 -0.00000000000E+00 -0.00000000000E+00 -0.19348769899E+03  0.19348769899E+03  0.00000000000E+00 0.  1.
         25    2    1    2    0    0 -0.69113191771E+01 -0.17009403686E+03  0.21802896693E+02  0.21237200356E+03  0.12508698527E+03 0.  0.
          5    1    3    3  502    0 -0.38638367334E+02 -0.14287870074E+02 -0.22678543015E+02  0.47210754864E+02  0.41800000000E+01 0.  1.
         -5    1    3    3    0  502  0.31727048157E+02 -0.15580616679E+03  0.44481439708E+02  0.16516124870E+03  0.41800000000E+01 0.  1.
        -11    1    1    2    0    0 -0.29510732318E+02  0.96098619248E+02  0.28389228619E+02  0.10445944785E+03  0.00000000000E+00 0.  1.
         11    1    1    2    0    0  0.36422051495E+02  0.73995417611E+02 -0.31905988006E+02  0.88430083869E+02  0.00000000000E+00 0. -1.
</event>
<event>
 7    1  0.2719869E-009  0.2265042E+03  0.7561462E-02  0.1129125E+00
         -1   -1    0    0    0  501 -0.00000000000E+00  0.00000000000E+00  0.13494404087E+03  0.13494404087E+03  0.00000000000E+00 0.  1.
          1   -1    0    0  501    0  0.00000000000E+00 -0.00000000000E+00 -0.52794065759E+03  0.52794065759E+03  0.00000000000E+00 0. -1.
         25    2    1    2    0    0 -0.19520125954E+03 -0.79569530689E+02 -0.35138900848E+03  0.42843632843E+03  0.12509440555E+03 0.  0.
          5    1    3    3  502    0 -0.15701323897E+03 -0.10243913456E+03 -0.32839040739E+03  0.37815957686E+03  0.41800000000E+01 0.  1.
         -5    1    3    3    0  502 -0.38188020576E+02  0.22869603876E+02 -0.22998601083E+02  0.50276751573E+02  0.41800000000E+01 0.  1.
        -11    1    1    2    0    0  0.18496239582E+03  0.53154756485E+02 -0.11030443686E+02  0.19276458879E+03  0.00000000000E+00 0. -1.
         11    1    1    2    0    0  0.10238863729E+02  0.26414774204E+02 -0.30577164550E+02  0.41683781242E+02  0.00000000000E+00 0.  1.
</event>
<event>
 7    1  0.2719869E-009  0.9610458E+02  0.7561462E-02  0.1288707E+00
         -1   -1    0    0    0  501 -0.00000000000E+00  0.00000000000E+00  0.21362413521E+02  0.21362413521E+02  0.00000000000E+00 0.  1.
          1   -1    0    0  501    0  0.00000000000E+00 -0.00000000000E+00 -0.56642609026E+03  0.56642609026E+03  0.00000000000E+00 0. -1.
         25    2    1    2    0    0  0.41702970377E+02  0.56899989522E+01 -0.29021251400E+03  0.31881349056E+03  0.12508886703E+03 0.  0.
          5    1    3    3  502    0 -0.34439726959E+02 -0.18832845903E+00 -0.18788487804E+03  0.19106106369E+03  0.41800000000E+01 0.  1.
         -5    1    3    3    0  502  0.76142697336E+02  0.58783274113E+01 -0.10232763595E+03  0.12775242687E+03  0.41800000000E+01 0.  1.
        -11    1    1    2    0    0 -0.60106199310E+02 -0.12531842917E+02 -0.14628447474E+03  0.15864724968E+03  0.00000000000E+00 0.  1.
         11    1    1    2    0    0  0.18403228933E+02  0.68418439645E+01 -0.10856668800E+03  0.11032776354E+03  0.00000000000E+00 0. -1.
</event>
<event>
 7    1  0.2719869E-009  0.1085630E+03  0.7561462E-02  0.1263254E+00
         -1   -1    0    0    0  501 -0.00000000000E+00  0.00000000000E+00  0.32311555350E+02  0.32311555350E+02  0.00000000000E+00 0.  1.
          1   -1    0    0  501    0  0.00000000000E+00 -0.00000000000E+00 -0.44638126778E+03  0.44638126778E+03  0.00000000000E+00 0. -1.
         25    2    1    2    0    0  0.38211905043E+02 -0.28571602250E+02 -0.26502224989E+03  0.29692214642E+03  0.12509788949E+03 0.  0.
          5    1    3    3  502    0  0.77442923297E+02 -0.46431421976E+02 -0.18641663157E+03  0.20717605132E+03  0.41800000000E+01 0. -1.
         -5    1    3    3    0  502 -0.39231018254E+02  0.17859819726E+02 -0.78605618320E+02  0.89746095098E+02  0.41800000000E+01 0. -1.
        -11    1    1    2    0    0 -0.46498642878E+02 -0.68928628399E+01 -0.26577009053E+02  0.53999747757E+02  0.00000000000E+00 0.  1.
         11    1    1    2    0    0  0.82867378347E+01  0.35464465090E+02 -0.12247045349E+03  0.12777092895E+03  0.00000000000E+00 0. -1.
</event>
<event>
 7    1  0.2719869E-009  0.1073380E+03  0.7561462E-02  0.1265580E+00
          2   -1    0    0  501    0  0.00000000000E+00  0.00000000000E+00  0.11087726674E+04  0.11087726674E+04  0.00000000000E+00 0. -1.
         -2   -1    0    0    0  501 -0.00000000000E+00 -0.00000000000E+00 -0.10943096924E+02  0.10943096924E+02  0.00000000000E+00 0.  1.
         25    2    1    2    0    0 -0.80055307185E+01  0.15157961647E+02  0.69891502734E+03  0.71022794831E+03  0.12509065031E+03 0.  0.
          5    1    3    3  502    0  0.34669622898E+02 -0.39579253349E+02  0.39183803105E+03  0.39537705424E+03  0.41800000000E+01 0.  1.
         -5    1    3    3    0  502 -0.42675153617E+02  0.54737214996E+02  0.30707699629E+03  0.31485089407E+03  0.41800000000E+01 0.  1.
        -11    1    1    2    0    0 -0.97943615160E+01 -0.51218496888E+02  0.21614353433E+03  0.22234498279E+03  0.00000000000E+00 0.  1.
         11    1    1    2    0    0  0.17799892235E+02  0.36060535241E+02  0.18277100880E+03  0.18714283321E+03  0.00000000000E+00 0. -1.
</event>
<event>
 7    1  0.2719869E-009  0.7789243E+02  0.7561462E-02  0.1335141E+00
         -1   -1    0    0    0  501 -0.00000000000E+00  0.00000000000E+00  0.81331123869E+02  0.81331123869E+02  0.00000000000E+00 0.  1.
          1   -1    0    0  501    0  0.00000000000E+00 -0.00000000000E+00 -0.14825892216E+03  0.14825892216E+03  0.00000000000E+00 0. -1.
         25    2    1    2    0    0 -0.18696841745E+02 -0.75179816604E+01 -0.30255136401E+02  0.13027482677E+03  0.12510022091E+03 0.  0.
          5    1    3    3  502    0  0.41179861828E+02 -0.92142586284E+01 -0.51381882946E+02  0.66620221234E+02  0.41800000000E+01 0.  1.
         -5    1    3    3    0  502 -0.59876703573E+02  0.16962769680E+01  0.21126746545E+02  0.63654605536E+02  0.41800000000E+01 0.  1.
        -11    1    1    2    0    0 -0.11089555947E+02 -0.13058023909E+02  0.23506023506E+02  0.29086481062E+02  0.00000000000E+00 0.  1.
         11    1    1    2    0    0  0.29786397692E+02  0.20576005569E+02 -0.60178685401E+02  0.70228738201E+02  0.00000000000E+00 0. -1.
</event>
<event>
 7    1  0.2719869E-009  0.1421218E+03  0.7561462E-02  0.1210502E+00
         -1   -1    0    0    0  501 -0.00000000000E+00  0.00000000000E+00  0.66413568488E+02  0.66413568488E+02  0.00000000000E+00 0.  1.
          1   -1    0    0  501    0  0.00000000000E+00 -0.00000000000E+00 -0.38134938891E+03  0.38134938891E+03  0.00000000000E+00 0. -1.
         25    2    1    2    0    0  0.10119385078E+03  0.71540253655E+01 -0.24124614330E+03  0.29006663021E+03  0.12509025856E+03 0.  0.
          5    1    3    3  502    0  0.12706580733E+03  0.30709504445E+01 -0.15872072388E+03  0.20338360484E+03  0.41800000000E+01 0. -1.
         -5    1    3    3    0  502 -0.25871956546E+02  0.40830749211E+01 -0.82525419421E+02  0.86683025368E+02  0.41800000000E+01 0. -1.
        -11    1    1    2    0    0  0.96209495682E+01  0.14729681366E+02 -0.33437747917E+02  0.37783715666E+02  0.00000000000E+00 0. -1.
         11    1    1    2    0    0 -0.11081480035E+03 -0.21883706731E+02 -0.40251929201E+02  0.11991261152E+03  0.00000000000E+00 0.  1.
</event>
<event>
 7    1  0.2719869E-009  0.1169254E+03  0.7561462E-02  0.1248257E+00
          1   -1    0    0  501    0  0.00000000000E+00  0.00000000000E+00  0.50873832769E+03  0.50873832769E+03  0.00000000000E+00 0. -1.
         -1   -1    0    0    0  501 -0.00000000000E+00 -0.00000000000E+00 -0.48885729645E+02  0.48885729645E+02  0.00000000000E+00 0.  1.
         25    2    1    2    0    0 -0.39698257533E+02 -0.90353331368E+02  0.34497232052E+03  0.37999092835E+03  0.12509007781E+03 0.  0.
          5    1    3    3  502    0 -0.10150828541E+02 -0.22760218414E+02  0.28136108236E+03  0.28249353609E+03  0.41800000000E+01 0.  1.
         -5    1    3    3    0  502 -0.29547428993E+02 -0.67593112954E+02  0.63611238157E+02  0.97497392266E+02  0.41800000000E+01 0.  1.
        -11    1    1    2    0    0 -0.28942075992E+02  0.40856231105E+02  0.52137777337E+02  0.72285705423E+02  0.00000000000E+00 0.  1.
         11    1    1    2    0    0  0.68640333525E+02  0.49497100263E+02  0.62742500191E+02  0.10534742356E+03  0.00000000000E+00 0. -1.
</event>
<event>
 7    1  0.2719869E-009  0.1404304E+03  0.7561462E-02  0.1212751E+00
         -1   -1    0    0    0  501 -0.00000000000E+00  0.00000000000E+00  0.88024969378E+02  0.88024969378E+02  0.00000000000E+00 0.  1.
          1   -1    0    0  501    0  0.00000000000E+00 -0.00000000000E+00 -0.33545301890E+03  0.33545301890E+03  0.00000000000E+00 0. -1.
         25    2    1    2    0    0  0.90184220420E+02  0.97570362974E+02 -0.13590799770E+03  0.22753414055E+03  0.12509049497E+03 0.  0.
          5    1    3    3  502    0  0.93214335055E+02  0.10223483816E+03 -0.59251576200E+02  0.15056259853E+03  0.41800000000E+01 0. -1.
         -5    1    3    3    0  502 -0.30301146348E+01 -0.46644751857E+01 -0.76656421502E+02  0.76971542020E+02  0.41800000000E+01 0. -1.
        -11    1    1    2    0    0 -0.61953741561E+01 -0.20792036661E+02  0.14542150835E+02  0.26118300104E+02  0.00000000000E+00 0.  1.
         11    1    1    2    0    0 -0.83988846264E+02 -0.76778326313E+02 -0.12606220265E+03  0.16982554762E+03  0.00000000000E+00 0. -1.
</event>
<event>
 7    1  0.2719869E-009  0.1863848E+03  0.7561462E-02  0.1161763E+00
          2   -1    0    0  501    0  0.00000000000E+00  0.00000000000E+00  0.25432677865E+03  0.25432677865E+03  0.00000000000E+00 0. -1.
         -2   -1    0    0    0  501 -0.00000000000E+00 -0.00000000000E+00 -0.17141172014E+03  0.17141172014E+03  0.00000000000E+00 0.  1.
         25    2    1    2    0    0  0.16139964538E+03  0.37070655328E+02 -0.24128758346E+02  0.20893528085E+03  0.12509066947E+03 0.  0.
          5    1    3    3  502    0  0.11804659311E+03  0.77527071297E+02  0.77110746789E+01  0.14150045230E+03  0.41800000000E+01 0. -1.
         -5    1    3    3    0  502  0.43353052269E+02 -0.40456415968E+02 -0.31839833025E+02  0.67434828547E+02  0.41800000000E+01 0. -1.
        -11    1    1    2    0    0 -0.24827170667E+02  0.11127376694E+02  0.57713155339E+02  0.63804507792E+02  0.00000000000E+00 0. -1.
         11    1    1    2    0    0 -0.13657247472E+03 -0.48198032022E+02  0.49330661522E+02  0.15299871015E+03  0.00000000000E+00 0.  1.
</event>
<event>
 7    1  0.2719869E-009  0.9759391E+02  0.7561462E-02  0.1285439E+00
         -1   -1    0    0    0  501 -0.00000000000E+00  0.00000000000E+00  0.42166059575E+02  0.42166059575E+02  0.00000000000E+00 0.  1.
          1   -1    0    0  501    0  0.00000000000E+00 -0.00000000000E+00 -0.34573288281E+03  0.34573288281E+03  0.00000000000E+00 0. -1.
         25    2    1    2    0    0 -0.54171554184E+02 -0.16283106218E+02 -0.16073471578E+03  0.21138390848E+03  0.12509121102E+03 0.  0.
          5    1    3    3  502    0  0.17057121678E+02  0.12019890275E+02  0.10500682194E+02  0.23730990048E+02  0.41800000000E+01 0. -1.
         -5    1    3    3    0  502 -0.71228675862E+02 -0.28302996492E+02 -0.17123539797E+03  0.18765291843E+03  0.41800000000E+01 0. -1.
        -11    1    1    2    0    0  0.47618066708E+02 -0.26071487954E+02 -0.48069925893E+02  0.72511520026E+02  0.00000000000E+00 0.  1.
         11    1    1    2    0    0  0.65534874766E+01  0.42354594172E+02 -0.94762181558E+02  0.10400351388E+03  0.00000000000E+00 0. -1.
</event>
<event>
 7    1  0.2719869E-009  0.1072155E+03  0.7561462E-02  0.1265815E+00
          1   -1    0    0  501    0  0.00000000000E+00  0.00000000000E+00  0.19525969313E+03  0.19525969313E+03  0.00000000000E+00 0. -1.
         -1   -1    0    0    0  501 -0.00000000000E+00 -0.00000000000E+00 -0.66441561083E+02  0.66441561083E+02  0.00000000000E+00 0.  1.
         25    2    1    2    0    0 -0.29350010899E+02 -0.20718572880E+02  0.91212962705E+02  0.15892893004E+03  0.12509163775E+03 0.  0.
          5    1    3    3  502    0  0.39813900902E+02  0.12950543231E+02  0.65240095043E+02  0.77631215862E+02  0.41800000000E+01 0.  1.
         -5    1    3    3    0  502 -0.69163911801E+02 -0.33669116111E+02  0.25972867662E+02  0.81297714174E+02  0.41800000000E+01 0.  1.
        -11    1    1    2    0    0  0.39392115129E+02  0.50409416772E+02  0.29184794955E+02  0.70317851860E+02  0.00000000000E+00 0. -1.
         11    1    1    2    0    0 -0.10042104230E+02 -0.29690843892E+02  0.84203743826E+01  0.32454472313E+02  0.00000000000E+00 0.  1.
</event>
<event>
 7    1  0.2719869E-009  0.1038913E+03  0.7561462E-02  0.1272319E+00
         -2   -1    0    0    0  501 -0.00000000000E+00  0.00000000000E+00  0.47627040247E+02  0.47627040247E+02  0.00000000000E+00 0.  1.
          2   -1    0    0  501    0  0.00000000000E+00 -0.00000000000E+00 -0.27319130174E+03  0.27319130174E+03  0.00000000000E+00 0. -1.
         25    2    1    2    0    0  0.23494836109E+02  0.27722434015E+02 -0.11588624953E+03  0.17434881107E+03  0.12508934576E+03 0.  0.
          5    1    3    3  502    0 -0.50569627796E+02  0.23523163005E+02 -0.47910244224E+02  0.73644350461E+02  0.41800000000E+01 0.  1.
         -5    1    3    3    0  502  0.74064463905E+02  0.41992710103E+01 -0.67976005302E+02  0.10070446061E+03  0.41800000000E+01 0.  1.
        -11    1    1    2    0    0  0.17593820440E+02 -0.31716825353E+02 -0.96569369837E+02  0.10315591461E+03  0.00000000000E+00 0. -1.
         11    1    1    2    0    0 -0.41088656549E+02  0.39943913373E+01 -0.13108642134E+02  0.43313616309E+02  0.00000000000E+00 0.  1.
</event>
<event>
 7    1  0.2719869E-009  0.2185203E+03  0.7561462E-02  0.1134991E+00
          2   -1    0    0  501    0  0.00000000000E+00  0.00000000000E+00  0.10018336733E+04  0.10018336733E+04  0.00000000000E+00 0. -1.
         -2   -1    0    0    0  501 -0.00000000000E+00 -0.00000000000E+00 -0.62436509120E+02  0.62436509120E+02  0.00000000000E+00 0.  1.
         25    2    1    2    0    0 -0.12324060709E+02  0.18896882558E+03  0.22493307865E+03  0.31953627675E+03  0.12508973889E+03 0.  0.
          5    1    3    3  502    0 -0.50463622329E+02  0.21403794217E+02  0.50928695530E+02  0.74939335557E+02  0.41800000000E+01 0.  1.
         -5    1    3    3    0  502  0.38139561619E+02  0.16756503136E+03  0.17400438312E+03  0.24459694119E+03  0.41800000000E+01 0.  1.
        -11    1    1    2    0    0  0.35954205404E+02 -0.23355447250E+02  0.14671701918E+03  0.15285308475E+03  0.00000000000E+00 0.  1.
         11    1    1    2    0    0 -0.23630144695E+02 -0.16561337833E+03  0.56774706635E+03  0.59188082091E+03  0.00000000000E+00 0. -1.
</event>
<event>
 7    1  0.2719869E-009  0.1057412E+03  0.7561462E-02  0.1268666E+00
         -2   -1    0    0    0  501 -0.00000000000E+00  0.00000000000E+00  0.11133731059E+03  0.11133731059E+03  0.00000000000E+00 0. -1.
          2   -1    0    0  501    0  0.00000000000E+00 -0.00000000000E+00 -0.25757818158E+03  0.25757818158E+03  0.00000000000E+00 0.  1.
         25    2    1    2    0    0 -0.79168647325E+01 -0.81340998083E+02  0.29200527475E+02  0.15224591786E+03  0.12508842466E+03 0.  0.
          5    1    3    3  502    0 -0.15146341538E+02 -0.93249303541E+02  0.64231610627E+02  0.11431542537E+03  0.41800000000E+01 0.  1.
         -5    1    3    3    0  502  0.72294768054E+01  0.11908305458E+02 -0.35031083152E+02  0.37930492491E+02  0.41800000000E+01 0.  1.
        -11    1    1    2    0    0  0.29032915173E+02  0.74849109447E+02 -0.17716964690E+03  0.19451062472E+03  0.00000000000E+00 0.  1.
         11    1    1    2    0    0 -0.21116050440E+02  0.64918886361E+01  0.17282484301E+01  0.22158949589E+02  0.00000000000E+00 0. -1.
</event>
<event>
 7    1  0.2719869E-009  0.1200063E+03  0.7561462E-02  0.1243087E+00
          1   -1    0    0  501    0  0.00000000000E+00  0.00000000000E+00  0.30776221302E+02  0.30776221302E+02  0.00000000000E+00 0. -1.
         -1   -1    0    0    0  501 -0.00000000000E+00 -0.00000000000E+00 -0.60489816291E+03  0.60489816291E+03  0.00000000000E+00 0.  1.
         25    2    1    2    0    0  0.27060533447E+02  0.62468737425E+02 -0.42549659513E+03  0.44869659248E+03  0.12508662600E+03 0.  0.
          5    1    3    3  502    0  0.30428065133E+02 -0.32081795762E+02 -0.18425575817E+03  0.18953301978E+03  0.41800000000E+01 0.  1.
         -5    1    3    3    0  502 -0.33675316863E+01  0.94550533187E+02 -0.24124083696E+03  0.25916357270E+03  0.41800000000E+01 0.  1.
        -11    1    1    2    0    0 -0.17958482883E+02 -0.79544142083E+02 -0.14629605267E+03  0.16748824638E+03  0.00000000000E+00 0.  1.
         11    1    1    2    0    0 -0.91020505639E+01  0.17075404658E+02 -0.23292938043E+01  0.19489545360E+02  0.00000000000E+00 0. -1.
</event>
<event>
 7    1  0.2719869E-009  0.1338356E+03  0.7561462E-02  0.1221873E+00
          2   -1    0    0  501    0  0.00000000000E+00  0.00000000000E+00  0.25330487426E+03  0.25330487426E+03  0.00000000000E+00 0. -1.
         -2   -1    0    0    0  501 -0.00000000000E+00 -0.00000000000E+00 -0.21359433532E+03  0.21359433532E+03  0.00000000000E+00 0.  1.
         25    2    1    2    0    0  0.10221521106E+03  0.51329319869E+02 -0.15054099737E+03  0.22669931833E+03  0.12508933045E+03 0.  0.
          5    1    3    3  502    0  0.61963502846E+02  0.53845465237E+02 -0.12890351987E+02  0.83201222262E+02  0.41800000000E+01 0. -1.
         -5    1    3    3    0  502  0.40251708210E+02 -0.25161453675E+01 -0.13765064538E+03  0.14349809607E+03  0.41800000000E+01 0. -1.
        -11    1    1    2    0    0 -0.99481499267E+02 -0.61553577371E+01  0.14695863489E+03  0.17757054230E+03  0.00000000000E+00 0. -1.
         11    1    1    2    0    0 -0.27337117893E+01 -0.45173962132E+02  0.43292901429E+02  0.62629348943E+02  0.00000000000E+00 0.  1.
</event>
<event>
 7    1  0.2719869E-009  0.1088035E+03  0.7561462E-02  0.1262802E+00
         -2   -1    0    0    0  501 -0.00000000000E+00  0.00000000000E+00  0.17559627022E+02  0.17559627022E+02  0.00000000000E+00 0.  1.
          2   -1    0    0  501    0  0.00000000000E+00 -0.00000000000E+00 -0.79895698741E+03  0.79895698741E+03  0.00000000000E+00 0. -1.
         25    2    1    2    0    0  0.15667446032E+01 -0.33998862750E+02 -0.53176866155E+03  0.54734414229E+03  0.12509725547E+03 0.  0.
          5    1    3    3  502    0 -0.59429564309E+01 -0.80803917893E+02 -0.36573934706E+03  0.37462959609E+03  0.41800000000E+01 0.  1.
         -5    1    3    3    0  502  0.75097010341E+01  0.46805055143E+02 -0.16602931449E+03  0.17271454620E+03  0.41800000000E+01 0.  1.
        -11    1    1    2    0    0 -0.25768274118E+02 -0.18068914153E+02 -0.15751942743E+03  0.16063268543E+03  0.00000000000E+00 0. -1.
         11    1    1    2    0    0  0.24201529515E+02  0.52067776903E+02 -0.92109271400E+02  0.10853978672E+03  0.00000000000E+00 0.  1.
</event>
<event>
 7    1  0.2719869E-009  0.1149761E+03  0.7561462E-02  0.1251623E+00
         -2   -1    0    0    0  501 -0.00000000000E+00  0.00000000000E+00  0.19650745742E+03  0.19650745742E+03  0.00000000000E+00 0.  1.
          2   -1    0    0  501    0  0.00000000000E+00 -0.00000000000E+00 -0.75225729304E+02  0.75225729304E+02  0.00000000000E+00 0. -1.
         25    2    1    2    0    0 -0.23149574600E+02  0.56157944145E+02  0.79882716737E+02  0.16036091552E+03  0.12507900422E+03 0.  0.
          5    1    3    3  502    0 -0.17563547967E+02 -0.32767055747E+02 -0.43658906571E+01  0.37665522175E+02  0.41800000000E+01 0.  1.
         -5    1    3    3    0  502 -0.55860266335E+01  0.88924999892E+02  0.84248607394E+02  0.12269539334E+03  0.41800000000E+01 0.  1.
        -11    1    1    2    0    0 -0.31475690074E+02 -0.26732320411E+02  0.18237169829E+02  0.45143442309E+02  0.00000000000E+00 0. -1.
         11    1    1    2    0    0  0.54625264674E+02 -0.29425623734E+02  0.23161841547E+02  0.66228828894E+02  0.00000000000E+00 0.  1.
</event>
<event>
 7    1  0.2719869E-009  0.8054147E+02  0.7561462E-02  0.1327522E+00
          1   -1    0    0  501    0  0.00000000000E+00  0.00000000000E+00  0.22297289005E+03  0.22297289005E+03  0.00000000000E+00 0. -1.
         -1   -1    0    0    0  501 -0.00000000000E+00 -0.00000000000E+00 -0.55724616366E+02  0.55724616366E+02  0.00000000000E+00 0.  1.
         25    2    1    2    0    0 -0.86452841639E+01 -0.17933934423E+02  0.49990013297E+02  0.13616844041E+03  0.12508587367E+03 0.  0.
          5    1    3    3  502    0  0.26863061577E+02 -0.32250092363E+02  0.77912920846E+02  0.88597901609E+02  0.41800000000E+01 0.  1.
         -5    1    3    3    0  502 -0.35508345741E+02  0.14316157941E+02 -0.27922907549E+02  0.47570538797E+02  0.41800000000E+01 0.  1.
        -11    1    1    2    0    0  0.25426790332E+02 -0.24159515261E+02  0.42441418704E+02  0.55058858196E+02  0.00000000000E+00 0.  1.
         11    1    1    2    0    0 -0.16781506168E+02  0.42093449684E+02  0.74816841683E+02  0.87470207814E+02  0.00000000000E+00 0. -1.
</event>
<event>
 7    1  0.2719869E-009  0.3230687E+03  0.7561462E-02  0.1074246E+00
         -1   -1    0    0    0  501 -0.00000000000E+00  0.00000000000E+00  0.65628532528E+02  0.65628532528E+02  0.00000000000E+00 0.  1.
          1   -1    0    0  501    0  0.00000000000E+00 -0.00000000000E+00 -0.21036426194E+04  0.21036426194E+04  0.00000000000E+00 0. -1.
         25    2    1    2    0    0  0.29946959275E+03  0.76577218654E+02 -0.15398452145E+04  0.15755370153E+04  0.12508994556E+03 0.  0.
          5    1    3    3  502    0  0.95733968702E+02  0.85580734295E+02 -0.53668494863E+03  0.55184894793E+03  0.41800000000E+01 0.  1.
         -5    1    3    3    0  502  0.20373562405E+03 -0.90035156405E+01 -0.10031602659E+04  0.10236880674E+04  0.41800000000E+01 0.  1.
        -11    1    1    2    0    0 -0.12684787667E+03 -0.59831156789E+02 -0.29476064564E+03  0.32642608559E+03  0.00000000000E+00 0.  1.
         11    1    1    2    0    0 -0.17262171609E+03 -0.16746061865E+02 -0.20340822668E+03  0.26730805101E+03  0.00000000000E+00 0. -1.
</event>
<event>
 7    1  0.2719869E-009  0.9150440E+02  0.7561462E-02  0.1299249E+00
          1   -1    0    0  501    0  0.00000000000E+00  0.00000000000E+00  0.11049765240E+03  0.11049765240E+03  0.00000000000E+00 0. -1.
         -1   -1    0    0    0  501 -0.00000000000E+00 -0.00000000000E+00 -0.10859395157E+03  0.10859395157E+03  0.00000000000E+00 0.  1.
         25    2    1    2    0    0 -0.31681183276E+01  0.15677508841E+02  0.10206414405E+02  0.12652518560E+03  0.12509448605E+03 0.  0.
          5    1    3    3  502    0  0.17742457509E+02 -0.49373336893E+02 -0.13052356445E+02  0.54225064345E+02  0.41800000000E+01 0. -1.
         -5    1    3    3    0  502 -0.20910575837E+02  0.65050845734E+02  0.23258770850E+02  0.72300121259E+02  0.41800000000E+01 0. -1.
        -11    1    1    2    0    0 -0.44149774226E+01  0.22535087252E+02 -0.37437631615E+02  0.43919226360E+02  0.00000000000E+00 0.  1.
         11    1    1    2    0    0  0.75830957502E+01 -0.38212596094E+02  0.29134918044E+02  0.48647192013E+02  0.00000000000E+00 0. -1.
</event>
<event>
 7    1  0.2719869E-009  0.1221278E+03  0.7561462E-02  0.1239627E+00
         -2   -1    0    0    0  501 -0.00000000000E+00  0.00000000000E+00  0.63358925782E+02  0.63358925782E+02  0.00000000000E+00 0.  1.
          2   -1    0    0  501    0  0.00000000000E+00 -0.00000000000E+00 -0.42016228756E+03  0.42016228756E+03  0.00000000000E+00 0. -1.
         25    2    1    2    0    0  0.30995392213E+02  0.80609039252E+02 -0.31719699893E+03  0.35173913932E+03  0.12509178411E+03 0.  0.
          5    1    3    3  502    0  0.58917256900E+02  0.41905878636E+02 -0.28490479100E+03  0.29396523291E+03  0.41800000000E+01 0. -1.
         -5    1    3    3    0  502 -0.27921864686E+02  0.38703160616E+02 -0.32292207935E+02  0.57773906416E+02  0.41800000000E+01 0. -1.
        -11    1    1    2    0    0 -0.38316434792E+02 -0.97910735986E+02 -0.25230705670E+02  0.10812608337E+03  0.00000000000E+00 0.  1.
         11    1    1    2    0    0  0.73210425788E+01  0.17301696735E+02 -0.14375657175E+02  0.23655990648E+02  0.00000000000E+00 0. -1.
</event>
<event>
 7    1  0.2719869E-009  0.1515256E+03  0.7561462E-02  0.1198611E+00
          2   -1    0    0  501    0  0.00000000000E+00  0.00000000000E+00  0.67559307241E+03  0.67559307241E+03  0.00000000000E+00 0. -1.
         -2   -1    0    0    0  501 -0.00000000000E+00 -0.00000000000E+00 -0.38567390602E+02  0.38567390602E+02  0.00000000000E+00 0.  1.
         25    2    1    2    0    0 -0.76691678912E+02  0.93451599682E+02  0.29237809230E+03  0.34021392489E+03  0.12508297540E+03 0.  0.
          5    1    3    3  502    0 -0.11050823990E+02 -0.30990874382E+02  0.53170041579E+02  0.62666424243E+02  0.41800000000E+01 0. -1.
         -5    1    3    3    0  502 -0.65640854921E+02  0.12444247406E+03  0.23920805072E+03  0.27754750065E+03  0.41800000000E+01 0. -1.
        -11    1    1    2    0    0  0.62754930084E+02 -0.96262674360E+02  0.34014826917E+03  0.35903416097E+03  0.00000000000E+00 0. -1.
         11    1    1    2    0    0  0.13936748828E+02  0.28110746783E+01  0.44993203334E+01  0.14912377148E+02  0.00000000000E+00 0.  1.
</event>
<event>
 7    1  0.2719869E-009  0.1018557E+03  0.7561462E-02  0.1276441E+00
          3   -1    0    0  501    0  0.00000000000E+00  0.00000000000E+00  0.43553616739E+03  0.43553616739E+03  0.00000000000E+00 0. -1.
         -3   -1    0    0    0  501 -0.00000000000E+00 -0.00000000000E+00 -0.33126421987E+02  0.33126421987E+02  0.00000000000E+00 0.  1.
         25    2    1    2    0    0 -0.44841062963E+02  0.19462919882E+02  0.21202335137E+03  0.25097965741E+03  0.12508941095E+03 0.  0.
          5    1    3    3  502    0 -0.15586370864E+02 -0.40339866962E+02  0.20248172597E+02  0.47934337554E+02  0.41800000000E+01 0. -1.
         -5    1    3    3    0  502 -0.29254692098E+02  0.59802786844E+02  0.19177517877E+03  0.20304531986E+03  0.41800000000E+01 0. -1.
        -11    1    1    2    0    0  0.51703876585E+02  0.18549565867E+02  0.15799664063E+03  0.16727317687E+03  0.00000000000E+00 0. -1.
         11    1    1    2    0    0 -0.68628136224E+01 -0.38012485749E+02  0.32389753406E+02  0.50409755101E+02  0.00000000000E+00 0.  1.
</event>
<event>
 7    1  0.2719869E-009  0.1201317E+03  0.7561462E-02  0.1242880E+00
         -1   -1    0    0    0  501 -0.00000000000E+00  0.00000000000E+00  0.25221393314E+03  0.25221393314E+03  0.00000000000E+00 0.  1.
          1   -1    0    0  501    0  0.00000000000E+00 -0.00000000000E+00 -0.95026376023E+02  0.95026376023E+02  0.00000000000E+00 0. -1.
         25    2    1    2    0    0 -0.79738371439E+01 -0.72774048805E+02 -0.82257643096E+01  0.14516947430E+03  0.12508744466E+03 0.  0.
          5    1    3    3  502    0 -0.25031356318E+02 -0.10050728841E+03  0.15298292232E+02  0.10478451206E+03  0.41800000000E+01 0.  1.
         -5    1    3    3    0  502  0.17057519174E+02  0.27733239603E+02 -0.23524056542E+02  0.40384962243E+02  0.41800000000E+01 0.  1.
        -11    1    1    2    0    0 -0.26808455980E+02  0.45436722352E+01  0.92181657538E+02  0.96108252798E+02  0.00000000000E+00 0.  1.
         11    1    1    2    0    0  0.34782293124E+02  0.68230376570E+02  0.73231663893E+02  0.10596258207E+03  0.00000000000E+00 0. -1.
</event>
<event>
 7    1  0.2719869E-009  0.9097824E+02  0.7561462E-02  0.1300500E+00
         -3   -1    0    0    0  501 -0.00000000000E+00  0.00000000000E+00  0.40262939555E+03  0.40262939555E+03  0.00000000000E+00 0.  1.
          3   -1    0    0  501    0  0.00000000000E+00 -0.00000000000E+00 -0.48816851973E+02  0.48816851973E+02  0.00000000000E+00 0. -1.
         25    2    1    2    0    0 -0.12217231130E+02  0.49208267201E+02  0.78294206292E+02  0.15601004120E+03  0.12505373212E+03 0.  0.
          5    1    3    3  502    0 -0.21287832793E+02 -0.12251589245E+02  0.89360037399E+02  0.92768324055E+02  0.41800000000E+01 0. -1.
         -5    1    3    3    0  502  0.90706016624E+01  0.61459856446E+02 -0.11065831107E+02  0.63241717142E+02  0.41800000000E+01 0. -1.
        -11    1    1    2    0    0  0.26967710749E+02  0.13639046488E+02  0.16245031066E+03  0.16523735790E+03  0.00000000000E+00 0.  1.
         11    1    1    2    0    0 -0.14750479619E+02 -0.62847313689E+02  0.11306802663E+03  0.13019884843E+03  0.00000000000E+00 0. -1.
</event>
<event>
 7    1  0.2719869E-009  0.8637969E+02  0.7561462E-02  0.1311863E+00
          2   -1    0    0  501    0  0.00000000000E+00  0.00000000000E+00  0.26441589352E+03  0.26441589352E+03  0.00000000000E+00 0. -1.
         -2   -1    0    0    0  501 -0.00000000000E+00 -0.00000000000E+00 -0.47376694171E+02  0.47376694171E+02  0.00000000000E+00 0.  1.
         25    2    1    2    0    0  0.31387289864E+01 -0.61252313887E+01  0.88917449787E+02  0.15362938506E+03  0.12509318526E+03 0.  0.
          5    1    3    3  502    0 -0.53727357392E+02  0.73617710758E+01  0.76286424917E+02  0.93690531177E+02  0.41800000000E+01 0.  1.
         -5    1    3    3    0  502  0.56866086378E+02 -0.13487002465E+02  0.12631024870E+02  0.59938853882E+02  0.41800000000E+01 0.  1.
        -11    1    1    2    0    0  0.25991458438E+02  0.14106131270E+02  0.12424003975E+03  0.12771110495E+03  0.00000000000E+00 0. -1.
         11    1    1    2    0    0 -0.29130187424E+02 -0.79808998817E+01  0.38817098175E+01  0.30452097685E+02  0.00000000000E+00 0.  1.
</event>
<event>
 7    1  0.2719869E-009  0.1114919E+03  0.7561462E-02  0.1257832E+00
          1   -1    0    0  501    0  0.00000000000E+00  0.00000000000E+00  0.43651006702E+03  0.43651006702E+03  0.00000000000E+00 0. -1.
         -1   -1    0    0    0  501 -0.00000000000E+00 -0.00000000000E+00 -0.48496489520E+02  0.48496489520E+02  0.00000000000E+00 0.  1.
         25    2    1    2    0    0 -0.68187063374E+01 -0.28484422130E+02  0.58307926536E+02  0.14107330217E+03  0.12507599781E+03 0.  0.
          5    1    3    3  502    0  0.53980912594E+02 -0.35572330786E+02  0.16569438719E+02  0.66868141454E+02  0.41800000000E+01 0. -1.
         -5    1    3    3    0  502 -0.60799618932E+02  0.70879086561E+01  0.41738487818E+02  0.74205160714E+02  0.41800000000E+01 0. -1.
        -11    1    1    2    0    0  0.41618441250E+02  0.42359111047E+02  0.17686071265E+03  0.18656393172E+03  0.00000000000E+00 0.  1.
         11    1    1    2    0    0 -0.34799734913E+02 -0.13874688917E+02  0.15284493832E+03  0.15736932265E+03  0.00000000000E+00 0. -1.
</event>
<event>
 7    1  0.2719869E-009  0.1318575E+03  0.7561462E-02  0.1224725E+00
          1   -1    0    0  501    0  0.00000000000E+00  0.00000000000E+00  0.11050809167E+03  0.11050809167E+03  0.00000000000E+00 0. -1.
         -1   -1    0    0    0  501 -0.00000000000E+00 -0.00000000000E+00 -0.16388955398E+03  0.16388955398E+03  0.00000000000E+00 0.  1.
         25    2    1    2    0    0 -0.61219375972E+02  0.47105763593E+02 -0.41525625985E+02  0.15275075939E+03  0.12506658996E+03 0.  0.
          5    1    3    3  502    0 -0.76285444359E+02 -0.16978040951E+02 -0.77600349975E+01  0.78647399441E+02  0.41800000000E+01 0. -1.
         -5    1    3    3    0  502  0.15066068388E+02  0.64083804544E+02 -0.33765590988E+02  0.74103359953E+02  0.41800000000E+01 0. -1.
        -11    1    1    2    0    0 -0.19558542446E+02 -0.31708628155E+02  0.53390029016E+01  0.37636134686E+02  0.00000000000E+00 0. -1.
         11    1    1    2    0    0  0.80777918418E+02 -0.15397135438E+02 -0.17194839232E+02  0.84010751573E+02  0.00000000000E+00 0.  1.
</event>
<event>
 7    1  0.2719869E-009  0.2186741E+03  0.7561462E-02  0.1134875E+00
          2   -1    0    0  501    0  0.00000000000E+00  0.00000000000E+00  0.47892782920E+03  0.47892782920E+03  0.00000000000E+00 0. -1.
         -2   -1    0    0    0  501 -0.00000000000E+00 -0.00000000000E+00 -0.11503550365E+03  0.11503550365E+03  0.00000000000E+00 0.  1.
         25    2    1    2    0    0 -0.19923167006E+03 -0.96183729658E+01  0.24681038676E+03  0.34109821254E+03  0.12508737800E+03 0.  0.
          5    1    3    3  502    0 -0.10988381008E+03  0.56936375679E+02  0.13535143857E+03  0.18344941241E+03  0.41800000000E+01 0.  1.
         -5    1    3    3    0  502 -0.89347859979E+02 -0.66554748645E+02  0.11145894819E+03  0.15764880013E+03  0.41800000000E+01 0.  1.
        -11    1    1    2    0    0  0.88354984072E+02  0.20243163594E+02 -0.84930575027E+00  0.90648277440E+02  0.00000000000E+00 0.  1.
         11    1    1    2    0    0  0.11087668599E+03 -0.10624790628E+02  0.11793124454E+03  0.16221684287E+03  0.00000000000E+00 0. -1.
</event>
<event>
 7    1  0.2719869E-009  0.1667842E+03  0.7561462E-02  0.1181243E+00
          2   -1    0    0  501    0  0.00000000000E+00  0.00000000000E+00  0.15202864222E+03  0.15202864222E+03  0.00000000000E+00 0. -1.
         -2   -1    0    0    0  501 -0.00000000000E+00 -0.00000000000E+00 -0.26456187655E+03  0.26456187655E+03  0.00000000000E+00 0.  1.
         25    2    1    2    0    0  0.65459991686E+02 -0.13521421168E+03  0.20501642834E+02  0.19656043462E+03  0.12509114096E+03 0.  0.
          5    1    3    3  502    0  0.51552699376E+02 -0.15219010945E+03 -0.72888623941E+01  0.16090404016E+03  0.41800000000E+01 0.  1.
         -5    1    3    3    0  502  0.13907292310E+02  0.16975897769E+02  0.27790505228E+02  0.35656394451E+02  0.41800000000E+01 0.  1.
        -11    1    1    2    0    0 -0.20977749785E+02  0.53250610407E+02 -0.10995741621E+03  0.12396098932E+03  0.00000000000E+00 0.  1.
         11    1    1    2    0    0 -0.44482241901E+02  0.81963601270E+02 -0.23077460947E+02  0.96069094830E+02  0.00000000000E+00 0. -1.
</event>
<event>
 7    1  0.2719869E-009  0.1639300E+03  0.7561462E-02  0.1184330E+00
          2   -1    0    0  501    0  0.00000000000E+00  0.00000000000E+00  0.41466295597E+03  0.41466295597E+03  0.00000000000E+00 0. -1.
         -2   -1    0    0    0  501 -0.00000000000E+00 -0.00000000000E+00 -0.86665888311E+02  0.86665888311E+02  0.00000000000E+00 0.  1.
         25    2    1    2    0    0 -0.36555422722E+02  0.13956271370E+03  0.97934141948E+02  0.21458972067E+03  0.12507438616E+03 0.  0.
          5    1    3    3  502    0  0.37695899468E+02  0.77787784445E+02  0.76627468967E+02  0.11559049116E+03  0.41800000000E+01 0. -1.
         -5    1    3    3    0  502 -0.74251322190E+02  0.61774929252E+02  0.21306672980E+02  0.98999229515E+02  0.41800000000E+01 0. -1.
        -11    1    1    2    0    0  0.21287753550E+02 -0.61021284741E+02  0.29963818579E+02  0.71236199130E+02  0.00000000000E+00 0.  1.
         11    1    1    2    0    0  0.15267669172E+02 -0.78541428955E+02  0.20009910713E+03  0.21550292448E+03  0.00000000000E+00 0. -1.
</event>
<event>
 7    1  0.2719869E-009  0.1153229E+03  0.7561462E-02  0.1251019E+00
          2   -1    0    0  501    0  0.00000000000E+00  0.00000000000E+00  0.42711587408E+03  0.42711587408E+03  0.00000000000E+00 0. -1.
         -2   -1    0    0    0  501 -0.00000000000E+00 -0.00000000000E+00 -0.39403180789E+02  0.39403180789E+02  0.00000000000E+00 0.  1.
         25    2    1    2    0    0  0.16770796194E+02 -0.65907295423E+02  0.26340126391E+03  0.29942006707E+03  0.12508844686E+03 0.  0.
          5    1    3    3  502    0 -0.54210588450E+02 -0.22267719710E+02  0.11667431466E+03  0.13063310202E+03  0.41800000000E+01 0. -1.
         -5    1    3    3    0  502  0.70981384644E+02 -0.43639575713E+02  0.14672694926E+03  0.16878696505E+03  0.41800000000E+01 0. -1.
        -11    1    1    2    0    0 -0.32767800856E+02  0.16815385936E+02  0.50942947439E+01  0.37181148665E+02  0.00000000000E+00 0.  1.
         11    1    1    2    0    0  0.15997004661E+02  0.49091909488E+02  0.11921713463E+03  0.12991783913E+03  0.00000000000E+00 0. -1.
</event>
<event>
 7    1  0.2719869E-009  0.9567986E+02  0.7561462E-02  0.1289652E+00
          1   -1    0    0  501    0  0.00000000000E+00  0.00000000000E+00  0.15759632204E+03  0.15759632204E+03  0.00000000000E+00 0. -1.
         -1   -1    0    0    0  501 -0.00000000000E+00 -0.00000000000E+00 -0.96767797026E+02  0.96767797026E+02  0.00000000000E+00 0.  1.
         25    2    1    2    0    0  0.16525304520E+02 -0.52980590002E+02  0.50108503035E+02  0.14573264241E+03  0.12508841825E+03 0.  0.
          5    1    3    3  502    0 -0.28678927866E+02 -0.48273930619E+02 -0.21952817839E+02  0.60433863785E+02  0.41800000000E+01 0.  1.
         -5    1    3    3    0  502  0.45204232386E+02 -0.47066593831E+01  0.72061320874E+02  0.85298778621E+02  0.41800000000E+01 0.  1.
        -11    1    1    2    0    0  0.28016009940E+01  0.66032815067E+02  0.35149271201E+02  0.74857550720E+02  0.00000000000E+00 0. -1.
         11    1    1    2    0    0 -0.19326905514E+02 -0.13052225065E+02 -0.24429249221E+02  0.33773925940E+02  0.00000000000E+00 0.  1.
</event>
<event>
 7    1  0.2719869E-009  0.6953681E+02  0.7561462E-02  0.1361675E+00
         -1   -1    0    0    0  501 -0.00000000000E+00  0.00000000000E+00  0.97365639653E+02  0.97365639653E+02  0.00000000000E+00 0.  1.
          1   -1    0    0  501    0  0.00000000000E+00 -0.00000000000E+00 -0.12944405416E+03  0.12944405416E+03  0.00000000000E+00 0. -1.
         25    2    1    2    0    0  0.27467635927E+02  0.13195040437E+02 -0.33346151401E+02  0.13299373339E+03  0.12508711841E+03 0.  0.
          5    1    3    3  502    0 -0.17641511198E+00  0.39899484716E+02 -0.69379176907E+02  0.80143262918E+02  0.41800000000E+01 0.  1.
         -5    1    3    3    0  502  0.27644051039E+02 -0.26704444278E+02  0.36033025505E+02  0.52850470472E+02  0.41800000000E+01 0.  1.
        -11    1    1    2    0    0 -0.20870750817E+02  0.18517535104E+02 -0.35280302212E+02  0.44979851824E+02  0.00000000000E+00 0. -1.
         11    1    1    2    0    0 -0.65968851105E+01 -0.31712575541E+02  0.36548039106E+02  0.48836108599E+02  0.00000000000E+00 0.  1.
</event>
<event>
 7    1  0.2719869E-009  0.9786186E+02  0.7561462E-02  0.1284857E+00
          2   -1    0    0  501    0  0.00000000000E+00  0.00000000000E+00  0.62203736210E+03  0.62203736210E+03  0.00000000000E+00 0.  1.
         -2   -1    0    0    0  501 -0.00000000000E+00 -0.00000000000E+00 -0.21333465757E+02  0.21333465757E+02  0.00000000000E+00 0. -1.
         25    2    1    2    0    0 -0.68292314964E+01 -0.39829545328E+02  0.31465327550E+03  0.34100907204E+03  0.12508985710E+03 0.  0.
          5    1    3    3  502    0  0.16379152059E+02 -0.70011183937E+02  0.10159021613E+03  0.12453066656E+03  0.41800000000E+01 0.  1.
         -5    1    3    3    0  502 -0.23208383555E+02  0.30181638608E+02  0.21306305937E+03  0.21647840549E+03  0.41800000000E+01 0.  1.
        -11    1    1    2    0    0  0.36125385175E+02  0.21203120911E+00  0.19970791487E+03  0.20294910612E+03  0.00000000000E+00 0.  1.
         11    1    1    2    0    0 -0.29296153679E+02  0.39617514119E+02  0.86342705976E+02  0.99412649702E+02  0.00000000000E+00 0. -1.
</event>
<event>
 7    1  0.3607470E-009  0.2674687E+03  0.7561462E-02  0.1102737E+00
         -1   -1    0    0    0  501 -0.00000000000E+00  0.00000000000E+00  0.42661337911E+03  0.42661337911E+03  0.00000000000E+00 0.  1.
          1   -1    0    0  501    0  0.00000000000E+00 -0.00000000000E+00 -0.18775263891E+03  0.18775263891E+03  0.00000000000E+00 0. -1.
         25    2    1    2    0    0 -0.24397336059E+03 -0.37004569666E+02  0.21480764756E+03  0.35026105656E+03  0.12509253950E+03 0.  0.
          5    1    3    3  502    0 -0.69271164258E+02 -0.70277926006E+02  0.76317504826E+02  0.12481712633E+03  0.41800000000E+01 0.  1.
         -5    1    3    3    0  502 -0.17470219633E+03  0.33273356340E+02  0.13849014274E+03  0.22544393023E+03  0.41800000000E+01 0.  1.
        -11    1    1    2    0    0  0.18195310074E+03 -0.72347977112E+01 -0.60351545402E+01  0.18219686128E+03  0.00000000000E+00 0. -1.
         11    1    1    2    0    0  0.62020259841E+02  0.44239367377E+02  0.30088247184E+02  0.81908100181E+02  0.00000000000E+00 0.  1.
</event>
<event>
 7    1  0.2719869E-009  0.1102785E+03  0.7561462E-02  0.1260055E+00
         -2   -1    0    0    0  501 -0.00000000000E+00  0.00000000000E+00  0.91360463207E+01  0.91360463207E+01  0.00000000000E+00 0. -1.
          2   -1    0    0  501    0  0.00000000000E+00 -0.00000000000E+00 -0.24160682304E+04  0.24160682304E+04  0.00000000000E+00 0.  1.
         25    2    1    2    0    0 -0.85738410159E+01  0.37537820454E+02 -0.20982559621E+04  0.21023339858E+04  0.12508999457E+03 0.  0.
          5    1    3    3  502    0 -0.64722476748E+02  0.36301429350E+02 -0.11303139547E+04  0.11327550050E+04  0.41800000000E+01 0.  1.
         -5    1    3    3    0  502  0.56148635732E+02  0.12363911043E+01 -0.96794200738E+03  0.96957898080E+03  0.41800000000E+01 0.  1.
        -11    1    1    2    0    0 -0.75219936887E+01  0.24600565684E+02 -0.14100270771E+03  0.14333014967E+03  0.00000000000E+00 0.  1.
         11    1    1    2    0    0  0.16095834705E+02 -0.62138386138E+02 -0.16767351424E+03  0.17954014121E+03  0.00000000000E+00 0. -1.
</event>
<event>
 7    1  0.2719869E-009  0.1961722E+03  0.7561462E-02  0.1153009E+00
          3   -1    0    0  501    0  0.00000000000E+00  0.00000000000E+00  0.22232859688E+03  0.22232859688E+03  0.00000000000E+00 0. -1.
         -3   -1    0    0    0  501 -0.00000000000E+00 -0.00000000000E+00 -0.17812083912E+03  0.17812083912E+03  0.00000000000E+00 0.  1.
         25    2    1    2    0    0  0.16608168381E+03  0.17428612766E+02  0.22496560021E+02  0.20985709877E+03  0.12508806678E+03 0.  0.
          5    1    3    3  502    0 -0.10514340028E+02  0.29490077263E+02  0.28953722257E+01  0.31718631489E+02  0.41800000000E+01 0. -1.
         -5    1    3    3    0  502  0.17659602384E+03 -0.12061464497E+02  0.19601187795E+02  0.17813846728E+03  0.41800000000E+01 0. -1.
        -11    1    1    2    0    0 -0.15511258131E+03  0.87074841847E+01  0.35056891013E+02  0.15926304897E+03  0.00000000000E+00 0. -1.
         11    1    1    2    0    0 -0.10969102505E+02 -0.26136096950E+02 -0.13345693272E+02  0.31329288254E+02  0.00000000000E+00 0.  1.
</event>
<event>
 7    1  0.2719869E-009  0.9729386E+02  0.7561462E-02  0.1286092E+00
          2   -1    0    0  501    0  0.00000000000E+00  0.00000000000E+00  0.21093030907E+04  0.21093030907E+04  0.00000000000E+00 0. -1.
         -2   -1    0    0    0  501 -0.00000000000E+00 -0.00000000000E+00 -0.78105770874E+01  0.78105770874E+01  0.00000000000E+00 0.  1.
         25    2    1    2    0    0 -0.54723230156E+01  0.18353615029E+02  0.17600757981E+04  0.17646195521E+04  0.12509415261E+03 0.  0.
          5    1    3    3  502    0 -0.55285749897E+02 -0.38304061382E+01  0.13183763507E+04  0.13195472180E+04  0.41800000000E+01 0. -1.
         -5    1    3    3    0  502  0.49813426881E+02  0.22184021167E+02  0.44169944741E+03  0.44507233405E+03  0.41800000000E+01 0. -1.
        -11    1    1    2    0    0 -0.79488460649E-02 -0.51110257277E+02  0.25147613680E+03  0.25661743090E+03  0.00000000000E+00 0. -1.
         11    1    1    2    0    0  0.54802718617E+01  0.32756642248E+02  0.89940578742E+02  0.95876684838E+02  0.00000000000E+00 0.  1.
</event>
<event>
 7    1  0.2719869E-009  0.1822765E+03  0.7561462E-02  0.1165618E+00
          1   -1    0    0  501    0  0.00000000000E+00  0.00000000000E+00  0.83672404306E+03  0.83672404306E+03  0.00000000000E+00 0. -1.
         -1   -1    0    0    0  501 -0.00000000000E+00 -0.00000000000E+00 -0.41576069464E+02  0.41576069464E+02  0.00000000000E+00 0.  1.
         25    2    1    2    0    0 -0.37587174344E+02 -0.14590808562E+03  0.41999823923E+03  0.46340889490E+03  0.12508923930E+03 0.  0.
          5    1    3    3  502    0 -0.40642524597E+02 -0.16590117179E+03  0.39857120497E+03  0.43364904179E+03  0.41800000000E+01 0. -1.
         -5    1    3    3    0  502  0.30553502528E+01  0.19993086179E+02  0.21427034260E+02  0.29759853113E+02  0.41800000000E+01 0. -1.
        -11    1    1    2    0    0 -0.26522523573E+02  0.62089005875E+02  0.10468272535E+03  0.12456709796E+03  0.00000000000E+00 0.  1.
         11    1    1    2    0    0  0.64109697918E+02  0.83819079740E+02  0.27046700901E+03  0.29032411967E+03  0.00000000000E+00 0. -1.
</event>
<event>
 7    1  0.2719869E-009  0.1024816E+03  0.7561462E-02  0.1275162E+00
         -2   -1    0    0    0  501 -0.00000000000E+00  0.00000000000E+00  0.24219855823E+03  0.24219855823E+03  0.00000000000E+00 0. -1.
          2   -1    0    0  501    0  0.00000000000E+00 -0.00000000000E+00 -0.55070479470E+02  0.55070479470E+02  0.00000000000E+00 0.  1.
         25    2    1    2    0    0  0.37490325603E+01  0.28801683888E+02  0.16247908335E+03  0.20710036850E+03  0.12509003905E+03 0.  0.
          5    1    3    3  502    0  0.43208741944E+02 -0.32299464111E+02  0.54142385307E+02  0.76544895643E+02  0.41800000000E+01 0. -1.
         -5    1    3    3    0  502 -0.39459709383E+02  0.61101147999E+02  0.10833669804E+03  0.13055547286E+03  0.41800000000E+01 0. -1.
        -11    1    1    2    0    0 -0.27629668734E+02 -0.42332976358E+02 -0.37281216967E+01  0.50689036024E+02  0.00000000000E+00 0.  1.
         11    1    1    2    0    0  0.23880636174E+02  0.13531292470E+02  0.28377117105E+02  0.39479633169E+02  0.00000000000E+00 0. -1.
</event>
<event>
 7    1  0.2719869E-009  0.2268213E+03  0.7561462E-02  0.1128897E+00
          2   -1    0    0  501    0  0.00000000000E+00  0.00000000000E+00  0.49666139618E+03  0.49666139618E+03  0.00000000000E+00 0. -1.
         -2   -1    0    0    0  501 -0.00000000000E+00 -0.00000000000E+00 -0.12798270555E+03  0.12798270555E+03  0.00000000000E+00 0.  1.
         25    2    1    2    0    0 -0.18156186508E+03  0.12773783980E+03  0.24989254282E+03  0.35689767435E+03  0.12509196789E+03 0.  0.
          5    1    3    3  502    0 -0.17807146019E+03  0.10796393896E+03  0.15451944807E+03  0.25934415220E+03  0.41800000000E+01 0. -1.
         -5    1    3    3    0  502 -0.34904048904E+01  0.19773900837E+02  0.95373094756E+02  0.97553522151E+02  0.41800000000E+01 0. -1.
        -11    1    1    2    0    0  0.13294874026E+03 -0.73127590505E+02  0.33456661516E+02  0.15537812018E+03  0.00000000000E+00 0. -1.
         11    1    1    2    0    0  0.48613124812E+02 -0.54610249293E+02  0.85329486285E+02  0.11236830719E+03  0.00000000000E+00 0.  1.
</event>
<event>
 7    1  0.2808857E-009  0.9322655E+02  0.7561462E-02  0.1295221E+00
          2   -1    0    0  501    0  0.00000000000E+00  0.00000000000E+00  0.10666415108E+04  0.10666415108E+04  0.00000000000E+00 0.  1.
         -2   -1    0    0    0  501 -0.00000000000E+00 -0.00000000000E+00 -0.11529964051E+02  0.11529964051E+02  0.00000000000E+00 0. -1.
         25    2    1    2    0    0 -0.10884934797E+02 -0.66222709084E+01  0.69798866464E+03  0.70921941919E+03  0.12506667144E+03 0.  0.
          5    1    3    3  502    0 -0.17295462916E+02  0.44671268745E+02  0.12565842432E+03  0.13454429490E+03  0.41800000000E+01 0.  1.
         -5    1    3    3    0  502  0.64105281186E+01 -0.51293539654E+02  0.57233024033E+03  0.57467512429E+03  0.41800000000E+01 0.  1.
        -11    1    1    2    0    0  0.33379315712E+02  0.36269953011E+02  0.26589625793E+03  0.27042653011E+03  0.00000000000E+00 0.  1.
         11    1    1    2    0    0 -0.22494380915E+02 -0.29647682103E+02  0.91226624221E+02  0.98525525594E+02  0.00000000000E+00 0. -1.
</event>
<event>
 7    1  0.2719869E-009  0.9567970E+02  0.7561462E-02  0.1289653E+00
          2   -1    0    0  501    0  0.00000000000E+00  0.00000000000E+00  0.20809204763E+03  0.20809204763E+03  0.00000000000E+00 0.  1.
         -2   -1    0    0    0  501 -0.00000000000E+00 -0.00000000000E+00 -0.85380334488E+02  0.85380334488E+02  0.00000000000E+00 0. -1.
         25    2    1    2    0    0  0.14251858822E+02 -0.26391514715E+02  0.14662597952E+03  0.19505528969E+03  0.12509100942E+03 0.  0.
          5    1    3    3  502    0 -0.54671639947E+02 -0.21289519847E+02  0.58188777129E+02  0.82738371108E+02  0.41800000000E+01 0.  1.
         -5    1    3    3    0  502  0.68923498769E+02 -0.51019948677E+01  0.88437202386E+02  0.11231691858E+03  0.41800000000E+01 0.  1.
        -11    1    1    2    0    0  0.12399828168E+02  0.33497635387E+02  0.24068484068E+02  0.43071327359E+02  0.00000000000E+00 0.  1.
         11    1    1    2    0    0 -0.26651686990E+02 -0.71061206727E+01 -0.47982750445E+02  0.55345765065E+02  0.00000000000E+00 0. -1.
</event>
<event>
 7    1  0.2719869E-009  0.1234959E+03  0.7561462E-02  0.1237439E+00
         -3   -1    0    0    0  501 -0.00000000000E+00  0.00000000000E+00  0.11568952509E+03  0.11568952509E+03  0.00000000000E+00 0.  1.
          3   -1    0    0  501    0  0.00000000000E+00 -0.00000000000E+00 -0.14128088056E+03  0.14128088056E+03  0.00000000000E+00 0. -1.
         25    2    1    2    0    0 -0.39030361998E+02 -0.55027596240E+02 -0.80836129971E+01  0.14235002450E+03  0.12508708634E+03 0.  0.
          5    1    3    3  502    0 -0.65226028354E+02  0.75250931971E+01  0.20097216801E+02  0.68792676395E+02  0.41800000000E+01 0.  1.
         -5    1    3    3    0  502  0.26195666356E+02 -0.62552689437E+02 -0.28180829799E+02  0.73557348102E+02  0.41800000000E+01 0.  1.
        -11    1    1    2    0    0  0.62044983577E+02  0.10217791959E+02 -0.10794706843E+02  0.63800540400E+02  0.00000000000E+00 0.  1.
         11    1    1    2    0    0 -0.23014621579E+02  0.44809804282E+02 -0.67130356310E+01  0.50819840747E+02  0.00000000000E+00 0. -1.
</event>
<event>
 7    1  0.2719869E-009  0.1888591E+03  0.7561462E-02  0.1159494E+00
         -2   -1    0    0    0  501 -0.00000000000E+00  0.00000000000E+00  0.10155166535E+03  0.10155166535E+03  0.00000000000E+00 0.  1.
          2   -1    0    0  501    0  0.00000000000E+00 -0.00000000000E+00 -0.39615579187E+03  0.39615579187E+03  0.00000000000E+00 0. -1.
         25    2    1    2    0    0  0.49420264761E+02  0.15649482366E+03 -0.20270887103E+03  0.28926210496E+03  0.12509471040E+03 0.  0.
          5    1    3    3  502    0 -0.73783146204E+00  0.13651062062E+03 -0.88164175892E+02  0.16256102931E+03  0.41800000000E+01 0.  1.
         -5    1    3    3    0  502  0.50158096223E+02  0.19984203035E+02 -0.11454469514E+03  0.12670107566E+03  0.41800000000E+01 0.  1.
        -11    1    1    2    0    0  0.90825293998E+01 -0.11477198522E+03 -0.60015168118E+02  0.12983420711E+03  0.00000000000E+00 0.  1.
         11    1    1    2    0    0 -0.58502794160E+02 -0.41722838442E+02 -0.31880087365E+02  0.78611145155E+02  0.00000000000E+00 0. -1.
</event>
<event>
 7    1  0.2719869E-009  0.1331470E+03  0.7561462E-02  0.1222859E+00
          2   -1    0    0  501    0  0.00000000000E+00  0.00000000000E+00  0.42730834281E+03  0.42730834281E+03  0.00000000000E+00 0.  1.
         -2   -1    0    0    0  501 -0.00000000000E+00 -0.00000000000E+00 -0.59360849835E+02  0.59360849835E+02  0.00000000000E+00 0. -1.
         25    2    1    2    0    0 -0.10359144209E+03 -0.55404457340E+02  0.19937731978E+03  0.26305798717E+03  0.12508936089E+03 0.  0.
          5    1    3    3  502    0 -0.38621098750E+02 -0.53244367560E+02  0.18494456752E+03  0.19633776356E+03  0.41800000000E+01 0.  1.
         -5    1    3    3    0  502 -0.64970343337E+02 -0.21600897807E+01  0.14432752259E+02  0.66720223613E+02  0.41800000000E+01 0.  1.
        -11    1    1    2    0    0  0.39639730102E+01 -0.13526412339E+02 -0.21652164954E+01  0.14260612724E+02  0.00000000000E+00 0. -1.
         11    1    1    2    0    0  0.99627469077E+02  0.68930869680E+02  0.17073538969E+03  0.20935059274E+03  0.00000000000E+00 0.  1.
</event>
<event>
 7    1  0.2719869E-009  0.1726273E+03  0.7561462E-02  0.1175135E+00
         -3   -1    0    0    0  501 -0.00000000000E+00  0.00000000000E+00  0.19348908161E+03  0.19348908161E+03  0.00000000000E+00 0.  1.
          3   -1    0    0  501    0  0.00000000000E+00 -0.00000000000E+00 -0.22608992480E+03  0.22608992480E+03  0.00000000000E+00 0. -1.
         25    2    1    2    0    0  0.72104869080E+02 -0.15070050835E+03  0.43602251486E+02  0.21321009588E+03  0.12509050040E+03 0.  0.
          5    1    3    3  502    0  0.22102127868E+00 -0.58202532468E+02  0.71922628873E+02  0.92617064195E+02  0.41800000000E+01 0. -1.
         -5    1    3    3    0  502  0.71883847802E+02 -0.92497975878E+02 -0.28320377388E+02  0.12059303169E+03  0.41800000000E+01 0. -1.
        -11    1    1    2    0    0 -0.63878225424E+02  0.10243812491E+03 -0.95312582371E+02  0.15381315118E+03  0.00000000000E+00 0. -1.
         11    1    1    2    0    0 -0.82266436562E+01  0.48262383438E+02  0.19109487697E+02  0.52555759351E+02  0.00000000000E+00 0.  1.
</event>
<event>
 7    1  0.2719869E-009  0.2027777E+03  0.7561462E-02  0.1147416E+00
         -2   -1    0    0    0  501 -0.00000000000E+00  0.00000000000E+00  0.84202063171E+02  0.84202063171E+02  0.00000000000E+00 0.  1.
          2   -1    0    0  501    0  0.00000000000E+00 -0.00000000000E+00 -0.61074406326E+03  0.61074406326E+03  0.00000000000E+00 0. -1.
         25    2    1    2    0    0  0.99941939315E+02 -0.15879891125E+03 -0.37349048559E+03  0.43628889205E+03  0.12508944423E+03 0.  0.
          5    1    3    3  502    0  0.10224126405E+03 -0.10281641588E+03 -0.16195910151E+03  0.21742289302E+03  0.41800000000E+01 0.  1.
         -5    1    3    3    0  502 -0.22993247329E+01 -0.55982495370E+02 -0.21153138408E+03  0.21886599903E+03  0.41800000000E+01 0.  1.
        -11    1    1    2    0    0  0.11653344272E+02  0.38487166207E+02 -0.11191735478E+02  0.41741074955E+02  0.00000000000E+00 0.  1.
         11    1    1    2    0    0 -0.11159528359E+03  0.12031174504E+03 -0.14185977903E+03  0.21691615943E+03  0.00000000000E+00 0. -1.
</event>
<event>
 7    1  0.2719869E-009  0.1376725E+03  0.7561462E-02  0.1216496E+00
          1   -1    0    0  501    0  0.00000000000E+00  0.00000000000E+00  0.25285556141E+03  0.25285556141E+03  0.00000000000E+00 0. -1.
         -1   -1    0    0    0  501 -0.00000000000E+00 -0.00000000000E+00 -0.11762749964E+03  0.11762749964E+03  0.00000000000E+00 0.  1.
         25    2    1    2    0    0  0.11881186827E+03 -0.29741661630E+01  0.14218648973E+03  0.22358295033E+03  0.12508889683E+03 0.  0.
          5    1    3    3  502    0  0.73168030654E+02  0.33232875313E+02  0.14420464863E+03  0.16513763289E+03  0.41800000000E+01 0. -1.
         -5    1    3    3    0  502  0.45643837620E+02 -0.36207041476E+02 -0.20181588994E+01  0.58445317439E+02  0.41800000000E+01 0. -1.
        -11    1    1    2    0    0 -0.42239155611E+02  0.33621103476E+02 -0.29333696741E+02  0.61440952386E+02  0.00000000000E+00 0.  1.
         11    1    1    2    0    0 -0.76572712664E+02 -0.30646937313E+02  0.22375268781E+02  0.85459158341E+02  0.00000000000E+00 0. -1.
</event>
<event>
 7    1  0.2719869E-009  0.1145280E+03  0.7561462E-02  0.1252407E+00
          2   -1    0    0  501    0  0.00000000000E+00  0.00000000000E+00  0.25964022867E+03  0.25964022867E+03  0.00000000000E+00 0. -1.
         -2   -1    0    0    0  501 -0.00000000000E+00 -0.00000000000E+00 -0.86797813757E+02  0.86797813757E+02  0.00000000000E+00 0.  1.
         25    2    1    2    0    0 -0.10105015727E+03 -0.11817085764E+02  0.11739121718E+03  0.19944906775E+03  0.12509378464E+03 0.  0.
          5    1    3    3  502    0 -0.10889019509E+03  0.33607248627E+01  0.13569456453E+03  0.17406566663E+03  0.41800000000E+01 0.  1.
         -5    1    3    3    0  502  0.78400378198E+01 -0.15177810627E+02 -0.18303347345E+02  0.25383401121E+02  0.41800000000E+01 0.  1.
        -11    1    1    2    0    0  0.36438247285E+02  0.10099788119E+02 -0.23833558752E+02  0.44696645378E+02  0.00000000000E+00 0.  1.
         11    1    1    2    0    0  0.64611909981E+02  0.17172976455E+01  0.79284756485E+02  0.10229232930E+03  0.00000000000E+00 0. -1.
</event>
<event>
 7    1  0.2719869E-009  0.9805941E+02  0.7561462E-02  0.1284430E+00
          1   -1    0    0  501    0  0.00000000000E+00  0.00000000000E+00  0.40174494119E+02  0.40174494119E+02  0.00000000000E+00 0. -1.
         -1   -1    0    0    0  501 -0.00000000000E+00 -0.00000000000E+00 -0.49369571050E+03  0.49369571050E+03  0.00000000000E+00 0.  1.
         25    2    1    2    0    0 -0.54671474376E+02  0.34789250513E+02 -0.37296423144E+03  0.39867964204E+03  0.12507548515E+03 0.  0.
          5    1    3    3  502    0 -0.29052574488E+02  0.75476586888E+02 -0.30333779556E+03  0.31396187327E+03  0.41800000000E+01 0. -1.
         -5    1    3    3    0  502 -0.25618899888E+02 -0.40687336375E+02 -0.69626435878E+02  0.84717768773E+02  0.41800000000E+01 0. -1.
        -11    1    1    2    0    0  0.22908168328E+02 -0.52599935710E+01 -0.88090191911E+02  0.91172000194E+02  0.00000000000E+00 0.  1.
         11    1    1    2    0    0  0.31763306049E+02 -0.29529256942E+02  0.75332069706E+01  0.44018562379E+02  0.00000000000E+00 0. -1.
</event>
<event>
 7    1  0.2719869E-009  0.9707212E+02  0.7561462E-02  0.1286576E+00
          3   -1    0    0  501    0  0.00000000000E+00  0.00000000000E+00  0.14254284040E+03  0.14254284040E+03  0.00000000000E+00 0. -1.
         -3   -1    0    0    0  501 -0.00000000000E+00 -0.00000000000E+00 -0.12515249182E+03  0.12515249182E+03  0.00000000000E+00 0.  1.
         25    2    1    2    0    0  0.22308456507E+02 -0.90409099705E+01 -0.65123186970E+02  0.14307489520E+03  0.12509992354E+03 0.  0.
          5    1    3    3  502    0  0.42815066622E+02 -0.51383142374E+02 -0.68364847161E+02  0.95731823222E+02  0.41800000000E+01 0.  1.
         -5    1    3    3    0  502 -0.20506610115E+02  0.42342232404E+02  0.32416601911E+01  0.47343071976E+02  0.41800000000E+01 0.  1.
        -11    1    1    2    0    0  0.44282682545E+01 -0.31239797735E+02  0.66644395313E+02  0.73736083086E+02  0.00000000000E+00 0. -1.
         11    1    1    2    0    0 -0.26736724761E+02  0.40280707706E+02  0.15869140231E+02  0.50884353940E+02  0.00000000000E+00 0.  1.
</event>
<event>
 7    1  0.2719869E-009  0.1552883E+03  0.7561462E-02  0.1194121E+00
          2   -1    0    0  501    0  0.00000000000E+00  0.00000000000E+00  0.74776927703E+03  0.74776927703E+03  0.00000000000E+00 0. -1.
         -2   -1    0    0    0  501 -0.00000000000E+00 -0.00000000000E+00 -0.41045112285E+02  0.41045112285E+02  0.00000000000E+00 0.  1.
         25    2    1    2    0    0  0.11607966061E+03 -0.61221321082E+02  0.47861149151E+03  0.51180024421E+03  0.12509193580E+03 0.  0.
          5    1    3    3  502    0  0.94115622401E+02 -0.97901159816E+02  0.39647290002E+03  0.41910693185E+03  0.41800000000E+01 0.  1.
         -5    1    3    3    0  502  0.21964038212E+02  0.36679838735E+02  0.82138591492E+02  0.92693312362E+02  0.41800000000E+01 0.  1.
        -11    1    1    2    0    0 -0.20590065680E+02  0.16109785386E+02  0.56089449339E+00  0.26149389907E+02  0.00000000000E+00 0.  1.
         11    1    1    2    0    0 -0.95489594934E+02  0.45111535696E+02  0.22755177874E+03  0.25086475520E+03  0.00000000000E+00 0. -1.
</event>
<event>
 7    1  0.2719869E-009  0.1117092E+03  0.7561462E-02  0.1257437E+00
          2   -1    0    0  501    0  0.00000000000E+00  0.00000000000E+00  0.36799295368E+03  0.36799295368E+03  0.00000000000E+00 0. -1.
         -2   -1    0    0    0  501 -0.00000000000E+00 -0.00000000000E+00 -0.72383875018E+02  0.72383875018E+02  0.00000000000E+00 0.  1.
         25    2    1    2    0    0  0.10416314307E+03 -0.24536226264E+01  0.24126816499E+03  0.29106272298E+03  0.12510475863E+03 0.  0.
          5    1    3    3  502    0  0.34948669625E+02  0.29513940918E+01  0.21312750852E+03  0.21603455169E+03  0.41800000000E+01 0. -1.
         -5    1    3    3    0  502  0.69214473448E+02 -0.54050167182E+01  0.28140656469E+02  0.75028171288E+02  0.41800000000E+01 0. -1.
        -11    1    1    2    0    0 -0.10110101683E+03 -0.13771439199E+02  0.10627919705E+02  0.10258665030E+03  0.00000000000E+00 0.  1.
         11    1    1    2    0    0 -0.30621262388E+01  0.16225061826E+02  0.43712993967E+02  0.46727455419E+02  0.00000000000E+00 0. -1.
</event>
<event>
 7    1  0.2719869E-009  0.1354316E+03  0.7561462E-02  0.1219612E+00
          2   -1    0    0  501    0  0.00000000000E+00  0.00000000000E+00  0.74100416269E+02  0.74100416269E+02  0.00000000000E+00 0.  1.
         -2   -1    0    0    0  501 -0.00000000000E+00 -0.00000000000E+00 -0.37100734117E+03  0.37100734117E+03  0.00000000000E+00 0. -1.
         25    2    1    2    0    0 -0.10783699360E+03  0.60525652213E+02 -0.12866336116E+03  0.21794019497E+03  0.12510594036E+03 0.  0.
          5    1    3    3  502    0  0.50405593552E+01 -0.54304208734E+01  0.18914294967E+02  0.20739326498E+02  0.41800000000E+01 0. -1.
         -5    1    3    3    0  502 -0.11287755296E+03  0.65956073086E+02 -0.14757765613E+03  0.19720086847E+03  0.41800000000E+01 0. -1.
        -11    1    1    2    0    0  0.28596430836E+02 -0.40924824208E+02 -0.12541139229E+03  0.13498375610E+03  0.00000000000E+00 0. -1.
         11    1    1    2    0    0  0.79240562768E+02 -0.19600828005E+02 -0.42832171450E+02  0.92183806372E+02  0.00000000000E+00 0.  1.
</event>
<event>
 6    1  0.2719869E-009  0.1621822E+03  0.7561462E-02  0.1186255E+00
         -2   -1    0    0    0  501 -0.00000000000E+00  0.00000000000E+00  0.85332348646E+02  0.85332348646E+02  0.00000000000E+00 0.  1.
          2   -1    0    0  501    0  0.00000000000E+00 -0.00000000000E+00 -0.42101022704E+03  0.42101022704E+03  0.00000000000E+00 0. -1.
          5    1    1    2  502    0 -0.38857635663E+02 -0.86852200496E+02 -0.16278599966E+02  0.96621352698E+02  0.41800000000E+01 0. -1.
         -5    1    1    2    0  502 -0.64230196309E+02 -0.27824114595E+02 -0.13922497279E+03  0.15588702614E+03  0.41800000000E+01 0. -1.
        -11    1    1    2    0    0  0.18036371752E+02  0.46897855361E+02 -0.11872396890E+03  0.12891896810E+03  0.00000000000E+00 0.  1.
         11    1    1    2    0    0  0.85051460220E+02  0.67778459730E+02 -0.61450336740E+02  0.12491522875E+03  0.00000000000E+00 0. -1.
</event>
<event>
 7    1  0.2719869E-009  0.1006129E+03  0.7561462E-02  0.1279012E+00
         -1   -1    0    0    0  501 -0.00000000000E+00  0.00000000000E+00  0.33522698959E+02  0.33522698959E+02  0.00000000000E+00 0.  1.
          1   -1    0    0  501    0  0.00000000000E+00 -0.00000000000E+00 -0.39245063061E+03  0.39245063061E+03  0.00000000000E+00 0. -1.
         25    2    1    2    0    0 -0.21656441824E+02  0.30527528085E+02 -0.17632980250E+03  0.21940833598E+03  0.12508751816E+03 0.  0.
          5    1    3    3  502    0  0.38249049893E+02  0.13128511923E+01 -0.94200704744E+01  0.39634877617E+02  0.41800000000E+01 0. -1.
         -5    1    3    3    0  502 -0.59905491717E+02  0.29214676892E+02 -0.16690973203E+03  0.17977345836E+03  0.41800000000E+01 0. -1.
        -11    1    1    2    0    0  0.25868286738E+02 -0.60437597985E+02 -0.11371873909E+03  0.13135380896E+03  0.00000000000E+00 0.  1.
         11    1    1    2    0    0 -0.42118449137E+01  0.29910069900E+02 -0.68879390057E+02  0.75211184631E+02  0.00000000000E+00 0. -1.
</event>
<event>
 7    1  0.2719869E-009  0.1603891E+03  0.7561462E-02  0.1188258E+00
          1   -1    0    0  501    0  0.00000000000E+00  0.00000000000E+00  0.61981903181E+02  0.61981903181E+02  0.00000000000E+00 0. -1.
         -1   -1    0    0    0  501 -0.00000000000E+00 -0.00000000000E+00 -0.59809283331E+03  0.59809283331E+03  0.00000000000E+00 0.  1.
         25    2    1    2    0    0  0.10931946829E+03  0.76229636788E+02 -0.42857992985E+03  0.46592990244E+03  0.12509282169E+03 0.  0.
          5    1    3    3  502    0  0.12426315746E+03  0.78965304585E+02 -0.42496197915E+03  0.44976327968E+03  0.41800000000E+01 0.  1.
         -5    1    3    3    0  502 -0.14943689161E+02 -0.27356677970E+01 -0.36179507070E+01  0.16166622757E+02  0.41800000000E+01 0.  1.
        -11    1    1    2    0    0 -0.87970930535E+02 -0.10468051975E+02 -0.81156542714E+02  0.12014511707E+03  0.00000000000E+00 0.  1.
         11    1    1    2    0    0 -0.21348537760E+02 -0.65761584812E+02 -0.26374457562E+02  0.73999716980E+02  0.00000000000E+00 0. -1.
</event>
<event>
 7    1  0.2719869E-009  0.6900189E+02  0.7561462E-02  0.1363520E+00
         -2   -1    0    0    0  501 -0.00000000000E+00  0.00000000000E+00  0.23399607836E+02  0.23399607836E+02  0.00000000000E+00 0.  1.
          2   -1    0    0  501    0  0.00000000000E+00 -0.00000000000E+00 -0.55468190021E+03  0.55468190021E+03  0.00000000000E+00 0. -1.
         25    2    1    2    0    0  0.39975048297E+01  0.77154576359E+01 -0.39805105171E+03  0.41733452738E+03  0.12509180485E+03 0.  0.
          5    1    3    3  502    0  0.26213184340E+02  0.27174965053E-01 -0.97168561251E+01  0.28266967731E+02  0.41800000000E+01 0. -1.
         -5    1    3    3    0  502 -0.22215679511E+02  0.76882826709E+01 -0.38833419559E+03  0.38906755964E+03  0.41800000000E+01 0. -1.
        -11    1    1    2    0    0 -0.10062740797E+02 -0.46881534889E+02 -0.90814529460E+02  0.10269574396E+03  0.00000000000E+00 0.  1.
         11    1    1    2    0    0  0.60652359672E+01  0.39166077253E+02 -0.42416711207E+02  0.58051236717E+02  0.00000000000E+00 0. -1.
</event>
<event>
 7    1  0.2719869E-009  0.1080561E+03  0.7561462E-02  0.1264213E+00
         -1   -1    0    0    0  501 -0.00000000000E+00  0.00000000000E+00  0.22155194581E+03  0.22155194581E+03  0.00000000000E+00 0.  1.
          1   -1    0    0  501    0  0.00000000000E+00 -0.00000000000E+00 -0.69432471199E+02  0.69432471199E+02  0.00000000000E+00 0. -1.
         25    2    1    2    0    0  0.20836970090E+02  0.52566533547E+02  0.86936938411E+02  0.16246333559E+03  0.12505552519E+03 0.  0.
          5    1    3    3  502    0 -0.27112091723E+02 -0.94100093587E+01 -0.15925626326E+02  0.33086428752E+02  0.41800000000E+01 0.  1.
         -5    1    3    3    0  502  0.47949061812E+02  0.61976542906E+02  0.10286256474E+03  0.12937690684E+03  0.41800000000E+01 0.  1.
        -11    1    1    2    0    0 -0.19783399457E+02 -0.79378790327E+02  0.59332032854E+02  0.10105773286E+03  0.00000000000E+00 0. -1.
         11    1    1    2    0    0 -0.10535706328E+01  0.26812256780E+02  0.58505033482E+01  0.27463348560E+02  0.00000000000E+00 0.  1.
</event>
<event>
 7    1  0.2719869E-009  0.1199471E+03  0.7561462E-02  0.1243184E+00
          4   -1    0    0  501    0  0.00000000000E+00  0.00000000000E+00  0.32673570336E+02  0.32673570336E+02  0.00000000000E+00 0. -1.
         -4   -1    0    0    0  501 -0.00000000000E+00 -0.00000000000E+00 -0.53136405287E+03  0.53136405287E+03  0.00000000000E+00 0.  1.
         25    2    1    2    0    0  0.40826681462E+01  0.73912329582E+02 -0.30704771691E+03  0.33971268188E+03  0.12508679036E+03 0.  0.
          5    1    3    3  502    0  0.29108400181E+02  0.92632114155E+02 -0.14455127854E+03  0.17418539566E+03  0.41800000000E+01 0. -1.
         -5    1    3    3    0  502 -0.25025732034E+02 -0.18719784573E+02 -0.16249643838E+03  0.16552728622E+03  0.41800000000E+01 0. -1.
        -11    1    1    2    0    0 -0.36020924543E+02 -0.70354558805E+02 -0.16352273095E+03  0.18162311110E+03  0.00000000000E+00 0. -1.
         11    1    1    2    0    0  0.31938256397E+02 -0.35577707776E+01 -0.28120034669E+02  0.42701830223E+02  0.00000000000E+00 0.  1.
</event>
<event>
 7    1  0.2719869E-009  0.1017532E+03  0.7561462E-02  0.1276652E+00
         -2   -1    0    0    0  501 -0.00000000000E+00  0.00000000000E+00  0.61070582014E+02  0.61070582014E+02  0.00000000000E+00 0.  1.
          2   -1    0    0  501    0  0.00000000000E+00 -0.00000000000E+00 -0.32973144714E+03  0.32973144714E+03  0.00000000000E+00 0. -1.
         25    2    1    2    0    0  0.71681792495E+02  0.23634373443E+02 -0.21675523023E+03  0.26139474444E+03  0.12509004600E+03 0.  0.
          5    1    3    3  502    0  0.77334598102E+02 -0.12464705497E+02 -0.55735810935E+02  0.96228696174E+02  0.41800000000E+01 0. -1.
         -5    1    3    3    0  502 -0.56528056069E+01  0.36099078941E+02 -0.16101941929E+03  0.16516604827E+03  0.41800000000E+01 0. -1.
        -11    1    1    2    0    0 -0.16995829571E+02  0.13900916252E+02 -0.58757554761E+02  0.62725943093E+02  0.00000000000E+00 0. -1.
         11    1    1    2    0    0 -0.54685962924E+02 -0.37535289695E+02  0.68519198685E+01  0.66681341613E+02  0.00000000000E+00 0.  1.
</event>
<event>
 7    1  0.2719869E-009  0.1333907E+03  0.7561462E-02  0.1222510E+00
         -1   -1    0    0    0  501 -0.00000000000E+00  0.00000000000E+00  0.22790230772E+02  0.22790230772E+02  0.00000000000E+00 0.  1.
          1   -1    0    0  501    0  0.00000000000E+00 -0.00000000000E+00 -0.94799913553E+03  0.94799913553E+03  0.00000000000E+00 0. -1.
         25    2    1    2    0    0 -0.25858185051E+02  0.10199118140E+03 -0.49131090043E+03  0.51778956180E+03  0.12509509424E+03 0.  0.
          5    1    3    3  502    0 -0.93696032558E+01  0.12688728031E+03 -0.33035977046E+03  0.35403844666E+03  0.41800000000E+01 0.  1.
         -5    1    3    3    0  502 -0.16488581795E+02 -0.24896098911E+02 -0.16095112997E+03  0.16375111514E+03  0.41800000000E+01 0.  1.
        -11    1    1    2    0    0  0.21317738671E+02 -0.27971771081E+02 -0.45094916286E+02  0.57187563633E+02  0.00000000000E+00 0.  1.
         11    1    1    2    0    0  0.45404463799E+01 -0.74019410321E+02 -0.38880308803E+03  0.39581224087E+03  0.00000000000E+00 0. -1.
</event>
<event>
 7    1  0.2719869E-009  0.1020453E+03  0.7561462E-02  0.1276053E+00
         -1   -1    0    0    0  501 -0.00000000000E+00  0.00000000000E+00  0.29188330685E+02  0.29188330685E+02  0.00000000000E+00 0.  1.
          1   -1    0    0  501    0  0.00000000000E+00 -0.00000000000E+00 -0.62512847533E+03  0.62512847533E+03  0.00000000000E+00 0. -1.
         25    2    1    2    0    0  0.11723736906E+02  0.87138443790E+00 -0.52246011474E+03  0.53735921307E+03  0.12510854112E+03 0.  0.
          5    1    3    3  502    0 -0.33306593945E+02  0.40916728212E+02 -0.13134298000E+03  0.14160493863E+03  0.41800000000E+01 0. -1.
         -5    1    3    3    0  502  0.45030330851E+02 -0.40045343774E+02 -0.39111713474E+03  0.39575427445E+03  0.41800000000E+01 0. -1.
        -11    1    1    2    0    0 -0.12294726885E+02 -0.44989378282E+02 -0.33578322890E+02  0.57469193796E+02  0.00000000000E+00 0. -1.
         11    1    1    2    0    0  0.57098997957E+00  0.44117993844E+02 -0.39901707012E+02  0.59488399146E+02  0.00000000000E+00 0.  1.
</event>
<event>
 7    1  0.3234283E-009  0.1307593E+03  0.7561462E-02  0.1226333E+00
          1   -1    0    0  501    0  0.00000000000E+00  0.00000000000E+00  0.13989807591E+04  0.13989807591E+04  0.00000000000E+00 0. -1.
         -1   -1    0    0    0  501 -0.00000000000E+00 -0.00000000000E+00 -0.15317452506E+02  0.15317452506E+02  0.00000000000E+00 0.  1.
         25    2    1    2    0    0 -0.66324504523E+02  0.69153353401E+02  0.84502374489E+03  0.85958996615E+03  0.12509458139E+03 0.  0.
          5    1    3    3  502    0  0.20617814813E+02  0.37525499378E+02  0.51572696233E+03  0.51751814409E+03  0.41800000000E+01 0.  1.
         -5    1    3    3    0  502 -0.86942319337E+02  0.31627854023E+02  0.32929678256E+03  0.34207182206E+03  0.41800000000E+01 0.  1.
        -11    1    1    2    0    0 -0.76732454877E+01 -0.48442230539E+02  0.13080449998E+03  0.13969733574E+03  0.00000000000E+00 0.  1.
         11    1    1    2    0    0  0.73997750011E+02 -0.20711122862E+02  0.40783506177E+03  0.41501090977E+03  0.00000000000E+00 0. -1.
</event>
<event>
 7    1  0.2791486E-009  0.1283828E+03  0.7561462E-02  0.1229875E+00
          1   -1    0    0  501    0  0.00000000000E+00  0.00000000000E+00  0.99323707294E+03  0.99323707294E+03  0.00000000000E+00 0. -1.
         -1   -1    0    0    0  501 -0.00000000000E+00 -0.00000000000E+00 -0.17752542205E+02  0.17752542205E+02  0.00000000000E+00 0.  1.
         25    2    1    2    0    0  0.29584662603E+02 -0.63266837934E+02  0.42588459505E+03  0.44933674596E+03  0.12509147820E+03 0.  0.
          5    1    3    3  502    0 -0.24592510483E+02  0.26873769640E+02  0.13897337146E+03  0.14372912524E+03  0.41800000000E+01 0.  1.
         -5    1    3    3    0  502  0.54177173085E+02 -0.90140607573E+02  0.28691122359E+03  0.30560762071E+03  0.41800000000E+01 0.  1.
        -11    1    1    2    0    0 -0.54907406625E+02  0.99219035716E+01  0.23248459787E+03  0.23908650259E+03  0.00000000000E+00 0.  1.
         11    1    1    2    0    0  0.25322744022E+02  0.53344934362E+02  0.31711533781E+03  0.32256636660E+03  0.00000000000E+00 0. -1.
</event>
<event>
 7    1  0.2719869E-009  0.9141773E+02  0.7561462E-02  0.1299454E+00
         -2   -1    0    0    0  501 -0.00000000000E+00  0.00000000000E+00  0.49511991647E+03  0.49511991647E+03  0.00000000000E+00 0.  1.
          2   -1    0    0  501    0  0.00000000000E+00 -0.00000000000E+00 -0.30756062758E+02  0.30756062758E+02  0.00000000000E+00 0. -1.
         25    2    1    2    0    0 -0.41142659566E+02 -0.31354589938E+02  0.19981657568E+03  0.24135075215E+03  0.12509073866E+03 0.  0.
          5    1    3    3  502    0 -0.12998631789E+02  0.28047618782E+02  0.16287112063E+03  0.16583156419E+03  0.41800000000E+01 0. -1.
         -5    1    3    3    0  502 -0.28144027777E+02 -0.59402208720E+02  0.36945455051E+02  0.75519187954E+02  0.41800000000E+01 0. -1.
        -11    1    1    2    0    0 -0.10969227705E+02  0.31824552477E+02  0.19354395427E+03  0.19644945490E+03  0.00000000000E+00 0.  1.
         11    1    1    2    0    0  0.52111887271E+02 -0.46996253950E+00  0.71003323761E+02  0.88075772179E+02  0.00000000000E+00 0. -1.
</event>
<event>
 7    1  0.2719869E-009  0.1170015E+03  0.7561462E-02  0.1248127E+00
          2   -1    0    0  501    0  0.00000000000E+00  0.00000000000E+00  0.68142066203E+03  0.68142066203E+03  0.00000000000E+00 0. -1.
         -2   -1    0    0    0  501 -0.00000000000E+00 -0.00000000000E+00 -0.26717875590E+02  0.26717875590E+02  0.00000000000E+00 0.  1.
         25    2    1    2    0    0  0.47159313275E+02  0.62708154715E+02  0.32239751970E+03  0.35460348288E+03  0.12508859207E+03 0.  0.
          5    1    3    3  502    0  0.68958476548E+02  0.10222577609E+02  0.82785556718E+02  0.10830832554E+03  0.41800000000E+01 0.  1.
         -5    1    3    3    0  502 -0.21799163273E+02  0.52485577106E+02  0.23961196298E+03  0.24629515734E+03  0.41800000000E+01 0.  1.
        -11    1    1    2    0    0 -0.55386058444E+02 -0.74481066474E+02  0.32380594419E+03  0.33684615810E+03  0.00000000000E+00 0. -1.
         11    1    1    2    0    0  0.82267451689E+01  0.11772911759E+02  0.84993225543E+01  0.16688896645E+02  0.00000000000E+00 0.  1.
</event>
<event>
 7    1  0.2719869E-009  0.6812724E+02  0.7561462E-02  0.1366580E+00
         -3   -1    0    0    0  501 -0.00000000000E+00  0.00000000000E+00  0.57580396692E+02  0.57580396692E+02  0.00000000000E+00 0.  1.
          3   -1    0    0  501    0  0.00000000000E+00 -0.00000000000E+00 -0.23320994510E+03  0.23320994510E+03  0.00000000000E+00 0. -1.
         25    2    1    2    0    0 -0.46106267753E+02 -0.11559614605E+01 -0.83537063700E+02  0.15733152668E+03  0.12509054362E+03 0.  0.
          5    1    3    3  502    0 -0.37043078918E+02 -0.71349783621E+01 -0.11642014066E+03  0.12245088470E+03  0.41800000000E+01 0. -1.
         -5    1    3    3    0  502 -0.90631888347E+01  0.59790169017E+01  0.32883076959E+02  0.34880641984E+02  0.41800000000E+01 0. -1.
        -11    1    1    2    0    0  0.42458097204E+02  0.33520611534E+02 -0.26527146637E+02  0.60249571986E+02  0.00000000000E+00 0.  1.
         11    1    1    2    0    0  0.36481705495E+01 -0.32364650073E+02 -0.65565338074E+02  0.73209243129E+02  0.00000000000E+00 0. -1.
</event>
<event>
 7    1  0.2877874E-009  0.1008675E+03  0.7561462E-02  0.1278482E+00
          1   -1    0    0  501    0  0.00000000000E+00  0.00000000000E+00  0.50618643364E+03  0.50618643364E+03  0.00000000000E+00 0. -1.
         -1   -1    0    0    0  501 -0.00000000000E+00 -0.00000000000E+00 -0.31444284263E+02  0.31444284263E+02  0.00000000000E+00 0.  1.
         25    2    1    2    0    0  0.48236850303E+02  0.36975424247E+02  0.30792343114E+03  0.33787357792E+03  0.12509092488E+03 0.  0.
          5    1    3    3  502    0  0.26210852814E+02  0.82978561218E+02  0.17628152447E+03  0.19663442907E+03  0.41800000000E+01 0. -1.
         -5    1    3    3    0  502  0.22025997490E+02 -0.46003136971E+02  0.13164190667E+03  0.14123914885E+03  0.41800000000E+01 0. -1.
        -11    1    1    2    0    0 -0.25773192050E+02 -0.84331296657E+01 -0.18892316525E+01  0.27183529952E+02  0.00000000000E+00 0.  1.
         11    1    1    2    0    0 -0.22463658253E+02 -0.28542294581E+02  0.16870794989E+03  0.17257361003E+03  0.00000000000E+00 0. -1.
</event>
<event>
 7    1  0.2719869E-009  0.1152591E+03  0.7561462E-02  0.1251129E+00
         -2   -1    0    0    0  501 -0.00000000000E+00  0.00000000000E+00  0.69819251183E+02  0.69819251183E+02  0.00000000000E+00 0. -1.
          2   -1    0    0  501    0  0.00000000000E+00 -0.00000000000E+00 -0.81176274232E+03  0.81176274232E+03  0.00000000000E+00 0.  1.
         25    2    1    2    0    0  0.27926156614E+02  0.65986306499E+02 -0.75046858376E+03  0.76419280094E+03  0.12511386387E+03 0.  0.
          5    1    3    3  502    0 -0.31442502540E+02  0.58208768979E+02 -0.57358859237E+03  0.57740647507E+03  0.41800000000E+01 0.  1.
         -5    1    3    3    0  502  0.59368659154E+02  0.77775375207E+01 -0.17687999139E+03  0.18678632587E+03  0.41800000000E+01 0.  1.
        -11    1    1    2    0    0  0.26173823283E+02 -0.16892148221E+02 -0.22079397516E+02  0.38182633375E+02  0.00000000000E+00 0.  1.
         11    1    1    2    0    0 -0.54099979897E+02 -0.49094158278E+02  0.30604490138E+02  0.79206559189E+02  0.00000000000E+00 0. -1.
</event>
<event>
 7    1  0.2719869E-009  0.8528757E+02  0.7561462E-02  0.1314682E+00
          2   -1    0    0  501    0  0.00000000000E+00  0.00000000000E+00  0.47891685356E+03  0.47891685356E+03  0.00000000000E+00 0. -1.
         -2   -1    0    0    0  501 -0.00000000000E+00 -0.00000000000E+00 -0.31690661440E+02  0.31690661440E+02  0.00000000000E+00 0.  1.
         25    2    1    2    0    0 -0.57340890470E+01  0.58540720799E+02  0.23628859159E+03  0.27374514021E+03  0.12507680640E+03 0.  0.
          5    1    3    3  502    0  0.30201454036E+02  0.64242397928E+02  0.22415354905E+03  0.23516270850E+03  0.41800000000E+01 0.  1.
         -5    1    3    3    0  502 -0.35935543083E+02 -0.57016771294E+01  0.12135042546E+02  0.38582431706E+02  0.41800000000E+01 0.  1.
        -11    1    1    2    0    0  0.10919496576E+02 -0.12878312777E+02 -0.37628028646E+01  0.17298700264E+02  0.00000000000E+00 0.  1.
         11    1    1    2    0    0 -0.51854075288E+01 -0.45662408022E+02  0.21470040339E+03  0.21956367453E+03  0.00000000000E+00 0. -1.
</event>
<event>
 7    1  0.3423793E-009  0.9731510E+02  0.7561462E-02  0.1286045E+00
          1   -1    0    0  501    0  0.00000000000E+00  0.00000000000E+00  0.15747479914E+03  0.15747479914E+03  0.00000000000E+00 0. -1.
         -1   -1    0    0    0  501 -0.00000000000E+00 -0.00000000000E+00 -0.11709165126E+03  0.11709165126E+03  0.00000000000E+00 0.  1.
         25    2    1    2    0    0  0.11575785665E+02 -0.61082930964E+02  0.74602229602E+02  0.15836255657E+03  0.12509229949E+03 0.  0.
          5    1    3    3  502    0  0.21916673832E+02  0.20399288044E+02 -0.17463289787E+02  0.34912897828E+02  0.41800000000E+01 0. -1.
         -5    1    3    3    0  502 -0.10340888167E+02 -0.81482219008E+02  0.92065519389E+02  0.12344965874E+03  0.41800000000E+01 0. -1.
        -11    1    1    2    0    0  0.21676269799E+02  0.23223156876E+02 -0.53525575960E+02  0.62242774436E+02  0.00000000000E+00 0.  1.
         11    1    1    2    0    0 -0.33252055463E+02  0.37859774088E+02  0.19306494241E+02  0.53961119396E+02  0.00000000000E+00 0. -1.
</event>
<event>
 7    1  0.2719869E-009  0.1078360E+03  0.7561462E-02  0.1264631E+00
          1   -1    0    0  501    0  0.00000000000E+00  0.00000000000E+00  0.13785319456E+04  0.13785319456E+04  0.00000000000E+00 0. -1.
         -1   -1    0    0    0  501 -0.00000000000E+00 -0.00000000000E+00 -0.14511898804E+02  0.14511898804E+02  0.00000000000E+00 0.  1.
         25    2    1    2    0    0 -0.59903014456E+01  0.88205243041E+02  0.87248174956E+03  0.88582587426E+03  0.12508807930E+03 0.  0.
          5    1    3    3  502    0  0.16370568479E+02  0.42566158199E+02  0.83802518885E+02  0.95499779621E+02  0.41800000000E+01 0.  1.
         -5    1    3    3    0  502 -0.22360869925E+02  0.45639084842E+02  0.78867923068E+03  0.79032609464E+03  0.41800000000E+01 0.  1.
        -11    1    1    2    0    0 -0.36835554832E+02 -0.42699705544E+02  0.31350700193E+03  0.31853847996E+03  0.00000000000E+00 0. -1.
         11    1    1    2    0    0  0.42825856278E+02 -0.45505537497E+02  0.17803129527E+03  0.18867949015E+03  0.00000000000E+00 0.  1.
</event>
<event>
 7    1  0.2719869E-009  0.1004513E+03  0.7561462E-02  0.1279350E+00
         -1   -1    0    0    0  501 -0.00000000000E+00  0.00000000000E+00  0.50121509616E+02  0.50121509616E+02  0.00000000000E+00 0.  1.
          1   -1    0    0  501    0  0.00000000000E+00 -0.00000000000E+00 -0.29852702888E+03  0.29852702888E+03  0.00000000000E+00 0. -1.
         25    2    1    2    0    0  0.76142568528E+01 -0.55015217002E+02 -0.16002621263E+03  0.21057680049E+03  0.12509815813E+03 0.  0.
          5    1    3    3  502    0  0.37319478257E+02  0.47430635984E+01 -0.13329748748E+03  0.13856743008E+03  0.41800000000E+01 0. -1.
         -5    1    3    3    0  502 -0.29705221405E+02 -0.59758280600E+02 -0.26728725150E+02  0.72009370412E+02  0.41800000000E+01 0. -1.
        -11    1    1    2    0    0 -0.35969371741E+02  0.19519359361E+01 -0.63418981565E+02  0.72935402789E+02  0.00000000000E+00 0. -1.
         11    1    1    2    0    0  0.28355114888E+02  0.53063281066E+02 -0.24960325065E+02  0.65136335214E+02  0.00000000000E+00 0.  1.
</event>
<event>
 7    1  0.2719869E-009  0.1477637E+03  0.7561462E-02  0.1203248E+00
         -1   -1    0    0    0  501 -0.00000000000E+00  0.00000000000E+00  0.67033019081E+03  0.67033019081E+03  0.00000000000E+00 0.  1.
          1   -1    0    0  501    0  0.00000000000E+00 -0.00000000000E+00 -0.44448037160E+02  0.44448037160E+02  0.00000000000E+00 0. -1.
         25    2    1    2    0    0  0.40277334317E+02 -0.10211068000E+03  0.49213615691E+03  0.51951370289E+03  0.12509051090E+03 0.  0.
          5    1    3    3  502    0  0.71735753920E+02 -0.98018823763E+02  0.28371868059E+03  0.30865428933E+03  0.41800000000E+01 0.  1.
         -5    1    3    3    0  502 -0.31458419602E+02 -0.40918562325E+01  0.20841747632E+03  0.21085941356E+03  0.41800000000E+01 0.  1.
        -11    1    1    2    0    0 -0.67305975222E+02  0.51984485912E+02  0.86004374999E+02  0.12095136872E+03  0.00000000000E+00 0.  1.
         11    1    1    2    0    0  0.27028640905E+02  0.50126194084E+02  0.47741621736E+02  0.74313156362E+02  0.00000000000E+00 0. -1.
</event>
<event>
 7    1  0.2719869E-009  0.1324252E+03  0.7561462E-02  0.1223901E+00
         -2   -1    0    0    0  501 -0.00000000000E+00  0.00000000000E+00  0.22741384365E+03  0.22741384365E+03  0.00000000000E+00 0.  1.
          2   -1    0    0  501    0  0.00000000000E+00 -0.00000000000E+00 -0.91371166700E+02  0.91371166700E+02  0.00000000000E+00 0. -1.
         25    2    1    2    0    0  0.73471087763E+01 -0.90222305053E+02  0.59723275680E+02  0.16555045181E+03  0.12508412409E+03 0.  0.
          5    1    3    3  502    0  0.59771555753E+02 -0.15982491740E+02  0.13347935703E+02  0.63432788894E+02  0.41800000000E+01 0.  1.
         -5    1    3    3    0  502 -0.52424446977E+02 -0.74239813313E+02  0.46375339977E+02  0.10211766292E+03  0.41800000000E+01 0.  1.
        -11    1    1    2    0    0 -0.34988906930E+02  0.67682085876E+02  0.85718943278E+01  0.76671805307E+02  0.00000000000E+00 0. -1.
         11    1    1    2    0    0  0.27641798154E+02  0.22540219177E+02  0.67747506946E+02  0.76562753237E+02  0.00000000000E+00 0.  1.
</event>
<event>
 7    1  0.2719869E-009  0.1302225E+03  0.7561462E-02  0.1227126E+00
          2   -1    0    0  501    0  0.00000000000E+00  0.00000000000E+00  0.15593009351E+04  0.15593009351E+04  0.00000000000E+00 0. -1.
         -2   -1    0    0    0  501 -0.00000000000E+00 -0.00000000000E+00 -0.12682409122E+02  0.12682409122E+02  0.00000000000E+00 0.  1.
         25    2    1    2    0    0 -0.62206981198E+02 -0.37252685808E+02  0.11344330564E+04  0.11436100351E+04  0.12509229332E+03 0.  0.
          5    1    3    3  502    0 -0.96089514799E+02 -0.39419191700E+01  0.70674512216E+03  0.71327054733E+03  0.41800000000E+01 0. -1.
         -5    1    3    3    0  502  0.33882533601E+02 -0.33310766638E+02  0.42768793422E+03  0.43033948777E+03  0.41800000000E+01 0. -1.
        -11    1    1    2    0    0 -0.23997081182E+02  0.10791146854E+02  0.83960236591E+02  0.87986533538E+02  0.00000000000E+00 0.  1.
         11    1    1    2    0    0  0.86204062380E+02  0.26461538954E+02  0.32822523303E+03  0.34038677561E+03  0.00000000000E+00 0. -1.
</event>
<event>
 7    1  0.2719869E-009  0.1209350E+03  0.7561462E-02  0.1241563E+00
         -2   -1    0    0    0  501 -0.00000000000E+00  0.00000000000E+00  0.81758945830E+02  0.81758945830E+02  0.00000000000E+00 0.  1.
          2   -1    0    0  501    0  0.00000000000E+00 -0.00000000000E+00 -0.22365255349E+03  0.22365255349E+03  0.00000000000E+00 0. -1.
         25    2    1    2    0    0  0.51487959200E+02 -0.61102128494E+02 -0.10613077224E+03  0.18247324027E+03  0.12509301559E+03 0.  0.
          5    1    3    3  502    0  0.71687320580E+02 -0.12222469760E+02 -0.11164774449E+02  0.73692504961E+02  0.41800000000E+01 0. -1.
         -5    1    3    3    0  502 -0.20199361380E+02 -0.48879658734E+02 -0.94965997792E+02  0.10878073531E+03  0.41800000000E+01 0. -1.
        -11    1    1    2    0    0 -0.57967940609E+01  0.69309831287E+02 -0.11297172846E+02  0.70463335493E+02  0.00000000000E+00 0.  1.
         11    1    1    2    0    0 -0.45691165139E+02 -0.82077027932E+01 -0.24465662568E+02  0.52474923552E+02  0.00000000000E+00 0. -1.
</event>
<event>
 7    1  0.2719869E-009  0.1103037E+03  0.7561462E-02  0.1260008E+00
         -3   -1    0    0    0  501 -0.00000000000E+00  0.00000000000E+00  0.62113421330E+03  0.62113421330E+03  0.00000000000E+00 0.  1.
          3   -1    0    0  501    0  0.00000000000E+00 -0.00000000000E+00 -0.27140188940E+02  0.27140188940E+02  0.00000000000E+00 0. -1.
         25    2    1    2    0    0  0.39680724590E+02  0.40929650866E+02  0.21995962408E+03  0.25938428180E+03  0.12509265843E+03 0.  0.
          5    1    3    3  502    0  0.25970549619E+02 -0.31468894772E+02  0.18810424305E+02  0.45122779704E+02  0.41800000000E+01 0. -1.
         -5    1    3    3    0  502  0.13710174970E+02  0.72398545638E+02  0.20114919978E+03  0.21426150209E+03  0.41800000000E+01 0. -1.
        -11    1    1    2    0    0 -0.55409644275E+02  0.65275615231E+01  0.17536184109E+03  0.18402340353E+03  0.00000000000E+00 0. -1.
         11    1    1    2    0    0  0.15728919686E+02 -0.47457212390E+02  0.19867255919E+03  0.20486671691E+03  0.00000000000E+00 0.  1.
</event>
<event>
 7    1  0.2719869E-009  0.9592568E+02  0.7561462E-02  0.1289105E+00
         -2   -1    0    0    0  501 -0.00000000000E+00  0.00000000000E+00  0.68675896348E+02  0.68675896348E+02  0.00000000000E+00 0.  1.
          2   -1    0    0  501    0  0.00000000000E+00 -0.00000000000E+00 -0.23078492864E+03  0.23078492864E+03  0.00000000000E+00 0. -1.
         25    2    1    2    0    0  0.59887367949E+02  0.87353501093E+01 -0.86070682328E+02  0.16345810721E+03  0.12509031647E+03 0.  0.
          5    1    3    3  502    0 -0.32271830084E+02  0.16432936729E+02 -0.54656598696E+02  0.65698771735E+02  0.41800000000E+01 0.  1.
         -5    1    3    3    0  502  0.92159198033E+02 -0.76975866192E+01 -0.31414083632E+02  0.97759335474E+02  0.41800000000E+01 0.  1.
        -11    1    1    2    0    0 -0.30514358511E+02 -0.12948420737E+02 -0.95115298458E+02  0.10072590370E+03  0.00000000000E+00 0. -1.
         11    1    1    2    0    0 -0.29373009438E+02  0.42130706281E+01  0.19076948497E+02  0.35276814078E+02  0.00000000000E+00 0.  1.
</event>
<event>
 7    1  0.2719869E-009  0.1252528E+03  0.7561462E-02  0.1234675E+00
          2   -1    0    0  501    0  0.00000000000E+00  0.00000000000E+00  0.15367489554E+03  0.15367489554E+03  0.00000000000E+00 0. -1.
         -2   -1    0    0    0  501 -0.00000000000E+00 -0.00000000000E+00 -0.12196120108E+03  0.12196120108E+03  0.00000000000E+00 0.  1.
         25    2    1    2    0    0 -0.41819395148E+02 -0.69725580049E+02 -0.11675894826E+01  0.14919498584E+03  0.12508901715E+03 0.  0.
          5    1    3    3  502    0 -0.36315686638E+02 -0.95371359940E+02  0.31693941373E+02  0.10694159019E+03  0.41800000000E+01 0.  1.
         -5    1    3    3    0  502 -0.55037085099E+01  0.25645779892E+02 -0.32861530856E+02  0.42253395648E+02  0.41800000000E+01 0.  1.
        -11    1    1    2    0    0 -0.39187510525E+01 -0.20382662173E+02  0.24120457235E+01  0.20895633316E+02  0.00000000000E+00 0.  1.
         11    1    1    2    0    0  0.45738146200E+02  0.90108242222E+02  0.30469238217E+02  0.10554547746E+03  0.00000000000E+00 0. -1.
</event>
<event>
 7    1  0.2719869E-009  0.1115861E+03  0.7561462E-02  0.1257660E+00
          1   -1    0    0  501    0  0.00000000000E+00  0.00000000000E+00  0.99876720809E+03  0.99876720809E+03  0.00000000000E+00 0. -1.
         -1   -1    0    0    0  501 -0.00000000000E+00 -0.00000000000E+00 -0.15686428489E+02  0.15686428489E+02  0.00000000000E+00 0.  1.
         25    2    1    2    0    0  0.39190040468E+02  0.49186676391E+01  0.75165927751E+03  0.76302368003E+03  0.12511360541E+03 0.  0.
          5    1    3    3  502    0 -0.27932721775E+02  0.43506621802E+02  0.24167083908E+03  0.24717469520E+03  0.41800000000E+01 0.  1.
         -5    1    3    3    0  502  0.67122762243E+02 -0.38587954163E+02  0.50998843843E+03  0.51584898483E+03  0.41800000000E+01 0.  1.
        -11    1    1    2    0    0 -0.65365429003E+02 -0.12422307004E+02  0.12528948066E+03  0.14186051947E+03  0.00000000000E+00 0. -1.
         11    1    1    2    0    0  0.26175388535E+02  0.75036393647E+01  0.10613202143E+03  0.10956943708E+03  0.00000000000E+00 0.  1.
</event>
<event>
 7    1  0.2719869E-009  0.1330671E+03  0.7561462E-02  0.1222974E+00
          1   -1    0    0  501    0  0.00000000000E+00  0.00000000000E+00  0.72383738020E+02  0.72383738020E+02  0.00000000000E+00 0. -1.
         -1   -1    0    0    0  501 -0.00000000000E+00 -0.00000000000E+00 -0.46510785257E+03  0.46510785257E+03  0.00000000000E+00 0.  1.
         25    2    1    2    0    0  0.23169570774E+02 -0.10105627655E+03 -0.36764361514E+03  0.40194596827E+03  0.12509809598E+03 0.  0.
          5    1    3    3  502    0  0.51836865487E+02  0.52054404415E+01 -0.11279062518E+03  0.12431152305E+03  0.41800000000E+01 0.  1.
         -5    1    3    3    0  502 -0.28667294713E+02 -0.10626171699E+03 -0.25485298996E+03  0.27763444522E+03  0.41800000000E+01 0.  1.
        -11    1    1    2    0    0 -0.62564299421E+01  0.34142171021E+02  0.31059331968E+02  0.46578029799E+02  0.00000000000E+00 0. -1.
         11    1    1    2    0    0 -0.16913140832E+02  0.66914105530E+02 -0.56139831380E+02  0.88967592521E+02  0.00000000000E+00 0.  1.
</event>
<event>
 7    1  0.2719869E-009  0.2572161E+03  0.7561462E-02  0.1108827E+00
         -1   -1    0    0    0  501 -0.00000000000E+00  0.00000000000E+00  0.12717981904E+03  0.12717981904E+03  0.00000000000E+00 0.  1.
          1   -1    0    0  501    0  0.00000000000E+00 -0.00000000000E+00 -0.97814709948E+03  0.97814709948E+03  0.00000000000E+00 0. -1.
         25    2    1    2    0    0 -0.15372446303E+03 -0.17515224499E+03 -0.80990437333E+03  0.85199964547E+03  0.12509509378E+03 0.  0.
          5    1    3    3  502    0 -0.36791505204E+02  0.16025089785E+02 -0.12128013794E+03  0.12781534578E+03  0.41800000000E+01 0. -1.
         -5    1    3    3    0  502 -0.11693295782E+03 -0.19117733477E+03 -0.68862423539E+03  0.72418429969E+03  0.41800000000E+01 0. -1.
        -11    1    1    2    0    0  0.93099656815E+02  0.39065777768E+02 -0.18632973249E+02  0.10266873323E+03  0.00000000000E+00 0.  1.
         11    1    1    2    0    0  0.60624806211E+02  0.13608646722E+03 -0.22429933864E+02  0.15065853982E+03  0.00000000000E+00 0. -1.
</event>
<event>
 7    1  0.2719869E-009  0.8946612E+02  0.7561462E-02  0.1304150E+00
         -3   -1    0    0    0  501 -0.00000000000E+00  0.00000000000E+00  0.38698553907E+03  0.38698553907E+03  0.00000000000E+00 0.  1.
          3   -1    0    0  501    0  0.00000000000E+00 -0.00000000000E+00 -0.41930719599E+02  0.41930719599E+02  0.00000000000E+00 0. -1.
         25    2    1    2    0    0 -0.23899525430E+02 -0.90939040864E+01  0.93744912521E+02  0.15839745361E+03  0.12509099999E+03 0.  0.
          5    1    3    3  502    0 -0.63267964080E+02  0.11123437711E+02  0.94016301139E+02  0.11394342204E+03  0.41800000000E+01 0. -1.
         -5    1    3    3    0  502  0.39368438650E+02 -0.20217341797E+02 -0.27138861834E+00  0.44454031570E+02  0.41800000000E+01 0. -1.
        -11    1    1    2    0    0  0.24249633248E+01 -0.27536865375E+02  0.17130476158E+02  0.32520956554E+02  0.00000000000E+00 0. -1.
         11    1    1    2    0    0  0.21474562105E+02  0.36630769461E+02  0.23417943079E+03  0.23799784851E+03  0.00000000000E+00 0.  1.
</event>
<event>
 7    1  0.2719869E-009  0.1306597E+03  0.7561462E-02  0.1226480E+00
          4   -1    0    0  501    0  0.00000000000E+00  0.00000000000E+00  0.11544450533E+03  0.11544450533E+03  0.00000000000E+00 0. -1.
         -4   -1    0    0    0  501 -0.00000000000E+00 -0.00000000000E+00 -0.18540514426E+03  0.18540514426E+03  0.00000000000E+00 0.  1.
         25    2    1    2    0    0  0.84347003371E+02  0.45040233389E+02 -0.53714389609E+02  0.16636297579E+03  0.12509342293E+03 0.  0.
          5    1    3    3  502    0  0.10754214958E+03  0.60241135106E+02 -0.24273561120E+02  0.12570197478E+03  0.41800000000E+01 0. -1.
         -5    1    3    3    0  502 -0.23195146208E+02 -0.15200901717E+02 -0.29440828489E+02  0.40661001005E+02  0.41800000000E+01 0. -1.
        -11    1    1    2    0    0 -0.38400086586E+02 -0.50746590077E+02  0.28833934670E+02  0.69865433820E+02  0.00000000000E+00 0. -1.
         11    1    1    2    0    0 -0.45946916785E+02  0.57063566879E+01 -0.45080183988E+02  0.64621239984E+02  0.00000000000E+00 0.  1.
</event>
<event>
 7    1  0.2719869E-009  0.8533261E+02  0.7561462E-02  0.1314565E+00
          1   -1    0    0  501    0  0.00000000000E+00  0.00000000000E+00  0.16897784988E+03  0.16897784988E+03  0.00000000000E+00 0. -1.
         -1   -1    0    0    0  501 -0.00000000000E+00 -0.00000000000E+00 -0.96165707134E+02  0.96165707134E+02  0.00000000000E+00 0.  1.
         25    2    1    2    0    0 -0.28884993080E+02 -0.44053528641E+02 -0.83337821379E+00  0.13572398087E+03  0.12508096679E+03 0.  0.
          5    1    3    3  502    0  0.95102919064E+01 -0.57988645856E+02  0.45041901172E+02  0.74157764001E+02  0.41800000000E+01 0.  1.
         -5    1    3    3    0  502 -0.38395284986E+02  0.13935117215E+02 -0.45875279385E+02  0.61566216870E+02  0.41800000000E+01 0.  1.
        -11    1    1    2    0    0  0.41874091587E+02  0.29708623335E+02 -0.19569424417E+01  0.51379679548E+02  0.00000000000E+00 0.  1.
         11    1    1    2    0    0 -0.12989098507E+02  0.14344905306E+02  0.75602463403E+02  0.78039896597E+02  0.00000000000E+00 0. -1.
</event>
<event>
 7    1  0.2719869E-009  0.2048771E+03  0.7561462E-02  0.1145688E+00
          2   -1    0    0  501    0  0.00000000000E+00  0.00000000000E+00  0.31288028007E+03  0.31288028007E+03  0.00000000000E+00 0.  1.
         -2   -1    0    0    0  501 -0.00000000000E+00 -0.00000000000E+00 -0.14948374923E+03  0.14948374923E+03  0.00000000000E+00 0. -1.
         25    2    1    2    0    0  0.12215448043E+03  0.12317426154E+03  0.15874918340E+03  0.26635233116E+03  0.12509454540E+03 0.  0.
          5    1    3    3  502    0 -0.17696060829E+02 -0.99219348858E+01  0.13645868023E+02  0.24804787337E+02  0.41800000000E+01 0. -1.
         -5    1    3    3    0  502  0.13985054126E+03  0.13309619643E+03  0.14510331538E+03  0.24154754383E+03  0.41800000000E+01 0. -1.
        -11    1    1    2    0    0 -0.91759313240E+02 -0.13507274397E+03  0.49939871935E+01  0.16336877804E+03  0.00000000000E+00 0. -1.
         11    1    1    2    0    0 -0.30395167191E+02  0.11898482431E+02 -0.34663975448E+00  0.32642920088E+02  0.00000000000E+00 0.  1.
</event>
<event>
 7    1  0.2719869E-009  0.1164653E+03  0.7561462E-02  0.1249045E+00
         -1   -1    0    0    0  501 -0.00000000000E+00  0.00000000000E+00  0.63921366058E+02  0.63921366058E+02  0.00000000000E+00 0.  1.
          1   -1    0    0  501    0  0.00000000000E+00 -0.00000000000E+00 -0.33789899321E+03  0.33789899321E+03  0.00000000000E+00 0. -1.
         25    2    1    2    0    0  0.72573673840E+02 -0.38461486377E+01 -0.57777863449E+02  0.15577887831E+03  0.12508815463E+03 0.  0.
          5    1    3    3  502    0  0.24794246897E+02 -0.50809570124E+02 -0.67284246535E+02  0.87983005900E+02  0.41800000000E+01 0. -1.
         -5    1    3    3    0  502  0.47779426943E+02  0.46963421487E+02  0.95063830858E+01  0.67795872412E+02  0.41800000000E+01 0. -1.
        -11    1    1    2    0    0 -0.90477848685E+02  0.76815586450E+01 -0.13427686890E+03  0.16209727008E+03  0.00000000000E+00 0.  1.
         11    1    1    2    0    0  0.17904174845E+02 -0.38354100073E+01 -0.81922894793E+02  0.83944210866E+02  0.00000000000E+00 0. -1.
</event>
<event>
 7    1  0.2719869E-009  0.1057055E+03  0.7561462E-02  0.1268736E+00
         -2   -1    0    0    0  501 -0.00000000000E+00  0.00000000000E+00  0.24084572102E+02  0.24084572102E+02  0.00000000000E+00 0. -1.
          2   -1    0    0  501    0  0.00000000000E+00 -0.00000000000E+00 -0.70363551544E+03  0.70363551544E+03  0.00000000000E+00 0.  1.
         25    2    1    2    0    0 -0.44922623433E+02  0.27414730989E+02 -0.24145695666E+03  0.27698287370E+03  0.12509372820E+03 0.  0.
          5    1    3    3  502    0  0.28157706319E+02  0.54578671679E+01 -0.16968393904E+03  0.17214167511E+03  0.41800000000E+01 0. -1.
         -5    1    3    3    0  502 -0.73080329752E+02  0.21956863821E+02 -0.71773017612E+02  0.10484119859E+03  0.41800000000E+01 0. -1.
        -11    1    1    2    0    0 -0.25957447466E+02 -0.23502355119E+02 -0.14646960047E+03  0.15059712361E+03  0.00000000000E+00 0.  1.
         11    1    1    2    0    0  0.70880070899E+02 -0.39123758696E+01 -0.29162438621E+03  0.30014009023E+03  0.00000000000E+00 0. -1.
</event>
<event>
 7    1  0.2719869E-009  0.1059160E+03  0.7561462E-02  0.1268325E+00
          2   -1    0    0  501    0  0.00000000000E+00  0.00000000000E+00  0.20855286891E+03  0.20855286891E+03  0.00000000000E+00 0.  1.
         -2   -1    0    0    0  501 -0.00000000000E+00 -0.00000000000E+00 -0.13840274656E+03  0.13840274656E+03  0.00000000000E+00 0. -1.
         25    2    1    2    0    0 -0.84295885376E+02 -0.41335708181E+02 -0.53995245601E+02  0.16546275559E+03  0.12509196568E+03 0.  0.
          5    1    3    3  502    0 -0.24646463998E+02 -0.51541256518E+02 -0.80880508979E+02  0.99111444565E+02  0.41800000000E+01 0.  1.
         -5    1    3    3    0  502 -0.59649421378E+02  0.10205548337E+02  0.26885263379E+02  0.66351311024E+02  0.41800000000E+01 0.  1.
        -11    1    1    2    0    0  0.15112772513E+02  0.71016598536E+01  0.98870077198E+02  0.10027024300E+03  0.00000000000E+00 0.  1.
         11    1    1    2    0    0  0.69183112863E+02  0.34234048328E+02  0.25275290748E+02  0.81222616879E+02  0.00000000000E+00 0. -1.
</event>
<event>
 7    1  0.2719869E-009  0.1290684E+03  0.7561462E-02  0.1228845E+00
         -1   -1    0    0    0  501 -0.00000000000E+00  0.00000000000E+00  0.20196713147E+03  0.20196713147E+03  0.00000000000E+00 0.  1.
          1   -1    0    0  501    0  0.00000000000E+00 -0.00000000000E+00 -0.16314905293E+03  0.16314905293E+03  0.00000000000E+00 0. -1.
         25    2    1    2    0    0  0.36251083718E+02 -0.63534402935E+02  0.14615810737E+03  0.20581503046E+03  0.12508746134E+03 0.  0.
          5    1    3    3  502    0 -0.43835803763E+02 -0.43009072042E+02  0.53385568521E+02  0.81479134113E+02  0.41800000000E+01 0.  1.
         -5    1    3    3    0  502  0.80086887482E+02 -0.20525330893E+02  0.92772538850E+02  0.12433589634E+03  0.41800000000E+01 0.  1.
        -11    1    1    2    0    0 -0.63353835060E+02  0.58508069213E+02 -0.61897222631E+02  0.10615163093E+03  0.00000000000E+00 0.  1.
         11    1    1    2    0    0  0.27102751342E+02  0.50263337226E+01 -0.45442806203E+02  0.53149523014E+02  0.00000000000E+00 0. -1.
</event>
<event>
 7    1  0.2719869E-009  0.9197505E+02  0.7561462E-02  0.1298138E+00
         -2   -1    0    0    0  501 -0.00000000000E+00  0.00000000000E+00  0.45155677725E+02  0.45155677725E+02  0.00000000000E+00 0.  1.
          2   -1    0    0  501    0  0.00000000000E+00 -0.00000000000E+00 -0.27007506436E+03  0.27007506436E+03  0.00000000000E+00 0. -1.
         25    2    1    2    0    0  0.15900427833E+02 -0.12168004434E+02 -0.11457568894E+03  0.17081055469E+03  0.12509105948E+03 0.  0.
          5    1    3    3  502    0  0.48114497268E+02 -0.33013110423E+02 -0.10012863117E+02  0.59351496484E+02  0.41800000000E+01 0. -1.
         -5    1    3    3    0  502 -0.32214069434E+02  0.20845105989E+02 -0.10456282582E+03  0.11145905821E+03  0.41800000000E+01 0. -1.
        -11    1    1    2    0    0 -0.39053056881E+02 -0.22569791197E+02 -0.30897328442E+02  0.54673408814E+02  0.00000000000E+00 0.  1.
         11    1    1    2    0    0  0.23152629048E+02  0.34737795631E+02 -0.79446369252E+02  0.89746778574E+02  0.00000000000E+00 0. -1.
</event>
<event>
 7    1  0.2719869E-009  0.4856541E+03  0.7561462E-02  0.1017593E+00
          2   -1    0    0  501    0  0.00000000000E+00  0.00000000000E+00  0.18587016292E+04  0.18587016292E+04  0.00000000000E+00 0.  1.
         -2   -1    0    0    0  501 -0.00000000000E+00 -0.00000000000E+00 -0.14110921244E+03  0.14110921244E+03  0.00000000000E+00 0. -1.
         25    2    1    2    0    0 -0.47758395031E+03 -0.63465730352E+02  0.60159603326E+03  0.78081959701E+03  0.12508847795E+03 0.  0.
          5    1    3    3  502    0 -0.31392844022E+03 -0.16906619973E+01  0.45355503972E+03  0.55161904461E+03  0.41800000000E+01 0.  1.
         -5    1    3    3    0  502 -0.16365551009E+03 -0.61775068354E+02  0.14804099354E+03  0.22920055240E+03  0.41800000000E+01 0.  1.
        -11    1    1    2    0    0  0.68038492562E+02  0.68841960640E+00  0.92655379865E+02  0.11495533833E+03  0.00000000000E+00 0.  1.
         11    1    1    2    0    0  0.40954545774E+03  0.62777310745E+02  0.10233410036E+04  0.11040359063E+04  0.00000000000E+00 0. -1.
</event>
<event>
 7    1  0.2719869E-009  0.1366979E+03  0.7561462E-02  0.1217843E+00
         -2   -1    0    0    0  501 -0.00000000000E+00  0.00000000000E+00  0.26046734902E+02  0.26046734902E+02  0.00000000000E+00 0.  1.
          2   -1    0    0  501    0  0.00000000000E+00 -0.00000000000E+00 -0.12262677923E+04  0.12262677923E+04  0.00000000000E+00 0. -1.
         25    2    1    2    0    0 -0.97690126795E+02 -0.47242199248E+02 -0.95491137999E+03  0.96916389421E+03  0.12509086270E+03 0.  0.
          5    1    3    3  502    0 -0.11388883994E+03 -0.46279766678E+02 -0.53661969549E+03  0.55053669692E+03  0.41800000000E+01 0.  1.
         -5    1    3    3    0  502  0.16198713150E+02 -0.96243257005E+00 -0.41829168451E+03  0.41862719729E+03  0.41800000000E+01 0.  1.
        -11    1    1    2    0    0  0.41950186260E+02  0.63019355052E+02 -0.91287188831E+02  0.11859430038E+03  0.00000000000E+00 0.  1.
         11    1    1    2    0    0  0.55739940535E+02 -0.15777155804E+02 -0.15402248857E+03  0.16455633261E+03  0.00000000000E+00 0. -1.
</event>
<event>
 7    1  0.2788024E-009  0.1198029E+03  0.7561462E-02  0.1243423E+00
         -2   -1    0    0    0  501 -0.00000000000E+00  0.00000000000E+00  0.38990838727E+02  0.38990838727E+02  0.00000000000E+00 0.  1.
          2   -1    0    0  501    0  0.00000000000E+00 -0.00000000000E+00 -0.56979571767E+03  0.56979571767E+03  0.00000000000E+00 0. -1.
         25    2    1    2    0    0 -0.13374137139E+02  0.74458820121E+02 -0.42781585108E+03  0.45210403810E+03  0.12509466571E+03 0.  0.
          5    1    3    3  502    0  0.43755934621E+02  0.52044405164E+01 -0.67273579049E+02  0.80528720676E+02  0.41800000000E+01 0. -1.
         -5    1    3    3    0  502 -0.57130071760E+02  0.69254379605E+02 -0.36054227203E+03  0.37157531742E+03  0.41800000000E+01 0. -1.
        -11    1    1    2    0    0  0.32276720956E+02 -0.40061314598E+01 -0.68847760207E+02  0.76143613589E+02  0.00000000000E+00 0. -1.
         11    1    1    2    0    0 -0.18902583817E+02 -0.70452688661E+02 -0.34141267651E+02  0.80538904707E+02  0.00000000000E+00 0.  1.
</event>
<event>
 7    1  0.2719869E-009  0.1140691E+03  0.7561462E-02  0.1253215E+00
          1   -1    0    0  501    0  0.00000000000E+00  0.00000000000E+00  0.19136830953E+03  0.19136830953E+03  0.00000000000E+00 0. -1.
         -1   -1    0    0    0  501 -0.00000000000E+00 -0.00000000000E+00 -0.98452583384E+02  0.98452583384E+02  0.00000000000E+00 0.  1.
         25    2    1    2    0    0  0.44717442161E+02  0.17507683649E+02 -0.20270452755E+02  0.13551590342E+03  0.12508996844E+03 0.  0.
          5    1    3    3  502    0  0.86198058829E+02  0.29519834272E+01  0.13240613548E+01  0.86359973892E+02  0.41800000000E+01 0. -1.
         -5    1    3    3    0  502 -0.41480616669E+02  0.14555700222E+02 -0.21594514110E+02  0.49155929528E+02  0.41800000000E+01 0. -1.
        -11    1    1    2    0    0 -0.70374898755E+02 -0.13585296716E+02  0.10492081152E+03  0.12706519331E+03  0.00000000000E+00 0. -1.
         11    1    1    2    0    0  0.25657456595E+02 -0.39223869327E+01  0.82653673858E+01  0.27239796185E+02  0.00000000000E+00 0.  1.
</event>
<event>
 7    1  0.2719869E-009  0.9840187E+02  0.7561462E-02  0.1283693E+00
          4   -1    0    0  501    0  0.00000000000E+00  0.00000000000E+00  0.20995857026E+03  0.20995857026E+03  0.00000000000E+00 0. -1.
         -4   -1    0    0    0  501 -0.00000000000E+00 -0.00000000000E+00 -0.71776035850E+02  0.71776035850E+02  0.00000000000E+00 0.  1.
         25    2    1    2    0    0  0.91035192539E+01 -0.54549490107E+02  0.93416902511E+02  0.16562613492E+03  0.12508708151E+03 0.  0.
          5    1    3    3  502    0 -0.17086124979E+02 -0.72159347673E+02  0.10762432908E+03  0.13076458134E+03  0.41800000000E+01 0. -1.
         -5    1    3    3    0  502  0.26189644233E+02  0.17609857566E+02 -0.14207426567E+02  0.34861553582E+02  0.41800000000E+01 0. -1.
        -11    1    1    2    0    0  0.31639558898E+02  0.21800069693E+02 -0.10707202171E+02  0.39886700844E+02  0.00000000000E+00 0.  1.
         11    1    1    2    0    0 -0.40743078152E+02  0.32749420414E+02  0.55472834068E+02  0.76221770343E+02  0.00000000000E+00 0. -1.
</event>
<event>
 7    1  0.3308604E-009  0.1098350E+03  0.7561462E-02  0.1260876E+00
         -4   -1    0    0    0  501 -0.00000000000E+00  0.00000000000E+00  0.10190399428E+03  0.10190399428E+03  0.00000000000E+00 0.  1.
          4   -1    0    0  501    0  0.00000000000E+00 -0.00000000000E+00 -0.18129326719E+03  0.18129326719E+03  0.00000000000E+00 0. -1.
         25    2    1    2    0    0  0.39683840778E+02  0.55200299596E+02 -0.89940104179E+02  0.16839964775E+03  0.12508932300E+03 0.  0.
          5    1    3    3  502    0 -0.32013669613E+02 -0.20185117162E+02 -0.20447865721E+02  0.43219227312E+02  0.41800000000E+01 0. -1.
         -5    1    3    3    0  502  0.71697510391E+02  0.75385416758E+02 -0.69492238458E+02  0.12518042044E+03  0.41800000000E+01 0. -1.
        -11    1    1    2    0    0 -0.13584609807E+02 -0.48725192415E+02  0.47305267474E+02  0.69256583299E+02  0.00000000000E+00 0.  1.
         11    1    1    2    0    0 -0.26099230971E+02 -0.64751071811E+01 -0.36754436202E+02  0.45541030410E+02  0.00000000000E+00 0. -1.
</event>
<event>
 7    1  0.2719869E-009  0.8581121E+02  0.7561462E-02  0.1313325E+00
         -1   -1    0    0    0  501 -0.00000000000E+00  0.00000000000E+00  0.10549702591E+03  0.10549702591E+03  0.00000000000E+00 0.  1.
          1   -1    0    0  501    0  0.00000000000E+00 -0.00000000000E+00 -0.11485133215E+03  0.11485133215E+03  0.00000000000E+00 0. -1.
         25    2    1    2    0    0  0.22467421487E+02  0.63830298227E+01 -0.15374055524E+02  0.12817811458E+03  0.12509092444E+03 0.  0.
          5    1    3    3  502    0 -0.17417565833E+00 -0.48416530703E+02 -0.40872557466E+02  0.63499835719E+02  0.41800000000E+01 0. -1.
         -5    1    3    3    0  502  0.22641597145E+02  0.54799560526E+02  0.25498501943E+02  0.64678278861E+02  0.41800000000E+01 0. -1.
        -11    1    1    2    0    0 -0.35555169518E+02 -0.23065846935E+02 -0.28913827675E+02  0.51305095313E+02  0.00000000000E+00 0. -1.
         11    1    1    2    0    0  0.13087748031E+02  0.16682817113E+02  0.34933576961E+02  0.40865148166E+02  0.00000000000E+00 0.  1.
</event>
<event>
 6    1  0.2719869E-009  0.1421225E+03  0.7561462E-02  0.1210501E+00
         -1   -1    0    0    0  501 -0.00000000000E+00  0.00000000000E+00  0.25880890204E+02  0.25880890204E+02  0.00000000000E+00 0.  1.
          1   -1    0    0  501    0  0.00000000000E+00 -0.00000000000E+00 -0.18959143532E+04  0.18959143532E+04  0.00000000000E+00 0. -1.
          5    1    1    2  502    0  0.50523854810E+02  0.16397381401E+02 -0.16975975788E+03  0.17792521411E+03  0.41800000000E+01 0. -1.
         -5    1    1    2    0  502  0.70577231660E+02  0.29818346449E+02 -0.14047577951E+04  0.14068518809E+04  0.41800000000E+01 0. -1.
        -11    1    1    2    0    0 -0.10490097210E+03 -0.69522181104E+02 -0.19112171048E+03  0.22883412296E+03  0.00000000000E+00 0.  1.
         11    1    1    2    0    0 -0.16200114375E+02  0.23306453254E+02 -0.10439419951E+03  0.10818402544E+03  0.00000000000E+00 0. -1.
</event>
<event>
 7    1  0.2719869E-009  0.1136836E+03  0.7561462E-02  0.1253897E+00
          2   -1    0    0  501    0  0.00000000000E+00  0.00000000000E+00  0.58057032107E+03  0.58057032107E+03  0.00000000000E+00 0. -1.
         -2   -1    0    0    0  501 -0.00000000000E+00 -0.00000000000E+00 -0.46462074683E+02  0.46462074683E+02  0.00000000000E+00 0.  1.
         25    2    1    2    0    0 -0.47386982843E+02 -0.45778890600E+02  0.86237232094E+02  0.16559893333E+03  0.12507962885E+03 0.  0.
          5    1    3    3  502    0 -0.81936796088E+02 -0.31956368499E+02  0.21218544584E+02  0.90567914159E+02  0.41800000000E+01 0.  1.
         -5    1    3    3    0  502  0.34549813245E+02 -0.13822522101E+02  0.65018687510E+02  0.75031019172E+02  0.41800000000E+01 0.  1.
        -11    1    1    2    0    0  0.58656487703E+02  0.59880065310E+02  0.41960308161E+03  0.42789362214E+03  0.00000000000E+00 0. -1.
         11    1    1    2    0    0 -0.11269504860E+02 -0.14101174710E+02  0.28267932687E+02  0.33539840285E+02  0.00000000000E+00 0.  1.
</event>
<event>
 7    1  0.2719869E-009  0.1201943E+03  0.7561462E-02  0.1242777E+00
         -4   -1    0    0    0  501 -0.00000000000E+00  0.00000000000E+00  0.55140872106E+03  0.55140872106E+03  0.00000000000E+00 0. -1.
          4   -1    0    0  501    0  0.00000000000E+00 -0.00000000000E+00 -0.35884603073E+02  0.35884603073E+02  0.00000000000E+00 0.  1.
         25    2    1    2    0    0 -0.62479853723E+02  0.60457331633E+02  0.23999858689E+03  0.28426322592E+03  0.12508972313E+03 0.  0.
          5    1    3    3  502    0  0.35940095295E+02  0.17104793867E+02  0.37029155206E+02  0.54524262107E+02  0.41800000000E+01 0. -1.
         -5    1    3    3    0  502 -0.98419949019E+02  0.43352537766E+02  0.20296943169E+03  0.22973896382E+03  0.41800000000E+01 0. -1.
        -11    1    1    2    0    0  0.64834085595E+02 -0.49600045468E+02  0.27954179539E+03  0.29121682392E+03  0.00000000000E+00 0. -1.
         11    1    1    2    0    0 -0.23542318717E+01 -0.10857286166E+02 -0.40162642940E+01  0.11813274291E+02  0.00000000000E+00 0.  1.
</event>
<event>
 7    1  0.2719869E-009  0.1587342E+03  0.7561462E-02  0.1190133E+00
          2   -1    0    0  501    0  0.00000000000E+00  0.00000000000E+00  0.28702818707E+03  0.28702818707E+03  0.00000000000E+00 0. -1.
         -2   -1    0    0    0  501 -0.00000000000E+00 -0.00000000000E+00 -0.10806266057E+03  0.10806266057E+03  0.00000000000E+00 0.  1.
         25    2    1    2    0    0 -0.10499854398E+03 -0.88258426137E+02  0.76188787477E+02  0.20066222743E+03  0.12508538747E+03 0.  0.
          5    1    3    3  502    0 -0.60981337433E+02 -0.10824646202E+03  0.19153829370E+02  0.12577901905E+03  0.41800000000E+01 0.  1.
         -5    1    3    3    0  502 -0.44017206546E+02  0.19988035883E+02  0.57034958107E+02  0.74883208377E+02  0.41800000000E+01 0.  1.
        -11    1    1    2    0    0  0.10209307532E+03  0.64638462639E+02  0.11574539511E+03  0.16732639771E+03  0.00000000000E+00 0. -1.
         11    1    1    2    0    0  0.29054686582E+01  0.23619963498E+02 -0.12968656091E+02  0.27102222503E+02  0.00000000000E+00 0.  1.
</event>
<event>
 7    1  0.2719869E-009  0.9187871E+02  0.7561462E-02  0.1298365E+00
         -1   -1    0    0    0  501 -0.00000000000E+00  0.00000000000E+00  0.38530752299E+02  0.38530752299E+02  0.00000000000E+00 0.  1.
          1   -1    0    0  501    0  0.00000000000E+00 -0.00000000000E+00 -0.38792734299E+03  0.38792734299E+03  0.00000000000E+00 0. -1.
         25    2    1    2    0    0 -0.48523520091E+02 -0.23297932867E+02 -0.17869771308E+03  0.22467177379E+03  0.12508879887E+03 0.  0.
          5    1    3    3  502    0 -0.81179637547E+02 -0.59897307140E+01 -0.16675070467E+03  0.18560517324E+03  0.41800000000E+01 0. -1.
         -5    1    3    3    0  502  0.32656117456E+02 -0.17308202153E+02 -0.11947008412E+02  0.39066600556E+02  0.41800000000E+01 0. -1.
        -11    1    1    2    0    0  0.24040973156E+02 -0.79833941875E+01  0.11972625665E+01  0.25360134280E+02  0.00000000000E+00 0.  1.
         11    1    1    2    0    0  0.24482546935E+02  0.31281327054E+02 -0.17189614018E+03  0.17642618722E+03  0.00000000000E+00 0. -1.
</event>
<event>
 7    1  0.2719869E-009  0.1043350E+03  0.7561462E-02  0.1271435E+00
         -1   -1    0    0    0  501 -0.00000000000E+00  0.00000000000E+00  0.30663091448E+03  0.30663091448E+03  0.00000000000E+00 0.  1.
          1   -1    0    0  501    0  0.00000000000E+00 -0.00000000000E+00 -0.80713805962E+02  0.80713805962E+02  0.00000000000E+00 0. -1.
         25    2    1    2    0    0 -0.75136788554E+02 -0.30693678766E+02  0.23106689480E+02  0.15090041037E+03  0.12509746536E+03 0.  0.
          5    1    3    3  502    0 -0.31788943370E+02  0.65192391874E+01 -0.48932021701E+02  0.58862998122E+02  0.41800000000E+01 0.  1.
         -5    1    3    3    0  502 -0.43347845184E+02 -0.37212917953E+02  0.72038711181E+02  0.92037412248E+02  0.41800000000E+01 0.  1.
        -11    1    1    2    0    0  0.53753056992E+02 -0.24799451559E+02  0.75604310601E+02  0.96022995762E+02  0.00000000000E+00 0.  1.
         11    1    1    2    0    0  0.21383731562E+02  0.55493130325E+02  0.12720610844E+03  0.14042131431E+03  0.00000000000E+00 0. -1.
</event>
<event>
 7    1  0.2719869E-009  0.8870805E+02  0.7561462E-02  0.1306011E+00
         -1   -1    0    0    0  501 -0.00000000000E+00  0.00000000000E+00  0.17581894253E+03  0.17581894253E+03  0.00000000000E+00 0.  1.
          1   -1    0    0  501    0  0.00000000000E+00 -0.00000000000E+00 -0.92184822730E+02  0.92184822730E+02  0.00000000000E+00 0. -1.
         25    2    1    2    0    0  0.61497118672E+02  0.19747820687E+01  0.30578038635E+02  0.14272397108E+03  0.12509724260E+03 0.  0.
          5    1    3    3  502    0  0.32207826689E+02  0.11050010698E+02  0.78505319633E+02  0.85673825916E+02  0.41800000000E+01 0.  1.
         -5    1    3    3    0  502  0.29289291983E+02 -0.90752286290E+01 -0.47927280998E+02  0.57050145166E+02  0.41800000000E+01 0.  1.
        -11    1    1    2    0    0 -0.10370824672E+02  0.42900407472E+02  0.11671118320E+02  0.45653192314E+02  0.00000000000E+00 0. -1.
         11    1    1    2    0    0 -0.51126294000E+02 -0.44875189540E+02  0.41384962841E+02  0.79626601860E+02  0.00000000000E+00 0.  1.
</event>
<event>
 7    1  0.2719869E-009  0.1127443E+03  0.7561462E-02  0.1255571E+00
          2   -1    0    0  501    0  0.00000000000E+00  0.00000000000E+00  0.13565646135E+03  0.13565646135E+03  0.00000000000E+00 0. -1.
         -2   -1    0    0    0  501 -0.00000000000E+00 -0.00000000000E+00 -0.11786003976E+03  0.11786003976E+03  0.00000000000E+00 0.  1.
         25    2    1    2    0    0  0.41932494581E+02  0.41441335251E+02  0.36955180226E+02  0.14314014975E+03  0.12509076207E+03 0.  0.
          5    1    3    3  502    0  0.24572693624E+02 -0.41646530490E+02 -0.41951379433E+01  0.48716756421E+02  0.41800000000E+01 0.  1.
         -5    1    3    3    0  502  0.17359800957E+02  0.83087865741E+02  0.41150318169E+02  0.94423393331E+02  0.41800000000E+01 0.  1.
        -11    1    1    2    0    0 -0.77582245407E+01 -0.54747553042E+02  0.18017121310E+02  0.58155836100E+02  0.00000000000E+00 0. -1.
         11    1    1    2    0    0 -0.34174270040E+02  0.13306217791E+02 -0.37175879941E+02  0.52220515260E+02  0.00000000000E+00 0.  1.
</event>
<event>
 7    1  0.2719869E-009  0.1459216E+03  0.7561462E-02  0.1205576E+00
          2   -1    0    0  501    0  0.00000000000E+00  0.00000000000E+00  0.12619690237E+04  0.12619690237E+04  0.00000000000E+00 0. -1.
         -2   -1    0    0    0  501 -0.00000000000E+00 -0.00000000000E+00 -0.42024609563E+02  0.42024609563E+02  0.00000000000E+00 0.  1.
         25    2    1    2    0    0  0.32967238792E+02  0.11863074224E+03  0.10858762151E+04  0.10999716086E+04  0.12510113258E+03 0.  0.
          5    1    3    3  502    0  0.51844488002E+00  0.12371006833E+03  0.10047998991E+04  0.10123955548E+04  0.41800000000E+01 0.  1.
         -5    1    3    3    0  502  0.32448793912E+02 -0.50793260876E+01  0.81076316003E+02  0.87576053785E+02  0.41800000000E+01 0.  1.
        -11    1    1    2    0    0 -0.25799150806E+02 -0.12657020095E+02 -0.48576455128E+01  0.29144348679E+02  0.00000000000E+00 0.  1.
         11    1    1    2    0    0 -0.71680879860E+01 -0.10597372215E+03  0.13892584453E+03  0.17487767596E+03  0.00000000000E+00 0. -1.
</event>
<event>
 7    1  0.2719869E-009  0.2132799E+03  0.7561462E-02  0.1138995E+00
          2   -1    0    0  501    0  0.00000000000E+00  0.00000000000E+00  0.22552381642E+03  0.22552381642E+03  0.00000000000E+00 0.  1.
         -2   -1    0    0    0  501 -0.00000000000E+00 -0.00000000000E+00 -0.22362181945E+03  0.22362181945E+03  0.00000000000E+00 0. -1.
         25    2    1    2    0    0 -0.11141283442E+03 -0.16058691173E+03 -0.10540358471E+02  0.23228782226E+03  0.12508220226E+03 0.  0.
          5    1    3    3  502    0 -0.13357530952E+03 -0.15876183604E+03 -0.47221602775E+00  0.20752199710E+03  0.41800000000E+01 0.  1.
         -5    1    3    3    0  502  0.22162475094E+02 -0.18250756915E+01 -0.10068142443E+02  0.24765825159E+02  0.41800000000E+01 0.  1.
        -11    1    1    2    0    0  0.37818796740E+02  0.39285585217E+02  0.45680446159E+02  0.71135938555E+02  0.00000000000E+00 0.  1.
         11    1    1    2    0    0  0.73594037682E+02  0.12130132651E+03 -0.33238090722E+02  0.14572187506E+03  0.00000000000E+00 0. -1.
</event>
<event>
 7    1  0.2719869E-009  0.1327467E+03  0.7561462E-02  0.1223436E+00
          1   -1    0    0  501    0  0.00000000000E+00  0.00000000000E+00  0.15754615379E+04  0.15754615379E+04  0.00000000000E+00 0. -1.
         -1   -1    0    0    0  501 -0.00000000000E+00 -0.00000000000E+00 -0.16297479674E+02  0.16297479674E+02  0.00000000000E+00 0.  1.
         25    2    1    2    0    0  0.35474074453E+00  0.11280500658E+03  0.99677739323E+03  0.10109094766E+04  0.12509077869E+03 0.  0.
          5    1    3    3  502    0 -0.19407160512E+02  0.71885632364E+02  0.90830742153E+03  0.91136382769E+03  0.41800000000E+01 0. -1.
         -5    1    3    3    0  502  0.19761901256E+02  0.40919374219E+02  0.88469971703E+02  0.99545648930E+02  0.41800000000E+01 0. -1.
        -11    1    1    2    0    0 -0.26277712204E+02 -0.11620451101E+03  0.46063639677E+03  0.47579396441E+03  0.00000000000E+00 0.  1.
         11    1    1    2    0    0  0.25922971459E+02  0.33995044258E+01  0.10175026823E+03  0.10505557655E+03  0.00000000000E+00 0. -1.
</event>
<event>
 7    1  0.2719869E-009  0.9738746E+02  0.7561462E-02  0.1285888E+00
         -2   -1    0    0    0  501 -0.00000000000E+00  0.00000000000E+00  0.29360817032E+02  0.29360817032E+02  0.00000000000E+00 0.  1.
          2   -1    0    0  501    0  0.00000000000E+00 -0.00000000000E+00 -0.48452099603E+03  0.48452099603E+03  0.00000000000E+00 0. -1.
         25    2    1    2    0    0 -0.37294922809E+02  0.17891188421E+02 -0.20835701018E+03  0.24651601344E+03  0.12508595167E+03 0.  0.
          5    1    3    3  502    0 -0.61913726977E+02  0.30662695660E+02 -0.20718786561E+03  0.21844403071E+03  0.41800000000E+01 0.  1.
         -5    1    3    3    0  502  0.24618804168E+02 -0.12771507239E+02 -0.11691445619E+01  0.28071982737E+02  0.41800000000E+01 0.  1.
        -11    1    1    2    0    0 -0.66048264365E+01  0.31061890986E+02 -0.12473911355E+03  0.12871795233E+03  0.00000000000E+00 0.  1.
         11    1    1    2    0    0  0.43899749246E+02 -0.48953079407E+02 -0.12206405527E+03  0.13864784729E+03  0.00000000000E+00 0. -1.
</event>
<event>
 7    1  0.2719869E-009  0.1004717E+03  0.7561462E-02  0.1279307E+00
         -3   -1    0    0    0  501 -0.00000000000E+00  0.00000000000E+00  0.17669265018E+03  0.17669265018E+03  0.00000000000E+00 0.  1.
          3   -1    0    0  501    0  0.00000000000E+00 -0.00000000000E+00 -0.92107099817E+02  0.92107099817E+02  0.00000000000E+00 0. -1.
         25    2    1    2    0    0 -0.15483374423E+02  0.63993820528E+02  0.39694393461E+02  0.14682491330E+03  0.12508783452E+03 0.  0.
          5    1    3    3  502    0 -0.39269104294E+02  0.17012885244E+02 -0.34927762789E+02  0.55397850407E+02  0.41800000000E+01 0.  1.
         -5    1    3    3    0  502  0.23785729871E+02  0.46980935284E+02  0.74622156250E+02  0.91427062892E+02  0.41800000000E+01 0.  1.
        -11    1    1    2    0    0 -0.13314176922E+02 -0.73574617184E+02  0.51659101932E+02  0.90879890037E+02  0.00000000000E+00 0.  1.
         11    1    1    2    0    0  0.28797551345E+02  0.95807966553E+01 -0.67679450278E+01  0.31094946662E+02  0.00000000000E+00 0. -1.
</event>
<event>
 7    1  0.2719869E-009  0.1256570E+03  0.7561462E-02  0.1234046E+00
         -2   -1    0    0    0  501 -0.00000000000E+00  0.00000000000E+00  0.44641611891E+02  0.44641611891E+02  0.00000000000E+00 0. -1.
          2   -1    0    0  501    0  0.00000000000E+00 -0.00000000000E+00 -0.68683378252E+03  0.68683378252E+03  0.00000000000E+00 0.  1.
         25    2    1    2    0    0  0.64952236523E+02  0.68840863540E+02 -0.54637639380E+03  0.56844729336E+03  0.12508918461E+03 0.  0.
          5    1    3    3  502    0 -0.17011477440E+00  0.88126638596E+02 -0.33258086914E+03  0.34408405992E+03  0.41800000000E+01 0.  1.
         -5    1    3    3    0  502  0.65122351298E+02 -0.19285775056E+02 -0.21379552466E+03  0.22436323344E+03  0.41800000000E+01 0.  1.
        -11    1    1    2    0    0 -0.31148488136E+02 -0.39314692201E+02 -0.10576459480E+03  0.11705563997E+03  0.00000000000E+00 0.  1.
         11    1    1    2    0    0 -0.33803748387E+02 -0.29526171339E+02  0.99488179671E+01  0.45972461081E+02  0.00000000000E+00 0. -1.
</event>
<event>
 7    1  0.2719869E-009  0.1341250E+03  0.7561462E-02  0.1221460E+00
         -2   -1    0    0    0  501 -0.00000000000E+00  0.00000000000E+00  0.22621761161E+02  0.22621761161E+02  0.00000000000E+00 0.  1.
          2   -1    0    0  501    0  0.00000000000E+00 -0.00000000000E+00 -0.98945233050E+03  0.98945233050E+03  0.00000000000E+00 0. -1.
         25    2    1    2    0    0  0.95853200437E+02  0.23973967822E+02 -0.63150416704E+03  0.65131192524E+03  0.12508846393E+03 0.  0.
          5    1    3    3  502    0  0.46119365143E+02  0.69531550845E+02 -0.44885185538E+03  0.45656006492E+03  0.41800000000E+01 0.  1.
         -5    1    3    3    0  502  0.49733835294E+02 -0.45557583023E+02 -0.18265231166E+03  0.19475186032E+03  0.41800000000E+01 0.  1.
        -11    1    1    2    0    0 -0.73972033483E+02  0.12087261269E+02 -0.28695677624E+03  0.29658414498E+03  0.00000000000E+00 0. -1.
         11    1    1    2    0    0 -0.21881166954E+02 -0.36061229092E+02 -0.48369626069E+02  0.64178021447E+02  0.00000000000E+00 0.  1.
</event>
<event>
 7    1  0.2719869E-009  0.1635359E+03  0.7561462E-02  0.1184762E+00
          2   -1    0    0  501    0  0.00000000000E+00  0.00000000000E+00  0.95530018660E+03  0.95530018660E+03  0.00000000000E+00 0.  1.
         -2   -1    0    0    0  501 -0.00000000000E+00 -0.00000000000E+00 -0.36772682202E+02  0.36772682202E+02  0.00000000000E+00 0. -1.
         25    2    1    2    0    0 -0.26259023928E+02 -0.13693048190E+03  0.52577955894E+03  0.55815051551E+03  0.12509340570E+03 0.  0.
          5    1    3    3  502    0  0.41463958258E+02 -0.95532194337E+02  0.35097289736E+03  0.36612171073E+03  0.41800000000E+01 0.  1.
         -5    1    3    3    0  502 -0.67722982186E+02 -0.41398287568E+02  0.17480666158E+03  0.19202880478E+03  0.41800000000E+01 0.  1.
        -11    1    1    2    0    0  0.13613382189E+02  0.13118989868E+02 -0.29312625717E+01  0.19131763380E+02  0.00000000000E+00 0. -1.
         11    1    1    2    0    0  0.12645641739E+02  0.12381149204E+03  0.39567920803E+03  0.41479058991E+03  0.00000000000E+00 0.  1.
</event>
<event>
 7    1  0.2719869E-009  0.1452342E+03  0.7561462E-02  0.1206455E+00
          1   -1    0    0  501    0  0.00000000000E+00  0.00000000000E+00  0.21884156724E+03  0.21884156724E+03  0.00000000000E+00 0. -1.
         -1   -1    0    0    0  501 -0.00000000000E+00 -0.00000000000E+00 -0.13779678802E+03  0.13779678802E+03  0.00000000000E+00 0.  1.
         25    2    1    2    0    0 -0.25661123999E+02  0.12771747299E+03  0.70497876142E+02  0.19387355349E+03  0.12508700176E+03 0.  0.
          5    1    3    3  502    0  0.23962837307E+01  0.12615774160E+03  0.95270519915E+01  0.12660866898E+03  0.41800000000E+01 0.  1.
         -5    1    3    3    0  502 -0.28057407729E+02  0.15597313909E+01  0.60970824151E+02  0.67264884510E+02  0.41800000000E+01 0.  1.
        -11    1    1    2    0    0  0.24124944208E+02 -0.31980724611E+02 -0.38171605697E+02  0.55333996432E+02  0.00000000000E+00 0.  1.
         11    1    1    2    0    0  0.15361797906E+01 -0.95736748378E+02  0.48718508769E+02  0.10743080534E+03  0.00000000000E+00 0. -1.
</event>
<event>
 7    1  0.2719869E-009  0.9129714E+02  0.7561462E-02  0.1299741E+00
          2   -1    0    0  501    0  0.00000000000E+00  0.00000000000E+00  0.72369538391E+03  0.72369538391E+03  0.00000000000E+00 0. -1.
         -2   -1    0    0    0  501 -0.00000000000E+00 -0.00000000000E+00 -0.25382090163E+02  0.25382090163E+02  0.00000000000E+00 0.  1.
         25    2    1    2    0    0  0.51326318778E+02  0.58593942675E+02  0.42770613739E+03  0.45238004837E+03  0.12509007588E+03 0.  0.
          5    1    3    3  502    0  0.48769778337E+02  0.32978286979E+01  0.47993636014E+02  0.68631104107E+02  0.41800000000E+01 0. -1.
         -5    1    3    3    0  502  0.25565404413E+01  0.55296113977E+02  0.37971250138E+03  0.38374894426E+03  0.41800000000E+01 0. -1.
        -11    1    1    2    0    0 -0.16624134026E+02 -0.15901179352E+02  0.26572099088E+01  0.23157506373E+02  0.00000000000E+00 0.  1.
         11    1    1    2    0    0 -0.34702184752E+02 -0.42692763324E+02  0.26794994645E+03  0.27353991934E+03  0.00000000000E+00 0. -1.
</event>
<event>
 7    1  0.2719869E-009  0.1671318E+03  0.7561462E-02  0.1180872E+00
          2   -1    0    0  501    0  0.00000000000E+00  0.00000000000E+00  0.50020100593E+03  0.50020100593E+03  0.00000000000E+00 0. -1.
         -2   -1    0    0    0  501 -0.00000000000E+00 -0.00000000000E+00 -0.66155813071E+02  0.66155813071E+02  0.00000000000E+00 0.  1.
         25    2    1    2    0    0  0.99407600558E+02  0.10211156379E+03  0.17369228332E+03  0.25714708205E+03  0.12508784918E+03 0.  0.
          5    1    3    3  502    0 -0.15077711186E+02  0.60227216653E+02  0.31308039686E+02  0.69658601403E+02  0.41800000000E+01 0.  1.
         -5    1    3    3    0  502  0.11448531174E+03  0.41884347141E+02  0.14238424364E+03  0.18748848065E+03  0.41800000000E+01 0.  1.
        -11    1    1    2    0    0 -0.37832708120E+02 -0.97756870461E+01  0.18762447261E+02  0.43346364186E+02  0.00000000000E+00 0.  1.
         11    1    1    2    0    0 -0.61574892438E+02 -0.92335876749E+02  0.24159046227E+03  0.26586337276E+03  0.00000000000E+00 0. -1.
</event>
<event>
 7    1  0.2719869E-009  0.1125955E+03  0.7561462E-02  0.1255838E+00
         -2   -1    0    0    0  501 -0.00000000000E+00  0.00000000000E+00  0.47585563153E+02  0.47585563153E+02  0.00000000000E+00 0.  1.
          2   -1    0    0  501    0  0.00000000000E+00 -0.00000000000E+00 -0.34999059661E+03  0.34999059661E+03  0.00000000000E+00 0. -1.
         25    2    1    2    0    0  0.14938023390E+02 -0.49324563418E+02 -0.89816697321E+02  0.16238698868E+03  0.12508572211E+03 0.  0.
          5    1    3    3  502    0 -0.52668864128E+02 -0.24503824131E+02 -0.62014211892E+02  0.85074564484E+02  0.41800000000E+01 0. -1.
         -5    1    3    3    0  502  0.67606887519E+02 -0.24820739287E+02 -0.27802485429E+02  0.77312424194E+02  0.41800000000E+01 0. -1.
        -11    1    1    2    0    0  0.80898821523E+00 -0.21875159339E+02 -0.89358271199E+02  0.92000422225E+02  0.00000000000E+00 0. -1.
         11    1    1    2    0    0 -0.15747011605E+02  0.71199722757E+02 -0.12323006494E+03  0.14318874886E+03  0.00000000000E+00 0.  1.
</event>
<event>
 7    1  0.2719869E-009  0.1010078E+03  0.7561462E-02  0.1278191E+00
          1   -1    0    0  501    0  0.00000000000E+00  0.00000000000E+00  0.22056902946E+02  0.22056902946E+02  0.00000000000E+00 0. -1.
         -1   -1    0    0    0  501 -0.00000000000E+00 -0.00000000000E+00 -0.56373240220E+03  0.56373240220E+03  0.00000000000E+00 0.  1.
         25    2    1    2    0    0  0.14099767124E+02 -0.18394296321E+02 -0.31001204604E+03  0.33510085557E+03  0.12509181086E+03 0.  0.
          5    1    3    3  502    0  0.55847701664E+02  0.26249090953E+02 -0.19791722084E+03  0.20735640637E+03  0.41800000000E+01 0. -1.
         -5    1    3    3    0  502 -0.41747934541E+02 -0.44643387274E+02 -0.11209482520E+03  0.12774444921E+03  0.41800000000E+01 0. -1.
        -11    1    1    2    0    0  0.24195176168E+02  0.30320810687E+02 -0.18559771829E+03  0.18960820432E+03  0.00000000000E+00 0.  1.
         11    1    1    2    0    0 -0.38294943292E+02 -0.11926514366E+02 -0.46065734928E+02  0.61080245261E+02  0.00000000000E+00 0. -1.
</event>
<event>
 7    1  0.2719869E-009  0.4697182E+03  0.7561462E-02  0.1022000E+00
          1   -1    0    0  501    0  0.00000000000E+00  0.00000000000E+00  0.28131583942E+03  0.28131583942E+03  0.00000000000E+00 0. -1.
         -1   -1    0    0    0  501 -0.00000000000E+00 -0.00000000000E+00 -0.89568284565E+03  0.89568284565E+03  0.00000000000E+00 0.  1.
         25    2    1    2    0    0  0.39837769294E+03  0.22614942146E+03 -0.51344374421E+03  0.69937096246E+03  0.12508763970E+03 0.  0.
          5    1    3    3  502    0  0.13841288341E+02 -0.14097151161E+02 -0.33423587741E+02  0.39050218325E+02  0.41800000000E+01 0. -1.
         -5    1    3    3    0  502  0.38453640460E+03  0.24024657263E+03 -0.48002015647E+03  0.66032074413E+03  0.41800000000E+01 0. -1.
        -11    1    1    2    0    0 -0.36259664946E+03 -0.23065713854E+03 -0.10146894205E+03  0.44155972638E+03  0.00000000000E+00 0.  1.
         11    1    1    2    0    0 -0.35781043482E+02  0.45077170769E+01  0.54568002071E+00  0.36067996237E+02  0.00000000000E+00 0. -1.
</event>
<event>
 7    1  0.2719869E-009  0.1116781E+03  0.7561462E-02  0.1257493E+00
         -2   -1    0    0    0  501 -0.00000000000E+00  0.00000000000E+00  0.21673775870E+03  0.21673775870E+03  0.00000000000E+00 0.  1.
          2   -1    0    0  501    0  0.00000000000E+00 -0.00000000000E+00 -0.75464112809E+02  0.75464112809E+02  0.00000000000E+00 0. -1.
         25    2    1    2    0    0  0.24123129317E+02 -0.54566473662E+02  0.43848233808E+02  0.14536039897E+03  0.12509017773E+03 0.  0.
          5    1    3    3  502    0  0.26449382326E+02 -0.82554035361E+02 -0.70541820131E+01  0.87074522472E+02  0.41800000000E+01 0.  1.
         -5    1    3    3    0  502 -0.23262530093E+01  0.27987561699E+02  0.50902415821E+02  0.58285876500E+02  0.41800000000E+01 0.  1.
        -11    1    1    2    0    0 -0.58647920168E+02  0.37983524600E+02  0.50200509728E+02  0.86037305036E+02  0.00000000000E+00 0. -1.
         11    1    1    2    0    0  0.34524790850E+02  0.16582949062E+02  0.47224902354E+02  0.60804167498E+02  0.00000000000E+00 0.  1.
</event>
<event>
 7    1  0.3884479E-009  0.1816736E+03  0.7561462E-02  0.1166193E+00
          2   -1    0    0  501    0  0.00000000000E+00  0.00000000000E+00  0.27061775967E+03  0.27061775967E+03  0.00000000000E+00 0. -1.
         -2   -1    0    0    0  501 -0.00000000000E+00 -0.00000000000E+00 -0.15015243327E+03  0.15015243327E+03  0.00000000000E+00 0.  1.
         25    2    1    2    0    0  0.10535398393E+03 -0.11245805689E+03  0.13618796307E+03  0.24071109021E+03  0.12509352971E+03 0.  0.
          5    1    3    3  502    0  0.12597894177E+03 -0.87554378917E+02  0.14018815315E+03  0.20786210266E+03  0.41800000000E+01 0.  1.
         -5    1    3    3    0  502 -0.20624957841E+02 -0.24903677973E+02 -0.40001900824E+01  0.32848987552E+02  0.41800000000E+01 0.  1.
        -11    1    1    2    0    0 -0.31773040106E+02  0.97015230055E+02  0.45594329123E+01  0.10218742275E+03  0.00000000000E+00 0. -1.
         11    1    1    2    0    0 -0.73580943827E+02  0.15442826835E+02 -0.20282069585E+02  0.77871679973E+02  0.00000000000E+00 0.  1.
</event>
<event>
 7    1  0.2719869E-009  0.1192626E+03  0.7561462E-02  0.1244318E+00
          1   -1    0    0  501    0  0.00000000000E+00  0.00000000000E+00  0.14956720598E+04  0.14956720598E+04  0.00000000000E+00 0. -1.
         -1   -1    0    0    0  501 -0.00000000000E+00 -0.00000000000E+00 -0.15049365314E+02  0.15049365314E+02  0.00000000000E+00 0.  1.
         25    2    1    2    0    0 -0.70081018426E+02 -0.16655267973E+01  0.11993539442E+04  0.12078954109E+04  0.12508923689E+03 0.  0.
          5    1    3    3  502    0 -0.56682394521E+00 -0.48661919565E+02  0.24313197086E+03  0.24798978075E+03  0.41800000000E+01 0. -1.
         -5    1    3    3    0  502 -0.69514194481E+02  0.46996392767E+02  0.95622197331E+03  0.95990563016E+03  0.41800000000E+01 0. -1.
        -11    1    1    2    0    0  0.67612448896E+02  0.32301074343E+02  0.23963145739E+03  0.25107377008E+03  0.00000000000E+00 0. -1.
         11    1    1    2    0    0  0.24685695294E+01 -0.30635547546E+02  0.41637292887E+02  0.51752244086E+02  0.00000000000E+00 0.  1.
</event>
<event>
 7    1  0.2719869E-009  0.1425266E+03  0.7561462E-02  0.1209969E+00
         -2   -1    0    0    0  501 -0.00000000000E+00  0.00000000000E+00  0.73101464903E+02  0.73101464903E+02  0.00000000000E+00 0.  1.
          2   -1    0    0  501    0  0.00000000000E+00 -0.00000000000E+00 -0.31933003732E+03  0.31933003732E+03  0.00000000000E+00 0. -1.
         25    2    1    2    0    0  0.75950213813E+02 -0.70154168933E+02 -0.95973787068E+02  0.18854217736E+03  0.12508853841E+03 0.  0.
          5    1    3    3  502    0  0.21378115296E+02  0.32695972552E+02 -0.49287112700E+02  0.63029693899E+02  0.41800000000E+01 0. -1.
         -5    1    3    3    0  502  0.54572098517E+02 -0.10285014149E+03 -0.46686674367E+02  0.12551248346E+03  0.41800000000E+01 0. -1.
        -11    1    1    2    0    0 -0.54337820404E+02 -0.15587696889E+01 -0.29652035740E+02  0.61921496370E+02  0.00000000000E+00 0.  1.
         11    1    1    2    0    0 -0.21612393409E+02  0.71712938622E+02 -0.12060274961E+03  0.14196782850E+03  0.00000000000E+00 0. -1.
</event>
<event>
 6    1  0.2719869E-009  0.1364191E+03  0.7561462E-02  0.1218230E+00
          4   -1    0    0  501    0  0.00000000000E+00  0.00000000000E+00  0.24496945997E+02  0.24496945997E+02  0.00000000000E+00 0. -1.
         -4   -1    0    0    0  501 -0.00000000000E+00 -0.00000000000E+00 -0.11328787461E+04  0.11328787461E+04  0.00000000000E+00 0.  1.
          5    1    1    2  502    0  0.34742103935E+02  0.25913986697E+02 -0.83459719219E+02  0.94135782912E+02  0.41800000000E+01 0. -1.
         -5    1    1    2    0  502  0.64971273585E+02 -0.67133445103E+02 -0.72909970006E+03  0.73507279290E+03  0.41800000000E+01 0. -1.
        -11    1    1    2    0    0 -0.11397679089E+03  0.30655583855E+02 -0.28189311802E+03  0.30560465257E+03  0.00000000000E+00 0.  1.
         11    1    1    2    0    0  0.14263413371E+02  0.10563874551E+02 -0.13929262803E+02  0.22562463712E+02  0.00000000000E+00 0. -1.
</event>
<event>
 7    1  0.2719869E-009  0.8788064E+02  0.7561462E-02  0.1308067E+00
          1   -1    0    0  501    0  0.00000000000E+00  0.00000000000E+00  0.84426657208E+02  0.84426657208E+02  0.00000000000E+00 0. -1.
         -1   -1    0    0    0  501 -0.00000000000E+00 -0.00000000000E+00 -0.16792126609E+03  0.16792126609E+03  0.00000000000E+00 0.  1.
         25    2    1    2    0    0 -0.34930495159E+02  0.61606487184E+01 -0.67095173356E+02  0.14631338412E+03  0.12509097089E+03 0.  0.
          5    1    3    3  502    0 -0.42738059248E+02 -0.38720474366E+02  0.80095114843E+01  0.58373294559E+02  0.41800000000E+01 0.  1.
         -5    1    3    3    0  502  0.78075640889E+01  0.44881123084E+02 -0.75104684840E+02  0.87940089557E+02  0.41800000000E+01 0.  1.
        -11    1    1    2    0    0 -0.15149005019E+02 -0.15024051934E+02  0.30253395202E+02  0.37020027159E+02  0.00000000000E+00 0. -1.
         11    1    1    2    0    0  0.50079500178E+02  0.88634032159E+01 -0.46652830724E+02  0.69014512019E+02  0.00000000000E+00 0.  1.
</event>
<event>
 7    1  0.2719869E-009  0.1357028E+03  0.7561462E-02  0.1219231E+00
          2   -1    0    0  501    0  0.00000000000E+00  0.00000000000E+00  0.14581639623E+03  0.14581639623E+03  0.00000000000E+00 0. -1.
         -2   -1    0    0    0  501 -0.00000000000E+00 -0.00000000000E+00 -0.12823323140E+03  0.12823323140E+03  0.00000000000E+00 0.  1.
         25    2    1    2    0    0  0.81958693720E+02  0.10589584179E+02  0.20849937322E+02  0.15136526845E+03  0.12508939938E+03 0.  0.
          5    1    3    3  502    0  0.11441812733E+03  0.16744210383E+02  0.23071828190E+02  0.11799007627E+03  0.41800000000E+01 0.  1.
         -5    1    3    3    0  502 -0.32459433607E+02 -0.61546262034E+01 -0.22218908680E+01  0.33375192177E+02  0.41800000000E+01 0.  1.
        -11    1    1    2    0    0 -0.10124581399E+03 -0.19660504266E+01 -0.56546072795E+01  0.10142265422E+03  0.00000000000E+00 0.  1.
         11    1    1    2    0    0  0.19287120274E+02 -0.86235337528E+01  0.23878347874E+01  0.21261704960E+02  0.00000000000E+00 0. -1.
</event>
<event>
 7    1  0.2719869E-009  0.1098922E+03  0.7561462E-02  0.1260770E+00
          2   -1    0    0  501    0  0.00000000000E+00  0.00000000000E+00  0.44871411548E+02  0.44871411548E+02  0.00000000000E+00 0.  1.
         -2   -1    0    0    0  501 -0.00000000000E+00 -0.00000000000E+00 -0.46202383730E+03  0.46202383730E+03  0.00000000000E+00 0. -1.
         25    2    1    2    0    0 -0.43888657720E+02  0.52197645148E+02 -0.34292262319E+03  0.37134118861E+03  0.12509014521E+03 0.  0.
          5    1    3    3  502    0  0.97752236025E+00  0.63082171441E+02 -0.69260567409E+02  0.93780672324E+02  0.41800000000E+01 0.  1.
         -5    1    3    3    0  502 -0.44866180081E+02 -0.10884526293E+02 -0.27366205578E+03  0.27756051629E+03  0.41800000000E+01 0.  1.
        -11    1    1    2    0    0  0.12676270464E+02  0.24394878808E+02 -0.33574222696E+02  0.43393851806E+02  0.00000000000E+00 0. -1.
         11    1    1    2    0    0  0.31212387257E+02 -0.76592523956E+02 -0.40655579872E+02  0.92160208436E+02  0.00000000000E+00 0.  1.
</event>
<event>
 7    1  0.2719869E-009  0.1837478E+03  0.7561462E-02  0.1164224E+00
          1   -1    0    0  501    0  0.00000000000E+00  0.00000000000E+00  0.74020406876E+03  0.74020406876E+03  0.00000000000E+00 0. -1.
         -1   -1    0    0    0  501 -0.00000000000E+00 -0.00000000000E+00 -0.66017296547E+02  0.66017296547E+02  0.00000000000E+00 0.  1.
         25    2    1    2    0    0 -0.63449869575E+01  0.16025606773E+03  0.15736466755E+03  0.25716375204E+03  0.12508913089E+03 0.  0.
          5    1    3    3  502    0  0.30303000129E+02  0.75349267160E+01  0.71467716355E+02  0.78103481475E+02  0.41800000000E+01 0.  1.
         -5    1    3    3    0  502 -0.36647987086E+02  0.15272114102E+03  0.85896951198E+02  0.17906027057E+03  0.41800000000E+01 0.  1.
        -11    1    1    2    0    0  0.27626693234E+02 -0.13794353046E+02  0.45060804324E+02  0.54625950255E+02  0.00000000000E+00 0.  1.
         11    1    1    2    0    0 -0.21281706277E+02 -0.14646171469E+03  0.47176130034E+03  0.49443166301E+03  0.00000000000E+00 0. -1.
</event>
<event>
 7    1  0.2719869E-009  0.1734358E+03  0.7561462E-02  0.1174311E+00
         -2   -1    0    0    0  501 -0.00000000000E+00  0.00000000000E+00  0.23922334943E+03  0.23922334943E+03  0.00000000000E+00 0.  1.
          2   -1    0    0  501    0  0.00000000000E+00 -0.00000000000E+00 -0.15458260902E+03  0.15458260902E+03  0.00000000000E+00 0. -1.
         25    2    1    2    0    0 -0.71211110449E+02 -0.13472241978E+03  0.89990995298E+02  0.21671940270E+03  0.12509103736E+03 0.  0.
          5    1    3    3  502    0  0.32401371494E+02 -0.44859592812E+02  0.47575991523E+02  0.73097054054E+02  0.41800000000E+01 0.  1.
         -5    1    3    3    0  502 -0.10361248194E+03 -0.89862826973E+02  0.42415003775E+02  0.14362234865E+03  0.41800000000E+01 0.  1.
        -11    1    1    2    0    0  0.93691869204E+01  0.39666602913E+02  0.37958237627E+02  0.55696039841E+02  0.00000000000E+00 0.  1.
         11    1    1    2    0    0  0.61841923529E+02  0.95055816872E+02 -0.43308492520E+02  0.12139051590E+03  0.00000000000E+00 0. -1.
</event>
<event>
 7    1  0.2719869E-009  0.1346321E+03  0.7561462E-02  0.1220740E+00
         -2   -1    0    0    0  501 -0.00000000000E+00  0.00000000000E+00  0.59078091411E+02  0.59078091411E+02  0.00000000000E+00 0.  1.
          2   -1    0    0  501    0  0.00000000000E+00 -0.00000000000E+00 -0.44335716238E+03  0.44335716238E+03  0.00000000000E+00 0. -1.
         25    2    1    2    0    0  0.46161020459E+02  0.97772992090E+02 -0.28719604938E+03  0.33139059103E+03  0.12509098789E+03 0.  0.
          5    1    3    3  502    0  0.46455411908E+02  0.11686979077E+03 -0.16430857618E+03  0.20695756544E+03  0.41800000000E+01 0.  1.
         -5    1    3    3    0  502 -0.29439144899E+00 -0.19096798678E+02 -0.12288747320E+03  0.12443302558E+03  0.41800000000E+01 0.  1.
        -11    1    1    2    0    0 -0.27241017867E+02 -0.10106778427E+03 -0.42134158973E+02  0.11283641887E+03  0.00000000000E+00 0.  1.
         11    1    1    2    0    0 -0.18920002592E+02  0.32947921796E+01 -0.54948862615E+02  0.58208243886E+02  0.00000000000E+00 0. -1.
</event>
<event>
 7    1  0.2719869E-009  0.3442320E+03  0.7561462E-02  0.1065008E+00
          2   -1    0    0  501    0  0.00000000000E+00  0.00000000000E+00  0.26478935979E+03  0.26478935979E+03  0.00000000000E+00 0. -1.
         -2   -1    0    0    0  501 -0.00000000000E+00 -0.00000000000E+00 -0.45798069822E+03  0.45798069822E+03  0.00000000000E+00 0.  1.
         25    2    1    2    0    0  0.78867154879E+02  0.31732840515E+03 -0.68710374257E+02  0.35677233951E+03  0.12509213354E+03 0.  0.
          5    1    3    3  502    0 -0.63154200334E+01  0.20241653245E+03 -0.12229339099E+02  0.20292699740E+03  0.41800000000E+01 0.  1.
         -5    1    3    3    0  502  0.85182574913E+02  0.11491187270E+03 -0.56481035157E+02  0.15384534211E+03  0.41800000000E+01 0.  1.
        -11    1    1    2    0    0 -0.97295756034E+02 -0.18337300407E+03 -0.59299533430E+02  0.21589015130E+03  0.00000000000E+00 0. -1.
         11    1    1    2    0    0  0.18428601154E+02 -0.13395540108E+03 -0.65181430742E+02  0.15010756720E+03  0.00000000000E+00 0.  1.
</event>
<event>
 7    1  0.2719869E-009  0.2800110E+03  0.7561462E-02  0.1095683E+00
          1   -1    0    0  501    0  0.00000000000E+00  0.00000000000E+00  0.63179941035E+03  0.63179941035E+03  0.00000000000E+00 0. -1.
         -1   -1    0    0    0  501 -0.00000000000E+00 -0.00000000000E+00 -0.14769514144E+03  0.14769514144E+03  0.00000000000E+00 0.  1.
         25    2    1    2    0    0  0.25492139771E+03 -0.85402646198E+02  0.12559328469E+03  0.32202390477E+03  0.12508873290E+03 0.  0.
          5    1    3    3  502    0  0.24091103764E+03 -0.10155660002E+03  0.13931660296E+03  0.29627429744E+03  0.41800000000E+01 0.  1.
         -5    1    3    3    0  502  0.14010360062E+02  0.16153953825E+02 -0.13723318266E+02  0.25749607327E+02  0.41800000000E+01 0.  1.
        -11    1    1    2    0    0 -0.14646095298E+03  0.14494760241E+02  0.24184382505E+03  0.28310659571E+03  0.00000000000E+00 0.  1.
         11    1    1    2    0    0 -0.10846044472E+03  0.70907885958E+02  0.11666715917E+03  0.17436405131E+03  0.00000000000E+00 0. -1.
</event>
<event>
 7    1  0.2719869E-009  0.7755414E+02  0.7561462E-02  0.1336139E+00
         -2   -1    0    0    0  501 -0.00000000000E+00  0.00000000000E+00  0.85541614366E+02  0.85541614366E+02  0.00000000000E+00 0.  1.
          2   -1    0    0  501    0  0.00000000000E+00 -0.00000000000E+00 -0.25604660527E+03  0.25604660527E+03  0.00000000000E+00 0. -1.
         25    2    1    2    0    0  0.17956992974E+02 -0.21172645754E+02 -0.19967928649E+03  0.23725552765E+03  0.12509050093E+03 0.  0.
          5    1    3    3  502    0  0.15829649002E+02  0.16685661292E+02 -0.19767793083E+03  0.19905533355E+03  0.41800000000E+01 0. -1.
         -5    1    3    3    0  502  0.21273439722E+01 -0.37858307046E+02 -0.20013556656E+01  0.38200194100E+02  0.41800000000E+01 0. -1.
        -11    1    1    2    0    0  0.35906075727E+02  0.55665313204E+00  0.29786033614E+02  0.46655802804E+02  0.00000000000E+00 0.  1.
         11    1    1    2    0    0 -0.53863068701E+02  0.20615992622E+02 -0.61173802290E+00  0.57676889177E+02  0.00000000000E+00 0. -1.
</event>
<event>
 7    1  0.2719869E-009  0.1058581E+03  0.7561462E-02  0.1268438E+00
         -2   -1    0    0    0  501 -0.00000000000E+00  0.00000000000E+00  0.53540750339E+02  0.53540750339E+02  0.00000000000E+00 0.  1.
          2   -1    0    0  501    0  0.00000000000E+00 -0.00000000000E+00 -0.28774267395E+03  0.28774267395E+03  0.00000000000E+00 0. -1.
         25    2    1    2    0    0  0.24300261182E+01 -0.23744735128E+02 -0.54664482454E+02  0.13858645009E+03  0.12509308947E+03 0.  0.
          5    1    3    3  502    0 -0.36671087052E+02  0.37439880635E+02 -0.35285654130E+02  0.63317162562E+02  0.41800000000E+01 0. -1.
         -5    1    3    3    0  502  0.39101113170E+02 -0.61184615762E+02 -0.19378828324E+02  0.75269287524E+02  0.41800000000E+01 0. -1.
        -11    1    1    2    0    0  0.39526990414E+02  0.30964875534E+01 -0.43553409791E+02  0.58897119716E+02  0.00000000000E+00 0.  1.
         11    1    1    2    0    0 -0.41957016532E+02  0.20648247574E+02 -0.13598403137E+03  0.14379985449E+03  0.00000000000E+00 0. -1.
</event>
<event>
 7    1  0.2719869E-009  0.1136130E+03  0.7561462E-02  0.1254022E+00
         -2   -1    0    0    0  501 -0.00000000000E+00  0.00000000000E+00  0.30835475667E+02  0.30835475667E+02  0.00000000000E+00 0. -1.
          2   -1    0    0  501    0  0.00000000000E+00 -0.00000000000E+00 -0.56722703682E+03  0.56722703682E+03  0.00000000000E+00 0.  1.
         25    2    1    2    0    0  0.68308803667E+02 -0.21943752609E+02 -0.34836536883E+03  0.37703264578E+03  0.12509022681E+03 0.  0.
          5    1    3    3  502    0  0.10600695861E+02  0.50335440245E+02 -0.12694823696E+03  0.13703779976E+03  0.41800000000E+01 0.  1.
         -5    1    3    3    0  502  0.57708107806E+02 -0.72279192854E+02 -0.22141713187E+03  0.23999484601E+03  0.41800000000E+01 0.  1.
        -11    1    1    2    0    0 -0.57420078576E+02  0.34043928108E+02 -0.19283014579E+03  0.20405763791E+03  0.00000000000E+00 0.  1.
         11    1    1    2    0    0 -0.10888725091E+02 -0.12100175499E+02  0.48039534743E+01  0.16972228792E+02  0.00000000000E+00 0. -1.
</event>
<event>
 7    1  0.2719869E-009  0.6548110E+02  0.7561462E-02  0.1376171E+00
         -1   -1    0    0    0  501 -0.00000000000E+00  0.00000000000E+00  0.31237093644E+02  0.31237093644E+02  0.00000000000E+00 0.  1.
          1   -1    0    0  501    0  0.00000000000E+00 -0.00000000000E+00 -0.93896626007E+03  0.93896626007E+03  0.00000000000E+00 0. -1.
         25    2    1    2    0    0 -0.46500730094E+02 -0.16052130082E+02 -0.83229905469E+03  0.84308354698E+03  0.12509261360E+03 0.  0.
          5    1    3    3  502    0 -0.25583195556E+01 -0.78654062712E+01 -0.74371836250E+03  0.74377609852E+03  0.41800000000E+01 0.  1.
         -5    1    3    3    0  502 -0.43942410539E+02 -0.81867238110E+01 -0.88580692189E+02  0.99307448459E+02  0.41800000000E+01 0.  1.
        -11    1    1    2    0    0  0.42438125925E+02 -0.15356502866E+02 -0.83072708131E+02  0.94540422828E+02  0.00000000000E+00 0. -1.
         11    1    1    2    0    0  0.40626041694E+01  0.31408632949E+02  0.76425963886E+01  0.32579383909E+02  0.00000000000E+00 0.  1.
</event>
<event>
 7    1  0.2719869E-009  0.8696722E+02  0.7561462E-02  0.1310367E+00
         -1   -1    0    0    0  501 -0.00000000000E+00  0.00000000000E+00  0.30359663989E+02  0.30359663989E+02  0.00000000000E+00 0.  1.
          1   -1    0    0  501    0  0.00000000000E+00 -0.00000000000E+00 -0.49661087779E+03  0.49661087779E+03  0.00000000000E+00 0. -1.
         25    2    1    2    0    0  0.11747514001E+02 -0.31529087920E+02 -0.15721768945E+03  0.20370418681E+03  0.12508359755E+03 0.  0.
          5    1    3    3  502    0  0.10595681257E+02 -0.57026968364E+02 -0.16639189290E+03  0.17626139113E+03  0.41800000000E+01 0.  1.
         -5    1    3    3    0  502  0.11518327438E+01  0.25497880443E+02  0.91742034443E+01  0.27442795678E+02  0.41800000000E+01 0.  1.
        -11    1    1    2    0    0 -0.47074775030E+02  0.27087544985E+02 -0.13288846656E+03  0.14355874784E+03  0.00000000000E+00 0.  1.
         11    1    1    2    0    0  0.35327261029E+02  0.44415429350E+01 -0.17614505779E+03  0.17970760713E+03  0.00000000000E+00 0. -1.
</event>
<event>
 7    1  0.2719869E-009  0.1550860E+03  0.7561462E-02  0.1194359E+00
         -1   -1    0    0    0  501 -0.00000000000E+00  0.00000000000E+00  0.37157115970E+02  0.37157115970E+02  0.00000000000E+00 0.  1.
          1   -1    0    0  501    0  0.00000000000E+00 -0.00000000000E+00 -0.85823990372E+03  0.85823990372E+03  0.00000000000E+00 0. -1.
         25    2    1    2    0    0 -0.98535870944E+02 -0.99303499876E+02 -0.40893333622E+03  0.44993824902E+03  0.12508977381E+03 0.  0.
          5    1    3    3  502    0 -0.84392314275E+02 -0.94453744318E+02 -0.17812435669E+03  0.21860771114E+03  0.41800000000E+01 0. -1.
         -5    1    3    3    0  502 -0.14143556669E+02 -0.48497555583E+01 -0.23080897953E+03  0.23133053788E+03  0.41800000000E+01 0. -1.
        -11    1    1    2    0    0  0.10467113472E+03  0.46124986401E+02 -0.30346700934E+03  0.32430816606E+03  0.00000000000E+00 0. -1.
         11    1    1    2    0    0 -0.61352637752E+01  0.53178513475E+02 -0.10868244219E+03  0.12115060461E+03  0.00000000000E+00 0.  1.
</event>
<event>
 7    1  0.2719869E-009  0.1046526E+03  0.7561462E-02  0.1270806E+00
          1   -1    0    0  501    0  0.00000000000E+00  0.00000000000E+00  0.30435603371E+03  0.30435603371E+03  0.00000000000E+00 0. -1.
         -1   -1    0    0    0  501 -0.00000000000E+00 -0.00000000000E+00 -0.56672677430E+02  0.56672677430E+02  0.00000000000E+00 0.  1.
         25    2    1    2    0    0 -0.98614788684E+01  0.29504854613E+02  0.23062679493E+03  0.26418832268E+03  0.12505585187E+03 0.  0.
          5    1    3    3  502    0 -0.29368509678E+02  0.74103083733E+02  0.13601578381E+03  0.15770714069E+03  0.41800000000E+01 0. -1.
         -5    1    3    3    0  502  0.19507030809E+02 -0.44598229120E+02  0.94611011121E+02  0.10648118199E+03  0.41800000000E+01 0. -1.
        -11    1    1    2    0    0  0.26096504432E+02  0.17151197431E+02 -0.18204497170E+02  0.36146850957E+02  0.00000000000E+00 0.  1.
         11    1    1    2    0    0 -0.16235025564E+02 -0.46656052044E+02  0.35261058520E+02  0.60693537509E+02  0.00000000000E+00 0. -1.
</event>
<event>
 7    1  0.2719869E-009  0.2496185E+03  0.7561462E-02  0.1113546E+00
          3   -1    0    0  501    0  0.00000000000E+00  0.00000000000E+00  0.46721940196E+03  0.46721940196E+03  0.00000000000E+00 0. -1.
         -3   -1    0    0    0  501 -0.00000000000E+00 -0.00000000000E+00 -0.15856005925E+03  0.15856005925E+03  0.00000000000E+00 0.  1.
         25    2    1    2    0    0  0.17108813449E+02  0.24719446847E+03  0.12315642079E+03  0.30366546176E+03  0.12508953571E+03 0.  0.
          5    1    3    3  502    0  0.18947620845E+02  0.19272483415E+03  0.30497358814E+02  0.19608527566E+03  0.41800000000E+01 0. -1.
         -5    1    3    3    0  502 -0.18388073968E+01  0.54469634314E+02  0.92659061981E+02  0.10758018610E+03  0.41800000000E+01 0. -1.
        -11    1    1    2    0    0  0.12194984157E+02 -0.47331253465E+02  0.15434012922E+01  0.48901403668E+02  0.00000000000E+00 0.  1.
         11    1    1    2    0    0 -0.29303797605E+02 -0.19986321500E+03  0.18395952063E+03  0.27321259578E+03  0.00000000000E+00 0. -1.
</event>
<event>
 7    1  0.2719869E-009  0.9910070E+02  0.7561462E-02  0.1282198E+00
         -1   -1    0    0    0  501 -0.00000000000E+00  0.00000000000E+00  0.54819374827E+02  0.54819374827E+02  0.00000000000E+00 0.  1.
          1   -1    0    0  501    0  0.00000000000E+00 -0.00000000000E+00 -0.32128198761E+03  0.32128198761E+03  0.00000000000E+00 0. -1.
         25    2    1    2    0    0 -0.30447596279E+02 -0.19438908522E+02 -0.52371291155E+02  0.14033769252E+03  0.12508792316E+03 0.  0.
          5    1    3    3  502    0 -0.15039241526E+02  0.52889435695E+02 -0.13883420136E+02  0.56865569095E+02  0.41800000000E+01 0. -1.
         -5    1    3    3    0  502 -0.15408354753E+02 -0.72328344217E+02 -0.38487871019E+02  0.83472123424E+02  0.41800000000E+01 0. -1.
        -11    1    1    2    0    0  0.36386183485E+02 -0.10969985780E+02 -0.19648648326E+03  0.20012804162E+03  0.00000000000E+00 0. -1.
         11    1    1    2    0    0 -0.59385872060E+01  0.30408894302E+02 -0.17604838366E+02  0.35635628303E+02  0.00000000000E+00 0.  1.
</event>
<event>
 7    1  0.2719869E-009  0.6521656E+02  0.7561462E-02  0.1377159E+00
          2   -1    0    0  501    0  0.00000000000E+00  0.00000000000E+00  0.14094513898E+03  0.14094513898E+03  0.00000000000E+00 0. -1.
         -2   -1    0    0    0  501 -0.00000000000E+00 -0.00000000000E+00 -0.10704453292E+03  0.10704453292E+03  0.00000000000E+00 0.  1.
         25    2    1    2    0    0  0.78821763132E+01  0.33209468099E+02 -0.26039680050E+02  0.13224710817E+03  0.12508491199E+03 0.  0.
          5    1    3    3  502    0 -0.14417722707E+02 -0.90694165245E+01  0.43989512586E+02  0.47356886107E+02  0.41800000000E+01 0.  1.
         -5    1    3    3    0  502  0.22299899020E+02  0.42278884624E+02 -0.70029192637E+02  0.84890222068E+02  0.41800000000E+01 0.  1.
        -11    1    1    2    0    0  0.47295960736E+01 -0.46413262935E+02 -0.62587301582E+01  0.47071559975E+02  0.00000000000E+00 0.  1.
         11    1    1    2    0    0 -0.12611772387E+02  0.13203794836E+02  0.66199016274E+02  0.68671003753E+02  0.00000000000E+00 0. -1.
</event>
<event>
 7    1  0.2719869E-009  0.1270655E+03  0.7561462E-02  0.1231876E+00
         -1   -1    0    0    0  501 -0.00000000000E+00  0.00000000000E+00  0.50696592549E+02  0.50696592549E+02  0.00000000000E+00 0.  1.
          1   -1    0    0  501    0  0.00000000000E+00 -0.00000000000E+00 -0.40321309740E+03  0.40321309740E+03  0.00000000000E+00 0. -1.
         25    2    1    2    0    0  0.85676144001E+01  0.89116238551E+02 -0.23169603808E+03  0.27811822561E+03  0.12510629625E+03 0.  0.
          5    1    3    3  502    0 -0.41342387346E+02  0.59392622695E+02 -0.51969400840E+02  0.89190625324E+02  0.41800000000E+01 0.  1.
         -5    1    3    3    0  502  0.49910001746E+02  0.29723615856E+02 -0.17972663724E+03  0.18892760028E+03  0.41800000000E+01 0.  1.
        -11    1    1    2    0    0 -0.36236300039E+02 -0.88608509281E+02 -0.72420133371E+02  0.12003838167E+03  0.00000000000E+00 0.  1.
         11    1    1    2    0    0  0.27668685639E+02 -0.50772926995E+00 -0.48400333398E+02  0.55753082668E+02  0.00000000000E+00 0. -1.
</event>
<event>
 7    1  0.2719869E-009  0.1144656E+03  0.7561462E-02  0.1252517E+00
         -1   -1    0    0    0  501 -0.00000000000E+00  0.00000000000E+00  0.42542059145E+03  0.42542059145E+03  0.00000000000E+00 0.  1.
          1   -1    0    0  501    0  0.00000000000E+00 -0.00000000000E+00 -0.44939301534E+02  0.44939301534E+02  0.00000000000E+00 0. -1.
         25    2    1    2    0    0  0.75297205679E+02  0.40621222704E+02  0.19440350112E+03  0.24649655449E+03  0.12509227477E+03 0.  0.
          5    1    3    3  502    0 -0.11189884081E+02 -0.19504911671E+02  0.10741496962E+03  0.10982305397E+03  0.41800000000E+01 0. -1.
         -5    1    3    3    0  502  0.86487089760E+02  0.60126134375E+02  0.86988531501E+02  0.13667350051E+03  0.41800000000E+01 0. -1.
        -11    1    1    2    0    0 -0.53924544703E+02  0.91272590260E+00  0.16314250835E+03  0.17182598063E+03  0.00000000000E+00 0.  1.
         11    1    1    2    0    0 -0.21372660976E+02 -0.41533948606E+02  0.22935280437E+02  0.52037357857E+02  0.00000000000E+00 0. -1.
</event>
<event>
 7    1  0.2719869E-009  0.1126121E+03  0.7561462E-02  0.1255808E+00
         -2   -1    0    0    0  501 -0.00000000000E+00  0.00000000000E+00  0.15615291567E+02  0.15615291567E+02  0.00000000000E+00 0.  1.
          2   -1    0    0  501    0  0.00000000000E+00 -0.00000000000E+00 -0.12078344657E+04  0.12078344657E+04  0.00000000000E+00 0. -1.
         25    2    1    2    0    0  0.17537199415E+02 -0.77341959882E+02 -0.71237804212E+03  0.72761262655E+03  0.12509327442E+03 0.  0.
          5    1    3    3  502    0 -0.19411668961E+02 -0.51921197652E+02 -0.10715505436E+03  0.12071578907E+03  0.41800000000E+01 0. -1.
         -5    1    3    3    0  502  0.36948868375E+02 -0.25420762229E+02 -0.60522298776E+03  0.60689683748E+03  0.41800000000E+01 0. -1.
        -11    1    1    2    0    0 -0.33983555587E+02 -0.10229448053E+02 -0.15363875910E+03  0.15768446961E+03  0.00000000000E+00 0. -1.
         11    1    1    2    0    0  0.16446356172E+02  0.87571407935E+02 -0.32620237293E+03  0.33815266112E+03  0.00000000000E+00 0.  1.
</event>
<event>
 7    1  0.2719869E-009  0.9619420E+02  0.7561462E-02  0.1288509E+00
         -4   -1    0    0    0  501 -0.00000000000E+00  0.00000000000E+00  0.15366882656E+03  0.15366882656E+03  0.00000000000E+00 0.  1.
          4   -1    0    0  501    0  0.00000000000E+00 -0.00000000000E+00 -0.10409136057E+03  0.10409136057E+03  0.00000000000E+00 0. -1.
         25    2    1    2    0    0 -0.32809648862E+02 -0.43401282666E+02 -0.85491574518E+01  0.13668086122E+03  0.12509366624E+03 0.  0.
          5    1    3    3  502    0  0.21576898809E+02  0.27196021044E+02  0.23224389065E+02  0.41976550243E+02  0.41800000000E+01 0.  1.
         -5    1    3    3    0  502 -0.54386547671E+02 -0.70597303711E+02 -0.31773546517E+02  0.94704310974E+02  0.41800000000E+01 0.  1.
        -11    1    1    2    0    0  0.67425244947E+01 -0.80670050402E+01 -0.20805102041E+02  0.23310737393E+02  0.00000000000E+00 0. -1.
         11    1    1    2    0    0  0.26067124368E+02  0.51468287707E+02  0.78931725486E+02  0.97768588516E+02  0.00000000000E+00 0.  1.
</event>
<event>
 7    1  0.2719869E-009  0.8278021E+02  0.7561462E-02  0.1321342E+00
         -2   -1    0    0    0  501 -0.00000000000E+00  0.00000000000E+00  0.36540724322E+02  0.36540724322E+02  0.00000000000E+00 0.  1.
          2   -1    0    0  501    0  0.00000000000E+00 -0.00000000000E+00 -0.38715732222E+03  0.38715732222E+03  0.00000000000E+00 0. -1.
         25    2    1    2    0    0  0.28646643289E+02 -0.35352534656E+02 -0.16650219054E+03  0.21316879948E+03  0.12509007050E+03 0.  0.
          5    1    3    3  502    0  0.21541864455E+01  0.17779004796E+02  0.13996486549E+02  0.23110767328E+02  0.41800000000E+01 0.  1.
         -5    1    3    3    0  502  0.26492456843E+02 -0.53131539452E+02 -0.18049867709E+03  0.19005803215E+03  0.41800000000E+01 0.  1.
        -11    1    1    2    0    0 -0.54380415920E+02  0.25955993668E+02 -0.66385120084E+02  0.89654489076E+02  0.00000000000E+00 0.  1.
         11    1    1    2    0    0  0.25733772631E+02  0.93965409879E+01 -0.11772928728E+03  0.12087475799E+03  0.00000000000E+00 0. -1.
</event>
<event>
 7    1  0.2719869E-009  0.1422853E+03  0.7561462E-02  0.1210287E+00
          2   -1    0    0  501    0  0.00000000000E+00  0.00000000000E+00  0.34682908413E+03  0.34682908413E+03  0.00000000000E+00 0. -1.
         -2   -1    0    0    0  501 -0.00000000000E+00 -0.00000000000E+00 -0.63550180006E+02  0.63550180006E+02  0.00000000000E+00 0.  1.
         25    2    1    2    0    0  0.98125348761E+02  0.18765210315E+02  0.14220108785E+03  0.21412506483E+03  0.12509067438E+03 0.  0.
          5    1    3    3  502    0  0.82567163665E+02  0.62029396950E+02  0.13055148853E+03  0.16651169977E+03  0.41800000000E+01 0. -1.
         -5    1    3    3    0  502  0.15558185096E+02 -0.43264186635E+02  0.11649599315E+02  0.47613365066E+02  0.41800000000E+01 0. -1.
        -11    1    1    2    0    0 -0.89067984048E+02 -0.50264901833E+02  0.94127510361E+02  0.13899515943E+03  0.00000000000E+00 0. -1.
         11    1    1    2    0    0 -0.90573647130E+01  0.31499691518E+02  0.46950305916E+02  0.57259039870E+02  0.00000000000E+00 0.  1.
</event>
<event>
 7    1  0.2719869E-009  0.8251439E+02  0.7561462E-02  0.1322064E+00
         -2   -1    0    0    0  501 -0.00000000000E+00  0.00000000000E+00  0.12374170452E+02  0.12374170452E+02  0.00000000000E+00 0.  1.
          2   -1    0    0  501    0  0.00000000000E+00 -0.00000000000E+00 -0.10986252866E+04  0.10986252866E+04  0.00000000000E+00 0. -1.
         25    2    1    2    0    0 -0.48305167564E+02 -0.49420487515E+01 -0.67629161323E+03  0.68947562834E+03  0.12509389629E+03 0.  0.
          5    1    3    3  502    0 -0.44975964675E+02 -0.21170223114E+02 -0.66906942960E+03  0.67092651592E+03  0.41800000000E+01 0. -1.
         -5    1    3    3    0  502 -0.33292028894E+01  0.16228174362E+02 -0.72221836320E+01  0.18549112416E+02  0.41800000000E+01 0. -1.
        -11    1    1    2    0    0  0.71377074491E+02 -0.76300916638E+01 -0.29971509657E+03  0.30819157058E+03  0.00000000000E+00 0.  1.
         11    1    1    2    0    0 -0.23071906927E+02  0.12572140415E+02 -0.11024440638E+03  0.11333225817E+03  0.00000000000E+00 0. -1.
</event>
<event>
 7    1  0.2719869E-009  0.2733364E+03  0.7561462E-02  0.1099385E+00
          2   -1    0    0  501    0  0.00000000000E+00  0.00000000000E+00  0.21064688602E+03  0.21064688602E+03  0.00000000000E+00 0. -1.
         -2   -1    0    0    0  501 -0.00000000000E+00 -0.00000000000E+00 -0.41667762750E+03  0.41667762750E+03  0.00000000000E+00 0.  1.
         25    2    1    2    0    0 -0.11378504198E+03  0.23744362226E+03 -0.22256576435E+02  0.29235156976E+03  0.12509026987E+03 0.  0.
          5    1    3    3  502    0 -0.24582191126E+02  0.15316425034E+02 -0.43039273097E+02  0.52045445767E+02  0.41800000000E+01 0.  1.
         -5    1    3    3    0  502 -0.89202850856E+02  0.22212719723E+03  0.20782696662E+02  0.24030612399E+03  0.41800000000E+01 0.  1.
        -11    1    1    2    0    0  0.95579143752E+01 -0.12237893933E+03 -0.10142741792E+03  0.15923404041E+03  0.00000000000E+00 0.  1.
         11    1    1    2    0    0  0.10422712761E+03 -0.11506468293E+03 -0.82346747127E+02  0.17573890335E+03  0.00000000000E+00 0. -1.
</event>
<event>
 7    1  0.2719869E-009  0.9399281E+02  0.7561462E-02  0.1293461E+00
          1   -1    0    0  501    0  0.00000000000E+00  0.00000000000E+00  0.99456181812E+02  0.99456181812E+02  0.00000000000E+00 0. -1.
         -1   -1    0    0    0  501 -0.00000000000E+00 -0.00000000000E+00 -0.17532731543E+03  0.17532731543E+03  0.00000000000E+00 0.  1.
         25    2    1    2    0    0 -0.25166480000E+02 -0.43978750439E+02 -0.99152412618E+02  0.16747086816E+03  0.12509120093E+03 0.  0.
          5    1    3    3  502    0  0.46218427101E+02  0.70724616321E+01 -0.30674201137E+02  0.56076213609E+02  0.41800000000E+01 0.  1.
         -5    1    3    3    0  502 -0.71384907102E+02 -0.51051212071E+02 -0.68478211480E+02  0.11139465455E+03  0.41800000000E+01 0.  1.
        -11    1    1    2    0    0  0.13857333058E+02  0.37875968626E+02 -0.31417798124E+02  0.51124286966E+02  0.00000000000E+00 0.  1.
         11    1    1    2    0    0  0.11309146943E+02  0.61027818127E+01  0.54699077127E+02  0.56188342110E+02  0.00000000000E+00 0. -1.
</event>
<event>
 7    1  0.2719869E-009  0.1807668E+03  0.7561462E-02  0.1167063E+00
          1   -1    0    0  501    0  0.00000000000E+00  0.00000000000E+00  0.21236956428E+04  0.21236956428E+04  0.00000000000E+00 0. -1.
         -1   -1    0    0    0  501 -0.00000000000E+00 -0.00000000000E+00 -0.16658341837E+02  0.16658341837E+02  0.00000000000E+00 0.  1.
         25    2    1    2    0    0 -0.42220185334E+02 -0.14552758914E+03  0.12820946886E+04  0.12970644318E+04  0.12509407049E+03 0.  0.
          5    1    3    3  502    0 -0.66891106050E+02 -0.14705391773E+03  0.91866964965E+03  0.93277578891E+03  0.41800000000E+01 0. -1.
         -5    1    3    3    0  502  0.24670920716E+02  0.15263285900E+01  0.36342503890E+03  0.36428864285E+03  0.41800000000E+01 0. -1.
        -11    1    1    2    0    0  0.43094316046E+02  0.16998436808E+02  0.23073596526E+03  0.23534050351E+03  0.00000000000E+00 0.  1.
         11    1    1    2    0    0 -0.87413071150E+00  0.12852915234E+03  0.59420664719E+03  0.60794904940E+03  0.00000000000E+00 0. -1.
</event>
<event>
 7    1  0.2719869E-009  0.2886001E+03  0.7561462E-02  0.1091082E+00
         -2   -1    0    0    0  501 -0.00000000000E+00  0.00000000000E+00  0.93367485826E+02  0.93367485826E+02  0.00000000000E+00 0.  1.
          2   -1    0    0  501    0  0.00000000000E+00 -0.00000000000E+00 -0.10636385980E+04  0.10636385980E+04  0.00000000000E+00 0. -1.
         25    2    1    2    0    0  0.26805288010E+03 -0.71236959039E+02 -0.30755744222E+03  0.43262732596E+03  0.12509105498E+03 0.  0.
          5    1    3    3  502    0 -0.87882357118E+01 -0.85340572058E+01  0.14370407895E+01  0.13023083565E+02  0.41800000000E+01 0. -1.
         -5    1    3    3    0  502  0.27684111581E+03 -0.62702901833E+02 -0.30899448301E+03  0.41960424239E+03  0.41800000000E+01 0. -1.
        -11    1    1    2    0    0 -0.59435775301E+02 -0.14553427831E+01 -0.70047374944E+02  0.91876896687E+02  0.00000000000E+00 0. -1.
         11    1    1    2    0    0 -0.20861710480E+03  0.72692301822E+02 -0.59266629498E+03  0.63250186115E+03  0.00000000000E+00 0.  1.
</event>
<event>
 7    1  0.2719869E-009  0.1654475E+03  0.7561462E-02  0.1182680E+00
          1   -1    0    0  501    0  0.00000000000E+00  0.00000000000E+00  0.13693467145E+03  0.13693467145E+03  0.00000000000E+00 0. -1.
         -1   -1    0    0    0  501 -0.00000000000E+00 -0.00000000000E+00 -0.37715228487E+03  0.37715228487E+03  0.00000000000E+00 0.  1.
         25    2    1    2    0    0 -0.10978763009E+03  0.10383972125E+03 -0.26775083951E+03  0.33192470695E+03  0.12508991805E+03 0.  0.
          5    1    3    3  502    0 -0.67131269940E+02  0.16351563709E+02 -0.20418304733E+03  0.21559724083E+03  0.41800000000E+01 0.  1.
         -5    1    3    3    0  502 -0.42656360149E+02  0.87488157537E+02 -0.63567792186E+02  0.11632746612E+03  0.41800000000E+01 0.  1.
        -11    1    1    2    0    0  0.10301796531E+03 -0.58620535387E+02 -0.15297485656E+02  0.11951184633E+03  0.00000000000E+00 0.  1.
         11    1    1    2    0    0  0.67696647790E+01 -0.45219185859E+02  0.42830711748E+02  0.62650403030E+02  0.00000000000E+00 0. -1.
</event>
<event>
 7    1  0.2719869E-009  0.1072680E+03  0.7561462E-02  0.1265714E+00
          1   -1    0    0  501    0  0.00000000000E+00  0.00000000000E+00  0.10803636000E+03  0.10803636000E+03  0.00000000000E+00 0. -1.
         -1   -1    0    0    0  501 -0.00000000000E+00 -0.00000000000E+00 -0.11515082604E+03  0.11515082604E+03  0.00000000000E+00 0.  1.
         25    2    1    2    0    0  0.61674611380E+01  0.24029287643E+02 -0.93013436310E+01  0.12786486838E+03  0.12508982905E+03 0.  0.
          5    1    3    3  502    0  0.29743898992E+02  0.65681125734E+02  0.15394501146E+02  0.73845601565E+02  0.41800000000E+01 0.  1.
         -5    1    3    3    0  502 -0.23576437854E+02 -0.41651838091E+02 -0.24695844777E+02  0.54019266818E+02  0.41800000000E+01 0.  1.
        -11    1    1    2    0    0  0.15639393504E+02 -0.54556146288E+02  0.81497276774E+01  0.57335693841E+02  0.00000000000E+00 0.  1.
         11    1    1    2    0    0 -0.21806854642E+02  0.30526858645E+02 -0.59628500896E+01  0.37986623820E+02  0.00000000000E+00 0. -1.
</event>
<event>
 7    1  0.2719869E-009  0.9481397E+02  0.7561462E-02  0.1291596E+00
          1   -1    0    0  501    0  0.00000000000E+00  0.00000000000E+00  0.11910871627E+04  0.11910871627E+04  0.00000000000E+00 0. -1.
         -1   -1    0    0    0  501 -0.00000000000E+00 -0.00000000000E+00 -0.26521857882E+02  0.26521857882E+02  0.00000000000E+00 0.  1.
         25    2    1    2    0    0 -0.65262360537E+02  0.44925928533E+02  0.10094800338E+04  0.10202818144E+04  0.12509007729E+03 0.  0.
          5    1    3    3  502    0 -0.37803568958E+02  0.17192893437E+02  0.93638814646E+03  0.93731794959E+03  0.41800000000E+01 0. -1.
         -5    1    3    3    0  502 -0.27458791579E+02  0.27733035095E+02  0.73091887318E+02  0.82963864799E+02  0.41800000000E+01 0. -1.
        -11    1    1    2    0    0  0.50878450022E+02  0.10007180993E+02  0.29879050065E+02  0.59845784988E+02  0.00000000000E+00 0.  1.
         11    1    1    2    0    0  0.14383910515E+02 -0.54933109525E+02  0.12520622100E+03  0.13748142122E+03  0.00000000000E+00 0. -1.
</event>
<event>
 7    1  0.2719869E-009  0.1259786E+03  0.7561462E-02  0.1233548E+00
          3   -1    0    0  501    0  0.00000000000E+00  0.00000000000E+00  0.29142872943E+03  0.29142872943E+03  0.00000000000E+00 0. -1.
         -3   -1    0    0    0  501 -0.00000000000E+00 -0.00000000000E+00 -0.83378008242E+02  0.83378008242E+02  0.00000000000E+00 0.  1.
         25    2    1    2    0    0 -0.86587332596E+02 -0.21795692296E+02  0.31137454173E+02  0.15681785155E+03  0.12509947699E+03 0.  0.
          5    1    3    3  502    0 -0.56738322332E+02 -0.55444425272E+02  0.63123769762E+02  0.10146627136E+03  0.41800000000E+01 0.  1.
         -5    1    3    3    0  502 -0.29849010265E+02  0.33648732976E+02 -0.31986315588E+02  0.55351580191E+02  0.41800000000E+01 0.  1.
        -11    1    1    2    0    0  0.10490251208E+03  0.96042869529E+01  0.14494030522E+03  0.17917720683E+03  0.00000000000E+00 0.  1.
         11    1    1    2    0    0 -0.18315179484E+02  0.12191405343E+02  0.31972961788E+02  0.38811679289E+02  0.00000000000E+00 0. -1.
</event>
<event>
 7    1  0.2719869E-009  0.1112565E+03  0.7561462E-02  0.1258261E+00
         -2   -1    0    0    0  501 -0.00000000000E+00  0.00000000000E+00  0.84186798793E+02  0.84186798793E+02  0.00000000000E+00 0. -1.
          2   -1    0    0  501    0  0.00000000000E+00 -0.00000000000E+00 -0.21756383612E+03  0.21756383612E+03  0.00000000000E+00 0.  1.
         25    2    1    2    0    0  0.21917028614E+02  0.19631437685E+02  0.89562326083E+01  0.12881508918E+03  0.12508942245E+03 0.  0.
          5    1    3    3  502    0 -0.39989114227E+01  0.68666983090E+02  0.20733550803E+02  0.71961784220E+02  0.41800000000E+01 0. -1.
         -5    1    3    3    0  502  0.25915940036E+02 -0.49035545405E+02 -0.11777318195E+02  0.56853304961E+02  0.41800000000E+01 0. -1.
        -11    1    1    2    0    0 -0.52747952281E+02  0.11695532268E+02 -0.72423553547E+02  0.90356532986E+02  0.00000000000E+00 0.  1.
         11    1    1    2    0    0  0.30830923667E+02 -0.31326969953E+02 -0.69909716391E+02  0.82579012748E+02  0.00000000000E+00 0. -1.
</event>
<event>
 7    1  0.2719869E-009  0.1475116E+03  0.7561462E-02  0.1203565E+00
          2   -1    0    0  501    0  0.00000000000E+00  0.00000000000E+00  0.11727594978E+03  0.11727594978E+03  0.00000000000E+00 0. -1.
         -2   -1    0    0    0  501 -0.00000000000E+00 -0.00000000000E+00 -0.31850588277E+03  0.31850588277E+03  0.00000000000E+00 0.  1.
         25    2    1    2    0    0  0.12425478436E+03 -0.13150456990E+02 -0.98586307006E+02  0.20243466318E+03  0.12509335304E+03 0.  0.
          5    1    3    3  502    0  0.14410634248E+03 -0.24898631064E+02 -0.10254412598E+03  0.17865987223E+03  0.41800000000E+01 0. -1.
         -5    1    3    3    0  502 -0.19851558122E+02  0.11748174074E+02  0.39578189712E+01  0.23774790955E+02  0.41800000000E+01 0. -1.
        -11    1    1    2    0    0 -0.88468180539E+02  0.13489268616E+02  0.31221576494E+02  0.94780621302E+02  0.00000000000E+00 0. -1.
         11    1    1    2    0    0 -0.35786603823E+02 -0.33881162633E+00 -0.13386520248E+03  0.13856654806E+03  0.00000000000E+00 0.  1.
</event>
<event>
 7    1  0.2719869E-009  0.1102545E+03  0.7561462E-02  0.1260099E+00
          1   -1    0    0  501    0  0.00000000000E+00  0.00000000000E+00  0.74826717196E+03  0.74826717196E+03  0.00000000000E+00 0. -1.
         -1   -1    0    0    0  501 -0.00000000000E+00 -0.00000000000E+00 -0.23820068247E+02  0.23820068247E+02  0.00000000000E+00 0.  1.
         25    2    1    2    0    0 -0.23253658301E+02  0.40984524367E+02  0.57345746035E+03  0.58883057082E+03  0.12509004133E+03 0.  0.
          5    1    3    3  502    0 -0.29715507753E+02 -0.38404142532E+02  0.14386354870E+03  0.15189497230E+03  0.41800000000E+01 0.  1.
         -5    1    3    3    0  502  0.64618494520E+01  0.79388666899E+02  0.42959391165E+03  0.43693559852E+03  0.41800000000E+01 0.  1.
        -11    1    1    2    0    0  0.52277765214E+02 -0.33313049116E+02  0.13651143922E+03  0.14992697227E+03  0.00000000000E+00 0.  1.
         11    1    1    2    0    0 -0.29024106913E+02 -0.76714752509E+01  0.14478204149E+02  0.33329697118E+02  0.00000000000E+00 0. -1.
</event>
<event>
 7    1  0.2719869E-009  0.9689081E+02  0.7561462E-02  0.1286973E+00
         -2   -1    0    0    0  501 -0.00000000000E+00  0.00000000000E+00  0.38525092637E+02  0.38525092637E+02  0.00000000000E+00 0.  1.
          2   -1    0    0  501    0  0.00000000000E+00 -0.00000000000E+00 -0.47857356862E+03  0.47857356862E+03  0.00000000000E+00 0. -1.
         25    2    1    2    0    0  0.14860081832E+02  0.79877639647E+02 -0.23685870321E+03  0.27991030108E+03  0.12508585860E+03 0.  0.
          5    1    3    3  502    0 -0.39590883076E+00  0.23606776259E+02 -0.21678586933E+03  0.21810782235E+03  0.41800000000E+01 0.  1.
         -5    1    3    3    0  502  0.15255990662E+02  0.56270863388E+02 -0.20072833872E+02  0.61802478730E+02  0.41800000000E+01 0.  1.
        -11    1    1    2    0    0 -0.82950479487E+01 -0.94741165660E+02 -0.12358481347E+03  0.15594198412E+03  0.00000000000E+00 0.  1.
         11    1    1    2    0    0 -0.65650338828E+01  0.14863526013E+02 -0.79604959305E+02  0.81246376051E+02  0.00000000000E+00 0. -1.
</event>
<event>
 7    1  0.2719869E-009  0.1415542E+03  0.7561462E-02  0.1211253E+00
          1   -1    0    0  501    0  0.00000000000E+00  0.00000000000E+00  0.51271952157E+03  0.51271952157E+03  0.00000000000E+00 0. -1.
         -1   -1    0    0    0  501 -0.00000000000E+00 -0.00000000000E+00 -0.42671831240E+02  0.42671831240E+02  0.00000000000E+00 0.  1.
         25    2    1    2    0    0  0.58473488254E+02  0.79148021080E+02  0.31537818692E+03  0.35326320976E+03  0.12509171241E+03 0.  0.
          5    1    3    3  502    0 -0.93572189811E+01 -0.29349921952E+02  0.58291745223E+02  0.66063419732E+02  0.41800000000E+01 0. -1.
         -5    1    3    3    0  502  0.67830707235E+02  0.10849794303E+03  0.25708644170E+03  0.28719979002E+03  0.41800000000E+01 0. -1.
        -11    1    1    2    0    0  0.15350933335E+02 -0.34396956895E+02  0.21344903186E+02  0.43294418693E+02  0.00000000000E+00 0.  1.
         11    1    1    2    0    0 -0.73824421589E+02 -0.44751064185E+02  0.13332460022E+03  0.15883372436E+03  0.00000000000E+00 0. -1.
</event>
<event>
 7    1  0.2719869E-009  0.2132125E+03  0.7561462E-02  0.1139047E+00
         -3   -1    0    0    0  501 -0.00000000000E+00  0.00000000000E+00  0.63243055609E+03  0.63243055609E+03  0.00000000000E+00 0.  1.
          3   -1    0    0  501    0  0.00000000000E+00 -0.00000000000E+00 -0.92722523152E+02  0.92722523152E+02  0.00000000000E+00 0. -1.
         25    2    1    2    0    0  0.22230263773E+02  0.20039453353E+03  0.16065858870E+03  0.28654407140E+03  0.12507665263E+03 0.  0.
          5    1    3    3  502    0 -0.26833698725E+02  0.12378721024E+03  0.35221198567E+02  0.13153450511E+03  0.41800000000E+01 0.  1.
         -5    1    3    3    0  502  0.49063962498E+02  0.76607323293E+02  0.12543739013E+03  0.15500956629E+03  0.41800000000E+01 0.  1.
        -11    1    1    2    0    0  0.10013939058E+02 -0.13826586552E+03  0.17730421435E+03  0.22506557482E+03  0.00000000000E+00 0. -1.
         11    1    1    2    0    0 -0.32244202832E+02 -0.62128668014E+02  0.20174522989E+03  0.21354343303E+03  0.00000000000E+00 0.  1.
</event>
<event>
 7    1  0.2719869E-009  0.9170937E+02  0.7561462E-02  0.1298764E+00
          2   -1    0    0  501    0  0.00000000000E+00  0.00000000000E+00  0.23747420499E+02  0.23747420499E+02  0.00000000000E+00 0. -1.
         -2   -1    0    0    0  501 -0.00000000000E+00 -0.00000000000E+00 -0.82500479573E+03  0.82500479573E+03  0.00000000000E+00 0.  1.
         25    2    1    2    0    0 -0.16657246965E+02 -0.86194135431E+02 -0.46234361817E+03  0.48694573167E+03  0.12509049310E+03 0.  0.
          5    1    3    3  502    0 -0.21483651820E+02 -0.65683333306E+02 -0.46017604622E+03  0.46535504025E+03  0.41800000000E+01 0.  1.
         -5    1    3    3    0  502  0.48264048543E+01 -0.20510802126E+02 -0.21675719493E+01  0.21590691416E+02  0.41800000000E+01 0.  1.
        -11    1    1    2    0    0  0.25289753891E+02  0.68406484829E+02 -0.33339523838E+03  0.34127907026E+03  0.00000000000E+00 0.  1.
         11    1    1    2    0    0 -0.86325069256E+01  0.17787650602E+02 -0.55185186766E+01  0.20527414307E+02  0.00000000000E+00 0. -1.
</event>
<event>
 7    1  0.2719869E-009  0.2832804E+03  0.7561462E-02  0.1093911E+00
         -2   -1    0    0    0  501 -0.00000000000E+00  0.00000000000E+00  0.40604454161E+03  0.40604454161E+03  0.00000000000E+00 0.  1.
          2   -1    0    0  501    0  0.00000000000E+00 -0.00000000000E+00 -0.21429112978E+03  0.21429112978E+03  0.00000000000E+00 0. -1.
         25    2    1    2    0    0  0.24973395422E+01  0.26971035859E+03  0.14972622220E+03  0.33288665169E+03  0.12508264079E+03 0.  0.
          5    1    3    3  502    0 -0.83549255512E+01  0.27866504513E+03  0.15271979094E+03  0.31790693465E+03  0.41800000000E+01 0. -1.
         -5    1    3    3    0  502  0.10852265093E+02 -0.89546865389E+01 -0.29935687432E+01  0.14979717036E+02  0.41800000000E+01 0. -1.
        -11    1    1    2    0    0  0.19183230454E+02 -0.16631534081E+03  0.64550278309E+02  0.17943112146E+03  0.00000000000E+00 0.  1.
         11    1    1    2    0    0 -0.21680569996E+02 -0.10339501778E+03 -0.22523088670E+02  0.10801789824E+03  0.00000000000E+00 0. -1.
</event>
<event>
 7    1  0.2719869E-009  0.1027337E+03  0.7561462E-02  0.1274650E+00
         -1   -1    0    0    0  501 -0.00000000000E+00  0.00000000000E+00  0.82496060856E+02  0.82496060856E+02  0.00000000000E+00 0.  1.
          1   -1    0    0  501    0  0.00000000000E+00 -0.00000000000E+00 -0.15334053541E+03  0.15334053541E+03  0.00000000000E+00 0. -1.
         25    2    1    2    0    0 -0.34247146273E+02 -0.12830635050E+01 -0.41241037850E+02  0.13610080221E+03  0.12509233341E+03 0.  0.
          5    1    3    3  502    0  0.45022345949E+02  0.10908880679E+02 -0.16025898005E+01  0.46540906807E+02  0.41800000000E+01 0. -1.
         -5    1    3    3    0  502 -0.79269492221E+02 -0.12191944184E+02 -0.39638448050E+02  0.89559895398E+02  0.41800000000E+01 0. -1.
        -11    1    1    2    0    0  0.50723410477E+02  0.19261385509E+02  0.80742524030E+01  0.54854889427E+02  0.00000000000E+00 0.  1.
         11    1    1    2    0    0 -0.16476264205E+02 -0.17978322004E+02 -0.37677689107E+02  0.44880904633E+02  0.00000000000E+00 0. -1.
</event>
<event>
 7    1  0.2719869E-009  0.3539958E+03  0.7561462E-02  0.1060987E+00
         -2   -1    0    0    0  501 -0.00000000000E+00  0.00000000000E+00  0.48308446519E+03  0.48308446519E+03  0.00000000000E+00 0.  1.
          2   -1    0    0  501    0  0.00000000000E+00 -0.00000000000E+00 -0.26783099394E+03  0.26783099394E+03  0.00000000000E+00 0. -1.
         25    2    1    2    0    0 -0.26367206074E+03 -0.21782782220E+03  0.87592179758E+02  0.37455473293E+03  0.12508773827E+03 0.  0.
          5    1    3    3  502    0 -0.26515656919E+03 -0.22822620863E+03  0.92997774613E+02  0.36202384862E+03  0.41800000000E+01 0. -1.
         -5    1    3    3    0  502  0.14845084519E+01  0.10398386429E+02 -0.54055948543E+01  0.12530884302E+02  0.41800000000E+01 0. -1.
        -11    1    1    2    0    0  0.66872191690E+02  0.25298441325E+02  0.58787117254E+02  0.92562553497E+02  0.00000000000E+00 0.  1.
         11    1    1    2    0    0  0.19679986905E+03  0.19252938087E+03  0.68874174239E+02  0.28379817271E+03  0.00000000000E+00 0. -1.
</event>
<event>
 7    1  0.2719869E-009  0.1077188E+03  0.7561462E-02  0.1264853E+00
         -1   -1    0    0    0  501 -0.00000000000E+00  0.00000000000E+00  0.13459821947E+02  0.13459821947E+02  0.00000000000E+00 0.  1.
          1   -1    0    0  501    0  0.00000000000E+00 -0.00000000000E+00 -0.92683649553E+03  0.92683649553E+03  0.00000000000E+00 0. -1.
         25    2    1    2    0    0  0.29857277141E+00 -0.27115272639E+02 -0.51309507365E+03  0.52881936090E+03  0.12509210488E+03 0.  0.
          5    1    3    3  502    0  0.19991972351E+02 -0.70327552070E+02 -0.38998700449E+03  0.39680345211E+03  0.41800000000E+01 0.  1.
         -5    1    3    3    0  502 -0.19693399580E+02  0.43212279431E+02 -0.12310806917E+03  0.13201590879E+03  0.41800000000E+01 0.  1.
        -11    1    1    2    0    0  0.35385413829E+02  0.42817173690E+02 -0.20845669542E+03  0.21573046085E+03  0.00000000000E+00 0. -1.
         11    1    1    2    0    0 -0.35683986601E+02 -0.15701901051E+02 -0.19182490451E+03  0.19574649572E+03  0.00000000000E+00 0.  1.
</event>
<event>
 7    1  0.2719869E-009  0.1207537E+03  0.7561462E-02  0.1241859E+00
         -2   -1    0    0    0  501 -0.00000000000E+00  0.00000000000E+00  0.16158670394E+02  0.16158670394E+02  0.00000000000E+00 0.  1.
          2   -1    0    0  501    0  0.00000000000E+00 -0.00000000000E+00 -0.95914228884E+03  0.95914228884E+03  0.00000000000E+00 0. -1.
         25    2    1    2    0    0 -0.10190147017E+02 -0.60908586662E+02 -0.50891110616E+03  0.52768526586E+03  0.12509009076E+03 0.  0.
          5    1    3    3  502    0  0.20242861831E+02  0.33950404607E+02 -0.15130101270E+03  0.15643488189E+03  0.41800000000E+01 0. -1.
         -5    1    3    3    0  502 -0.30433008848E+02 -0.94858991269E+02 -0.35761009345E+03  0.37125038396E+03  0.41800000000E+01 0. -1.
        -11    1    1    2    0    0  0.37683943906E+02  0.28261667032E+01 -0.90297663452E+02  0.97886336490E+02  0.00000000000E+00 0.  1.
         11    1    1    2    0    0 -0.27493796890E+02  0.58082419959E+02 -0.34377484884E+03  0.34972935689E+03  0.00000000000E+00 0. -1.
</event>
<event>
 7    1  0.2719869E-009  0.9995711E+02  0.7561462E-02  0.1280386E+00
          2   -1    0    0  501    0  0.00000000000E+00  0.00000000000E+00  0.49364783949E+02  0.49364783949E+02  0.00000000000E+00 0. -1.
         -2   -1    0    0    0  501 -0.00000000000E+00 -0.00000000000E+00 -0.58276953190E+03  0.58276953190E+03  0.00000000000E+00 0.  1.
         25    2    1    2    0    0 -0.72223223535E+02 -0.54429791026E+02 -0.46197823432E+03  0.48708346508E+03  0.12509043449E+03 0.  0.
          5    1    3    3  502    0 -0.55237811159E+02 -0.66701996713E+02 -0.14190341029E+03  0.16629618877E+03  0.41800000000E+01 0. -1.
         -5    1    3    3    0  502 -0.16985412377E+02  0.12272205687E+02 -0.32007482403E+03  0.32078727631E+03  0.41800000000E+01 0. -1.
        -11    1    1    2    0    0  0.10692951583E+02  0.16169086760E+02  0.20359933582E+02  0.28112372288E+02  0.00000000000E+00 0. -1.
         11    1    1    2    0    0  0.61530271952E+02  0.38260704265E+02 -0.91786447211E+02  0.11693847848E+03  0.00000000000E+00 0.  1.
</event>
<event>
 7    1  0.2719869E-009  0.2017075E+03  0.7561462E-02  0.1148306E+00
         -2   -1    0    0    0  501 -0.00000000000E+00  0.00000000000E+00  0.61174984105E+02  0.61174984105E+02  0.00000000000E+00 0.  1.
          2   -1    0    0  501    0  0.00000000000E+00 -0.00000000000E+00 -0.82384804796E+03  0.82384804796E+03  0.00000000000E+00 0. -1.
         25    2    1    2    0    0 -0.19506578902E+03  0.22477049608E+02 -0.35537339547E+03  0.42484537399E+03  0.12508981489E+03 0.  0.
          5    1    3    3  502    0 -0.89269747688E+02  0.36572843911E+02 -0.27414905910E+03  0.29065759885E+03  0.41800000000E+01 0.  1.
         -5    1    3    3    0  502 -0.10579604133E+03 -0.14095794303E+02 -0.81224336364E+02  0.13418777514E+03  0.41800000000E+01 0.  1.
        -11    1    1    2    0    0  0.16193903914E+03 -0.37402047439E+01 -0.24666751223E+03  0.29509846342E+03  0.00000000000E+00 0.  1.
         11    1    1    2    0    0  0.33126749883E+02 -0.18736844864E+02 -0.16063215616E+03  0.16507919465E+03  0.00000000000E+00 0. -1.
</event>
<event>
 7    1  0.2719869E-009  0.1417919E+03  0.7561462E-02  0.1210938E+00
         -2   -1    0    0    0  501 -0.00000000000E+00  0.00000000000E+00  0.18597859048E+03  0.18597859048E+03  0.00000000000E+00 0.  1.
          2   -1    0    0  501    0  0.00000000000E+00 -0.00000000000E+00 -0.11230775590E+03  0.11230775590E+03  0.00000000000E+00 0. -1.
         25    2    1    2    0    0  0.85296826957E+02  0.56746897206E+02  0.24242315403E+02  0.16349865368E+03  0.12509340857E+03 0.  0.
          5    1    3    3  502    0  0.58352028315E+02 -0.32761523454E+02  0.87745937752E+00  0.67056088184E+02  0.41800000000E+01 0.  1.
         -5    1    3    3    0  502  0.26944798642E+02  0.89508420660E+02  0.23364856025E+02  0.96442565499E+02  0.41800000000E+01 0.  1.
        -11    1    1    2    0    0 -0.16724410505E+02  0.15892227428E+02 -0.57555824727E+00  0.23078129618E+02  0.00000000000E+00 0.  1.
         11    1    1    2    0    0 -0.68572416452E+02 -0.72639124634E+02  0.50004077420E+02  0.11170956308E+03  0.00000000000E+00 0. -1.
</event>
<event>
 7    1  0.2719869E-009  0.9916740E+02  0.7561462E-02  0.1282057E+00
         -2   -1    0    0    0  501 -0.00000000000E+00  0.00000000000E+00  0.21600219018E+02  0.21600219018E+02  0.00000000000E+00 0.  1.
          2   -1    0    0  501    0  0.00000000000E+00 -0.00000000000E+00 -0.62329452816E+03  0.62329452816E+03  0.00000000000E+00 0. -1.
         25    2    1    2    0    0  0.46258008892E+01 -0.41597162092E+02 -0.34370657165E+03  0.36814768306E+03  0.12508711854E+03 0.  0.
          5    1    3    3  502    0  0.43996731877E+02  0.10772682972E+01 -0.42348467442E+02  0.61218771774E+02  0.41800000000E+01 0. -1.
         -5    1    3    3    0  502 -0.39370930988E+02 -0.42674430390E+02 -0.30135810420E+03  0.30692891129E+03  0.41800000000E+01 0. -1.
        -11    1    1    2    0    0 -0.87603373298E+01 -0.26387899267E+02 -0.42807033350E+02  0.51044165603E+02  0.00000000000E+00 0.  1.
         11    1    1    2    0    0  0.41345364406E+01  0.67985061359E+02 -0.21518070415E+03  0.22570289852E+03  0.00000000000E+00 0. -1.
</event>
<event>
 7    1  0.2719869E-009  0.1055908E+03  0.7561462E-02  0.1268960E+00
          2   -1    0    0  501    0  0.00000000000E+00  0.00000000000E+00  0.97917534800E+03  0.97917534800E+03  0.00000000000E+00 0. -1.
         -2   -1    0    0    0  501 -0.00000000000E+00 -0.00000000000E+00 -0.17733376613E+02  0.17733376613E+02  0.00000000000E+00 0.  1.
         25    2    1    2    0    0  0.28078026776E+02  0.22812756746E+02  0.78310043384E+03  0.79385336520E+03  0.12509227996E+03 0.  0.
          5    1    3    3  502    0 -0.43176809378E+02 -0.14717408094E+02  0.19849042239E+03  0.20370753337E+03  0.41800000000E+01 0. -1.
         -5    1    3    3    0  502  0.71254836154E+02  0.37530164839E+02  0.58461001145E+03  0.59014583184E+03  0.41800000000E+01 0. -1.
        -11    1    1    2    0    0 -0.54662436641E+02 -0.19025231033E+02  0.67075918687E+02  0.88595260952E+02  0.00000000000E+00 0. -1.
         11    1    1    2    0    0  0.26584409865E+02 -0.37875257121E+01  0.11126561886E+03  0.11446009846E+03  0.00000000000E+00 0.  1.
</event>
<event>
 7    1  0.2719869E-009  0.9264453E+02  0.7561462E-02  0.1296571E+00
         -2   -1    0    0    0  501 -0.00000000000E+00  0.00000000000E+00  0.41517083572E+03  0.41517083572E+03  0.00000000000E+00 0.  1.
          2   -1    0    0  501    0  0.00000000000E+00 -0.00000000000E+00 -0.33079099437E+02  0.33079099437E+02  0.00000000000E+00 0. -1.
         25    2    1    2    0    0 -0.43100594480E+02  0.84443626343E+01  0.21620719022E+03  0.25361862198E+03  0.12509151773E+03 0.  0.
          5    1    3    3  502    0 -0.67874581371E+02  0.40578622419E+02  0.18807867330E+03  0.20407019171E+03  0.41800000000E+01 0.  1.
         -5    1    3    3    0  502  0.24773986891E+02 -0.32134259785E+02  0.28128516915E+02  0.49548430270E+02  0.41800000000E+01 0.  1.
        -11    1    1    2    0    0  0.19515083865E+02 -0.28369555331E+02  0.10196912387E+02  0.35911658137E+02  0.00000000000E+00 0. -1.
         11    1    1    2    0    0  0.23585510616E+02  0.19925192697E+02  0.15568763368E+03  0.15871965504E+03  0.00000000000E+00 0.  1.
</event>
<event>
 7    1  0.2719869E-009  0.9428506E+02  0.7561462E-02  0.1292794E+00
          2   -1    0    0  501    0  0.00000000000E+00  0.00000000000E+00  0.13686409092E+03  0.13686409092E+03  0.00000000000E+00 0.  1.
         -2   -1    0    0    0  501 -0.00000000000E+00 -0.00000000000E+00 -0.10445597868E+03  0.10445597868E+03  0.00000000000E+00 0. -1.
         25    2    1    2    0    0 -0.26782374194E+02  0.28785757990E+02 -0.16519175811E+02  0.13211573075E+03  0.12504306343E+03 0.  0.
          5    1    3    3  502    0  0.48431310785E+02  0.26718068849E+02 -0.29715627091E+01  0.55549524321E+02  0.41800000000E+01 0. -1.
         -5    1    3    3    0  502 -0.75213684979E+02  0.20676891406E+01 -0.13547613102E+02  0.76566206431E+02  0.41800000000E+01 0. -1.
        -11    1    1    2    0    0  0.11544904298E+02 -0.38149009578E+02 -0.15178973045E+02  0.42650122740E+02  0.00000000000E+00 0. -1.
         11    1    1    2    0    0  0.15237469897E+02  0.93632515886E+01  0.64106261101E+02  0.66554216107E+02  0.00000000000E+00 0.  1.
</event>
<event>
 7    1  0.2719869E-009  0.7385322E+02  0.7561462E-02  0.1347459E+00
          1   -1    0    0  501    0  0.00000000000E+00  0.00000000000E+00  0.98755187064E+02  0.98755187064E+02  0.00000000000E+00 0. -1.
         -1   -1    0    0    0  501 -0.00000000000E+00 -0.00000000000E+00 -0.15540962175E+03  0.15540962175E+03  0.00000000000E+00 0.  1.
         25    2    1    2    0    0 -0.53258906538E+02 -0.20261927434E+02 -0.11713712842E+02  0.13795010934E+03  0.12508383097E+03 0.  0.
          5    1    3    3  502    0 -0.45173581402E+02 -0.21459788104E+02 -0.65988523002E+02  0.82904357727E+02  0.41800000000E+01 0.  1.
         -5    1    3    3    0  502 -0.80853251361E+01  0.11978606692E+01  0.54274810160E+02  0.55045751613E+02  0.41800000000E+01 0.  1.
        -11    1    1    2    0    0 -0.16360821297E+02  0.35092053952E+01  0.15273559765E+02  0.22655520827E+02  0.00000000000E+00 0. -1.
         11    1    1    2    0    0  0.69619727836E+02  0.16752722039E+02 -0.60214281614E+02  0.93559178651E+02  0.00000000000E+00 0.  1.
</event>
<event>
 7    1  0.2719869E-009  0.1604416E+03  0.7561462E-02  0.1188199E+00
         -4   -1    0    0    0  501 -0.00000000000E+00  0.00000000000E+00  0.10447797257E+04  0.10447797257E+04  0.00000000000E+00 0.  1.
          4   -1    0    0  501    0  0.00000000000E+00 -0.00000000000E+00 -0.27218873678E+02  0.27218873678E+02  0.00000000000E+00 0. -1.
         25    2    1    2    0    0  0.11937863902E+03  0.24359356341E+02  0.41559565565E+03  0.45078955185E+03  0.12508730298E+03 0.  0.
          5    1    3    3  502    0 -0.22672818428E+02  0.11297912699E+02  0.29203133855E+02  0.38884379303E+02  0.41800000000E+01 0.  1.
         -5    1    3    3    0  502  0.14205145744E+03  0.13061443642E+02  0.38639252179E+03  0.41190517255E+03  0.41800000000E+01 0.  1.
        -11    1    1    2    0    0  0.14814409213E+02 -0.92283498645E+01  0.49804282561E+02  0.52774006130E+02  0.00000000000E+00 0.  1.
         11    1    1    2    0    0 -0.13419304823E+03 -0.15131006476E+02  0.55216091385E+03  0.56843504144E+03  0.00000000000E+00 0. -1.
</event>
<event>
 7    1  0.2719869E-009  0.1080972E+03  0.7561462E-02  0.1264135E+00
         -1   -1    0    0    0  501 -0.00000000000E+00  0.00000000000E+00  0.17214496145E+02  0.17214496145E+02  0.00000000000E+00 0.  1.
          1   -1    0    0  501    0  0.00000000000E+00 -0.00000000000E+00 -0.84658894663E+03  0.84658894663E+03  0.00000000000E+00 0. -1.
         25    2    1    2    0    0  0.33004589438E+02 -0.36922996839E+02 -0.53147694588E+03  0.54824190049E+03  0.12509527103E+03 0.  0.
          5    1    3    3  502    0  0.45487770791E+02 -0.67122320966E+02 -0.21109332045E+03  0.22616897577E+03  0.41800000000E+01 0.  1.
         -5    1    3    3    0  502 -0.12483181353E+02  0.30199324127E+02 -0.32038362543E+03  0.32207292472E+03  0.41800000000E+01 0.  1.
        -11    1    1    2    0    0  0.89010517062E+01  0.55508164883E+02 -0.13259353907E+03  0.14401885881E+03  0.00000000000E+00 0. -1.
         11    1    1    2    0    0 -0.41905641144E+02 -0.18585168044E+02 -0.16530396554E+03  0.17154268348E+03  0.00000000000E+00 0.  1.
</event>
<event>
 7    1  0.2719869E-009  0.1052994E+03  0.7561462E-02  0.1269531E+00
         -1   -1    0    0    0  501 -0.00000000000E+00  0.00000000000E+00  0.24745446028E+02  0.24745446028E+02  0.00000000000E+00 0.  1.
          1   -1    0    0  501    0  0.00000000000E+00 -0.00000000000E+00 -0.66753527559E+03  0.66753527559E+03  0.00000000000E+00 0. -1.
         25    2    1    2    0    0  0.14854420939E+02  0.21859827503E+02 -0.18089563030E+03  0.22151778659E+03  0.12509354434E+03 0.  0.
          5    1    3    3  502    0  0.65961452103E+02  0.17877250788E+02 -0.13986356582E+03  0.15572346870E+03  0.41800000000E+01 0. -1.
         -5    1    3    3    0  502 -0.51107031163E+02  0.39825767152E+01 -0.41032064476E+02  0.65794317891E+02  0.41800000000E+01 0. -1.
        -11    1    1    2    0    0 -0.27220336685E+01 -0.55175099241E+02 -0.26403466691E+03  0.26975174952E+03  0.00000000000E+00 0.  1.
         11    1    1    2    0    0 -0.12132387271E+02  0.33315271738E+02 -0.19785953236E+03  0.20101118551E+03  0.00000000000E+00 0. -1.
</event>
<event>
 7    1  0.2719869E-009  0.1088686E+03  0.7561462E-02  0.1262680E+00
         -1   -1    0    0    0  501 -0.00000000000E+00  0.00000000000E+00  0.11229581699E+03  0.11229581699E+03  0.00000000000E+00 0.  1.
          1   -1    0    0  501    0  0.00000000000E+00 -0.00000000000E+00 -0.17522527939E+03  0.17522527939E+03  0.00000000000E+00 0. -1.
         25    2    1    2    0    0  0.22403530541E+02  0.30824473551E+02 -0.11583051007E+03  0.17468455319E+03  0.12508365085E+03 0.  0.
          5    1    3    3  502    0  0.20644471491E+02  0.77719623540E+02 -0.54017203439E+02  0.96963213405E+02  0.41800000000E+01 0. -1.
         -5    1    3    3    0  502  0.17590590504E+01 -0.46895149989E+02 -0.61813306634E+02  0.77721339787E+02  0.41800000000E+01 0. -1.
        -11    1    1    2    0    0 -0.50531693189E+02 -0.31338142350E+01  0.51591434192E+01  0.50890957635E+02  0.00000000000E+00 0. -1.
         11    1    1    2    0    0  0.28128162648E+02 -0.27690659316E+02  0.47741904254E+02  0.61945585550E+02  0.00000000000E+00 0.  1.
</event>
<event>
 7    1  0.2835347E-009  0.9910756E+02  0.7561462E-02  0.1282184E+00
          2   -1    0    0  501    0  0.00000000000E+00  0.00000000000E+00  0.11417072442E+03  0.11417072442E+03  0.00000000000E+00 0. -1.
         -2   -1    0    0    0  501 -0.00000000000E+00 -0.00000000000E+00 -0.13986667888E+03  0.13986667888E+03  0.00000000000E+00 0.  1.
         25    2    1    2    0    0 -0.30508599417E+02  0.54753404111E+02 -0.33001583195E+02  0.14375519088E+03  0.12509092897E+03 0.  0.
          5    1    3    3  502    0 -0.76523580248E+02  0.25150867321E+02 -0.19030548937E+01  0.80681586988E+02  0.41800000000E+01 0.  1.
         -5    1    3    3    0  502  0.46014980831E+02  0.29602536790E+02 -0.31098528301E+02  0.63073603891E+02  0.41800000000E+01 0.  1.
        -11    1    1    2    0    0  0.23019637513E+02 -0.40813157853E+02 -0.39241415179E+02  0.61118787867E+02  0.00000000000E+00 0.  1.
         11    1    1    2    0    0  0.74889619042E+01 -0.13940246258E+02  0.46547043916E+02  0.49163424550E+02  0.00000000000E+00 0. -1.
</event>
<event>
 7    1  0.2719869E-009  0.8508908E+02  0.7561462E-02  0.1315200E+00
         -1   -1    0    0    0  501 -0.00000000000E+00  0.00000000000E+00  0.94636701105E+02  0.94636701105E+02  0.00000000000E+00 0.  1.
          1   -1    0    0  501    0  0.00000000000E+00 -0.00000000000E+00 -0.12792713852E+03  0.12792713852E+03  0.00000000000E+00 0. -1.
         25    2    1    2    0    0 -0.10045931671E+02 -0.15589326651E+02 -0.16468444061E+02  0.12752352074E+03  0.12508833217E+03 0.  0.
          5    1    3    3  502    0 -0.48975014446E+02 -0.23539786967E+02 -0.51057086506E+02  0.74679127558E+02  0.41800000000E+01 0.  1.
         -5    1    3    3    0  502  0.38929082775E+02  0.79504603159E+01  0.34588642445E+02  0.52844393185E+02  0.41800000000E+01 0.  1.
        -11    1    1    2    0    0  0.41403782939E+02  0.15943293811E+02  0.18266363488E+02  0.47980432410E+02  0.00000000000E+00 0.  1.
         11    1    1    2    0    0 -0.31357851268E+02 -0.35396715983E+00 -0.35088356837E+02  0.47059886469E+02  0.00000000000E+00 0. -1.
</event>
<event>
 7    1  0.2719869E-009  0.1211598E+03  0.7561462E-02  0.1241196E+00
          2   -1    0    0  501    0  0.00000000000E+00  0.00000000000E+00  0.44541588525E+02  0.44541588525E+02  0.00000000000E+00 0. -1.
         -2   -1    0    0    0  501 -0.00000000000E+00 -0.00000000000E+00 -0.34065722494E+03  0.34065722494E+03  0.00000000000E+00 0.  1.
         25    2    1    2    0    0  0.39446405204E+02 -0.44601765477E+02 -0.16653988018E+03  0.21662888060E+03  0.12508878389E+03 0.  0.
          5    1    3    3  502    0  0.82035654309E+02 -0.12218497509E+02 -0.11782477528E+03  0.14415023527E+03  0.41800000000E+01 0. -1.
         -5    1    3    3    0  502 -0.42589249105E+02 -0.32383267967E+02 -0.48715104897E+02  0.72478645329E+02  0.41800000000E+01 0. -1.
        -11    1    1    2    0    0 -0.54553877624E+02  0.61988131487E+02 -0.11400105013E+03  0.14076538438E+03  0.00000000000E+00 0.  1.
         11    1    1    2    0    0  0.15107472421E+02 -0.17386366010E+02 -0.15574706109E+02  0.27804548483E+02  0.00000000000E+00 0. -1.
</event>
<event>
 7    1  0.2719869E-009  0.1433158E+03  0.7561462E-02  0.1208936E+00
          2   -1    0    0  501    0  0.00000000000E+00  0.00000000000E+00  0.21276876074E+02  0.21276876074E+02  0.00000000000E+00 0. -1.
         -2   -1    0    0    0  501 -0.00000000000E+00 -0.00000000000E+00 -0.10513072559E+04  0.10513072559E+04  0.00000000000E+00 0.  1.
         25    2    1    2    0    0  0.86439293165E+02  0.53905724576E+02 -0.52228499200E+03  0.54663298756E+03  0.12509369158E+03 0.  0.
          5    1    3    3  502    0 -0.12432946496E+02 -0.26655024143E+02 -0.58464231004E+02  0.65579014765E+02  0.41800000000E+01 0.  1.
         -5    1    3    3    0  502  0.98872239661E+02  0.80560748719E+02 -0.46382076100E+03  0.48105397280E+03  0.41800000000E+01 0.  1.
        -11    1    1    2    0    0 -0.23950110425E+02 -0.61850929531E+02 -0.34742541838E+03  0.35369982557E+03  0.00000000000E+00 0.  1.
         11    1    1    2    0    0 -0.62489182739E+02  0.79452049550E+01 -0.16031996948E+03  0.17225131888E+03  0.00000000000E+00 0. -1.
</event>
<event>
 7    1  0.2719869E-009  0.1184706E+03  0.7561462E-02  0.1245642E+00
          2   -1    0    0  501    0  0.00000000000E+00  0.00000000000E+00  0.62560723104E+02  0.62560723104E+02  0.00000000000E+00 0.  1.
         -2   -1    0    0    0  501 -0.00000000000E+00 -0.00000000000E+00 -0.25581411065E+03  0.25581411065E+03  0.00000000000E+00 0. -1.
         25    2    1    2    0    0 -0.65159138363E+02  0.87972291449E+01 -0.10811767159E+03  0.17792769256E+03  0.12508288579E+03 0.  0.
          5    1    3    3  502    0 -0.83113999243E+02  0.37425657228E+02 -0.35845092208E+02  0.98035502368E+02  0.41800000000E+01 0. -1.
         -5    1    3    3    0  502  0.17954860880E+02 -0.28628428083E+02 -0.72272579377E+02  0.79892190192E+02  0.41800000000E+01 0. -1.
        -11    1    1    2    0    0 -0.20499762887E+02  0.11648368977E+02 -0.19863979970E+02  0.30830220215E+02  0.00000000000E+00 0.  1.
         11    1    1    2    0    0  0.85658901250E+02 -0.20445598121E+02 -0.65271735989E+02  0.10961692098E+03  0.00000000000E+00 0. -1.
</event>
<event>
 7    1  0.2719869E-009  0.1704211E+03  0.7561462E-02  0.1177409E+00
         -2   -1    0    0    0  501 -0.00000000000E+00  0.00000000000E+00  0.14329356384E+03  0.14329356384E+03  0.00000000000E+00 0. -1.
          2   -1    0    0  501    0  0.00000000000E+00 -0.00000000000E+00 -0.22855823558E+03  0.22855823558E+03  0.00000000000E+00 0.  1.
         25    2    1    2    0    0  0.22047318123E+02 -0.13093199637E+03  0.11396512783E+02  0.18277522867E+03  0.12509049445E+03 0.  0.
          5    1    3    3  502    0 -0.24970061163E+02 -0.12864107550E+03 -0.87528926113E+01  0.13140059280E+03  0.41800000000E+01 0. -1.
         -5    1    3    3    0  502  0.47017379285E+02 -0.22909208784E+01  0.20149405394E+02  0.51374635873E+02  0.41800000000E+01 0. -1.
        -11    1    1    2    0    0  0.36336682908E+02  0.36867863686E+02 -0.32376575903E+02  0.61056011700E+02  0.00000000000E+00 0.  1.
         11    1    1    2    0    0 -0.58384001030E+02  0.94064132688E+02 -0.64284608616E+02  0.12802055905E+03  0.00000000000E+00 0. -1.
</event>
<event>
 7    1  0.2719869E-009  0.1327655E+03  0.7561462E-02  0.1223409E+00
          1   -1    0    0  501    0  0.00000000000E+00  0.00000000000E+00  0.11137667120E+03  0.11137667120E+03  0.00000000000E+00 0. -1.
         -1   -1    0    0    0  501 -0.00000000000E+00 -0.00000000000E+00 -0.18906161177E+03  0.18906161177E+03  0.00000000000E+00 0.  1.
         25    2    1    2    0    0  0.50703257241E+02 -0.80051528200E+02 -0.21533934639E+02  0.15840247133E+03  0.12509422496E+03 0.  0.
          5    1    3    3  502    0  0.81577546566E+02 -0.54762953577E+02 -0.48902122145E+02  0.10983062933E+03  0.41800000000E+01 0. -1.
         -5    1    3    3    0  502 -0.30874289325E+02 -0.25288574623E+02  0.27368187506E+02  0.48571841999E+02  0.41800000000E+01 0. -1.
        -11    1    1    2    0    0 -0.45400777527E+02 -0.14138672770E+01 -0.35971038343E+02  0.57940876937E+02  0.00000000000E+00 0. -1.
         11    1    1    2    0    0 -0.53024797142E+01  0.81465395477E+02 -0.20179967585E+02  0.84094934705E+02  0.00000000000E+00 0.  1.
</event>
<event>
 7    1  0.2719869E-009  0.1215261E+03  0.7561462E-02  0.1240600E+00
         -2   -1    0    0    0  501 -0.00000000000E+00  0.00000000000E+00  0.46800563006E+02  0.46800563006E+02  0.00000000000E+00 0.  1.
          2   -1    0    0  501    0  0.00000000000E+00 -0.00000000000E+00 -0.39360020756E+03  0.39360020756E+03  0.00000000000E+00 0. -1.
         25    2    1    2    0    0 -0.35506677421E+02 -0.80977765129E+02 -0.18316660193E+03  0.23878027440E+03  0.12509153765E+03 0.  0.
          5    1    3    3  502    0 -0.31254055172E+02  0.11525608685E+02 -0.88317212802E-01  0.33572843493E+02  0.41800000000E+01 0.  1.
         -5    1    3    3    0  502 -0.42526222486E+01 -0.92503373814E+02 -0.18307828472E+03  0.20520743090E+03  0.41800000000E+01 0.  1.
        -11    1    1    2    0    0  0.16461391177E+02 -0.12950159702E+02 -0.40400340443E+02  0.45506829638E+02  0.00000000000E+00 0.  1.
         11    1    1    2    0    0  0.19045286244E+02  0.93927924830E+02 -0.12323270218E+03  0.15611366653E+03  0.00000000000E+00 0. -1.
</event>
<event>
 7    1  0.2719869E-009  0.1282636E+03  0.7561462E-02  0.1230055E+00
          1   -1    0    0  501    0  0.00000000000E+00  0.00000000000E+00  0.63109071314E+03  0.63109071314E+03  0.00000000000E+00 0. -1.
         -1   -1    0    0    0  501 -0.00000000000E+00 -0.00000000000E+00 -0.76934125745E+02  0.76934125745E+02  0.00000000000E+00 0.  1.
         25    2    1    2    0    0 -0.79614935054E+02  0.37379508973E+02  0.55749370808E+03  0.57808516454E+03  0.12508979712E+03 0.  0.
          5    1    3    3  502    0  0.30646454679E+02  0.21931455679E+02  0.20244634778E+03  0.20596647801E+03  0.41800000000E+01 0.  1.
         -5    1    3    3    0  502 -0.11026138973E+03  0.15448053293E+02  0.35504736029E+03  0.37211868653E+03  0.41800000000E+01 0.  1.
        -11    1    1    2    0    0  0.50559984800E+02 -0.53792393585E+02  0.32773134889E+02  0.80771356563E+02  0.00000000000E+00 0. -1.
         11    1    1    2    0    0  0.29054950254E+02  0.16412884613E+02 -0.36110255572E+02  0.49168317778E+02  0.00000000000E+00 0.  1.
</event>
<event>
 7    1  0.2719869E-009  0.9931397E+02  0.7561462E-02  0.1281745E+00
          2   -1    0    0  501    0  0.00000000000E+00  0.00000000000E+00  0.43413601241E+03  0.43413601241E+03  0.00000000000E+00 0.  1.
         -2   -1    0    0    0  501 -0.00000000000E+00 -0.00000000000E+00 -0.27418591418E+02  0.27418591418E+02  0.00000000000E+00 0. -1.
         25    2    1    2    0    0 -0.11382591930E+02  0.76440384945E+01  0.22586583646E+03  0.25855515562E+03  0.12508955869E+03 0.  0.
          5    1    3    3  502    0 -0.26677552612E+02 -0.44631223821E+02  0.42685453765E+02  0.67402954803E+02  0.41800000000E+01 0.  1.
         -5    1    3    3    0  502  0.15294960682E+02  0.52275262315E+02  0.18318038270E+03  0.19115220082E+03  0.41800000000E+01 0.  1.
        -11    1    1    2    0    0 -0.34999758864E+02 -0.24240489516E+02  0.92913982572E+02  0.10220368198E+03  0.00000000000E+00 0.  1.
         11    1    1    2    0    0  0.46382350794E+02  0.16596451022E+02  0.87937601960E+02  0.10079576623E+03  0.00000000000E+00 0. -1.
</event>
<event>
 7    1  0.2719869E-009  0.7866555E+02  0.7561462E-02  0.1332882E+00
         -1   -1    0    0    0  501 -0.00000000000E+00  0.00000000000E+00  0.60270090027E+03  0.60270090027E+03  0.00000000000E+00 0.  1.
          1   -1    0    0  501    0  0.00000000000E+00 -0.00000000000E+00 -0.26595704861E+02  0.26595704861E+02  0.00000000000E+00 0. -1.
         25    2    1    2    0    0  0.18840844081E+02  0.43393512921E+02  0.42813054587E+03  0.44853124289E+03  0.12508611904E+03 0.  0.
          5    1    3    3  502    0 -0.44407674258E+01 -0.41949745137E+01 -0.69879374170E+01  0.10179484066E+02  0.41800000000E+01 0.  1.
         -5    1    3    3    0  502  0.23281611507E+02  0.47588487434E+02  0.43511848328E+03  0.43835175883E+03  0.41800000000E+01 0.  1.
        -11    1    1    2    0    0  0.33732023495E+02 -0.13706526294E+02  0.89896057933E+02  0.96989790721E+02  0.00000000000E+00 0. -1.
         11    1    1    2    0    0 -0.52572867575E+02 -0.29686986626E+02  0.58078591609E+02  0.83775571519E+02  0.00000000000E+00 0.  1.
</event>
<event>
 7    1  0.2719869E-009  0.1202388E+03  0.7561462E-02  0.1242704E+00
          1   -1    0    0  501    0  0.00000000000E+00  0.00000000000E+00  0.72791023295E+03  0.72791023295E+03  0.00000000000E+00 0. -1.
         -1   -1    0    0    0  501 -0.00000000000E+00 -0.00000000000E+00 -0.30501109224E+02  0.30501109224E+02  0.00000000000E+00 0.  1.
         25    2    1    2    0    0 -0.98690167206E+02 -0.74501327438E+01  0.32377658324E+03  0.36093583836E+03  0.12509256564E+03 0.  0.
          5    1    3    3  502    0 -0.45304683186E+02 -0.34090197733E+02  0.28274670171E+03  0.28840566157E+03  0.41800000000E+01 0.  1.
         -5    1    3    3    0  502 -0.53385484019E+02  0.26640064990E+02  0.41029881531E+02  0.72530176789E+02  0.41800000000E+01 0.  1.
        -11    1    1    2    0    0  0.58495467521E+02 -0.32690654360E+02  0.11887215344E+03  0.13645873906E+03  0.00000000000E+00 0.  1.
         11    1    1    2    0    0  0.40194699685E+02  0.40140787104E+02  0.25476038704E+03  0.26101676475E+03  0.00000000000E+00 0. -1.
</event>
<event>
 7    1  0.2719869E-009  0.2157266E+03  0.7561462E-02  0.1137110E+00
          2   -1    0    0  501    0  0.00000000000E+00  0.00000000000E+00  0.93975209094E+02  0.93975209094E+02  0.00000000000E+00 0. -1.
         -2   -1    0    0    0  501 -0.00000000000E+00 -0.00000000000E+00 -0.54407242812E+03  0.54407242812E+03  0.00000000000E+00 0.  1.
         25    2    1    2    0    0 -0.17646069719E+03  0.85759692715E+02 -0.27212751573E+03  0.35804179214E+03  0.12508971802E+03 0.  0.
          5    1    3    3  502    0 -0.36457926397E+01 -0.26093945348E+02 -0.27848590907E+02  0.38564260699E+02  0.41800000000E+01 0. -1.
         -5    1    3    3    0  502 -0.17281490455E+03  0.11185363806E+03 -0.24427892482E+03  0.31947753144E+03  0.41800000000E+01 0. -1.
        -11    1    1    2    0    0  0.13360582535E+03 -0.48643127474E+02 -0.17175597349E+03  0.22297261008E+03  0.00000000000E+00 0.  1.
         11    1    1    2    0    0  0.42854871843E+02 -0.37116565240E+02 -0.62137298101E+01  0.57033234996E+02  0.00000000000E+00 0. -1.
</event>
<event>
 7    1  0.2719869E-009  0.1116534E+03  0.7561462E-02  0.1257538E+00
         -1   -1    0    0    0  501 -0.00000000000E+00  0.00000000000E+00  0.51875422591E+02  0.51875422591E+02  0.00000000000E+00 0.  1.
          1   -1    0    0  501    0  0.00000000000E+00 -0.00000000000E+00 -0.32584827690E+03  0.32584827690E+03  0.00000000000E+00 0. -1.
         25    2    1    2    0    0  0.56091963325E+02  0.37343311666E+02 -0.19227943224E+03  0.23908244985E+03  0.12509279150E+03 0.  0.
          5    1    3    3  502    0 -0.29498392561E+02  0.44923778790E+02 -0.54527233974E+02  0.76674589724E+02  0.41800000000E+01 0. -1.
         -5    1    3    3    0  502  0.85590355886E+02 -0.75804671239E+01 -0.13775219827E+03  0.16240786013E+03  0.41800000000E+01 0. -1.
        -11    1    1    2    0    0 -0.12700099276E+02 -0.37908104360E+02  0.63538284279E+01  0.40480711869E+02  0.00000000000E+00 0.  1.
         11    1    1    2    0    0 -0.43391864049E+02  0.56479269367E+00 -0.88047250497E+02  0.98160537776E+02  0.00000000000E+00 0. -1.
</event>
<event>
 6    1  0.2719869E-009  0.2591073E+03  0.7561462E-02  0.1107681E+00
         -2   -1    0    0    0  501 -0.00000000000E+00  0.00000000000E+00  0.31785769746E+03  0.31785769746E+03  0.00000000000E+00 0. -1.
          2   -1    0    0  501    0  0.00000000000E+00 -0.00000000000E+00 -0.27276131251E+03  0.27276131251E+03  0.00000000000E+00 0.  1.
          5    1    1    2  502    0 -0.23808906819E+02 -0.48350257874E+02  0.34561477745E+02  0.64160576870E+02  0.41800000000E+01 0. -1.
         -5    1    1    2    0  502  0.15123363866E+03 -0.15982228540E+03  0.11162866087E+03  0.24676548928E+03  0.41800000000E+01 0. -1.
        -11    1    1    2    0    0 -0.16330007546E+02  0.28079286867E+02  0.17734444167E+02  0.37008458591E+02  0.00000000000E+00 0. -1.
         11    1    1    2    0    0 -0.11109472429E+03  0.18009325640E+03 -0.11882819783E+03  0.24268448522E+03  0.00000000000E+00 0.  1.
</event>
<event>
 7    1  0.2719869E-009  0.1444379E+03  0.7561462E-02  0.1207479E+00
         -1   -1    0    0    0  501 -0.00000000000E+00  0.00000000000E+00  0.31418179282E+03  0.31418179282E+03  0.00000000000E+00 0.  1.
          1   -1    0    0  501    0  0.00000000000E+00 -0.00000000000E+00 -0.10571630889E+03  0.10571630889E+03  0.00000000000E+00 0. -1.
         25    2    1    2    0    0 -0.35814831282E+02  0.13554167964E+03  0.15920888252E+03  0.24627123036E+03  0.12509117303E+03 0.  0.
          5    1    3    3  502    0  0.76805205848E+01  0.64969499626E+02  0.14882030886E+03  0.16261913482E+03  0.41800000000E+01 0.  1.
         -5    1    3    3    0  502 -0.43495351867E+02  0.70572180013E+02  0.10388573655E+02  0.83652095541E+02  0.41800000000E+01 0.  1.
        -11    1    1    2    0    0  0.53774772848E+01 -0.13394097602E+02 -0.23981145149E+02  0.27989541532E+02  0.00000000000E+00 0. -1.
         11    1    1    2    0    0  0.30437353997E+02 -0.12214758204E+03  0.73237746556E+02  0.14563732982E+03  0.00000000000E+00 0.  1.
</event>
<event>
 7    1  0.2719869E-009  0.1820780E+03  0.7561462E-02  0.1165807E+00
          2   -1    0    0  501    0  0.00000000000E+00  0.00000000000E+00  0.35621612023E+03  0.35621612023E+03  0.00000000000E+00 0. -1.
         -2   -1    0    0    0  501 -0.00000000000E+00 -0.00000000000E+00 -0.99260968266E+02  0.99260968266E+02  0.00000000000E+00 0.  1.
         25    2    1    2    0    0  0.14363980573E+03  0.40119361875E+02  0.17928873678E+03  0.26463630373E+03  0.12508383240E+03 0.  0.
          5    1    3    3  502    0  0.88230218533E+02 -0.36548584304E+02  0.62175070174E+02  0.11403325054E+03  0.41800000000E+01 0. -1.
         -5    1    3    3    0  502  0.55409587201E+02  0.76667946178E+02  0.11711366661E+03  0.15060305319E+03  0.41800000000E+01 0. -1.
        -11    1    1    2    0    0  0.50032445397E+01  0.14637415009E+02  0.31715696350E+01  0.15790669018E+02  0.00000000000E+00 0.  1.
         11    1    1    2    0    0 -0.14864305027E+03 -0.54756776884E+02  0.74494845544E+02  0.17505011574E+03  0.00000000000E+00 0. -1.
</event>
<event>
 7    1  0.2719869E-009  0.6705927E+02  0.7561462E-02  0.1370389E+00
          1   -1    0    0  501    0  0.00000000000E+00  0.00000000000E+00  0.21911311663E+03  0.21911311663E+03  0.00000000000E+00 0. -1.
         -1   -1    0    0    0  501 -0.00000000000E+00 -0.00000000000E+00 -0.63617600465E+02  0.63617600465E+02  0.00000000000E+00 0.  1.
         25    2    1    2    0    0  0.99207705636E+01 -0.43143978406E+02  0.11428051601E+03  0.17512040945E+03  0.12508915583E+03 0.  0.
          5    1    3    3  502    0  0.24834355377E+02 -0.21238403947E+02  0.13641716086E+03  0.14033862328E+03  0.41800000000E+01 0. -1.
         -5    1    3    3    0  502 -0.14913584813E+02 -0.21905574459E+02 -0.22136644841E+02  0.34781786170E+02  0.41800000000E+01 0. -1.
        -11    1    1    2    0    0 -0.35209987349E+02  0.23633165564E+02 -0.13286624564E+02  0.44438768164E+02  0.00000000000E+00 0.  1.
         11    1    1    2    0    0  0.25289216785E+02  0.19510812842E+02  0.54501624713E+02  0.63171539476E+02  0.00000000000E+00 0. -1.
</event>
<event>
 7    1  0.2719869E-009  0.1821051E+03  0.7561462E-02  0.1165781E+00
         -2   -1    0    0    0  501 -0.00000000000E+00  0.00000000000E+00  0.18247476261E+03  0.18247476261E+03  0.00000000000E+00 0.  1.
          2   -1    0    0  501    0  0.00000000000E+00 -0.00000000000E+00 -0.24647415367E+03  0.24647415367E+03  0.00000000000E+00 0. -1.
         25    2    1    2    0    0  0.15044422956E+02 -0.16041172420E+03  0.54020874795E+02  0.21101141968E+03  0.12509719581E+03 0.  0.
          5    1    3    3  502    0 -0.19355627276E+02 -0.15967388972E+03  0.19469286534E+02  0.16207071569E+03  0.41800000000E+01 0. -1.
         -5    1    3    3    0  502  0.34400050232E+02 -0.73783447827E+00  0.34551588261E+02  0.48940703990E+02  0.41800000000E+01 0. -1.
        -11    1    1    2    0    0  0.10875271842E+02  0.12095858623E+03 -0.42097315860E+02  0.12853573481E+03  0.00000000000E+00 0.  1.
         11    1    1    2    0    0 -0.25919694798E+02  0.39453137973E+02 -0.75922949996E+02  0.89401761786E+02  0.00000000000E+00 0. -1.
</event>
<event>
 7    1  0.2719869E-009  0.1359320E+03  0.7561462E-02  0.1218910E+00
         -3   -1    0    0    0  501 -0.00000000000E+00  0.00000000000E+00  0.36734355249E+03  0.36734355249E+03  0.00000000000E+00 0.  1.
          3   -1    0    0  501    0  0.00000000000E+00 -0.00000000000E+00 -0.69392439865E+02  0.69392439865E+02  0.00000000000E+00 0. -1.
         25    2    1    2    0    0 -0.11372955022E+03 -0.11492222963E+02  0.19022143488E+03  0.25475145034E+03  0.12509046880E+03 0.  0.
          5    1    3    3  502    0 -0.23703091967E+02  0.38614078579E+02  0.12429596373E+03  0.13236254241E+03  0.41800000000E+01 0.  1.
         -5    1    3    3    0  502 -0.90026458254E+02 -0.50106301542E+02  0.65925471146E+02  0.12238890794E+03  0.41800000000E+01 0.  1.
        -11    1    1    2    0    0  0.78204425131E+02 -0.14097608135E+02  0.17028140216E+02  0.81268888416E+02  0.00000000000E+00 0. -1.
         11    1    1    2    0    0  0.35525125089E+02  0.25589831098E+02  0.90701537536E+02  0.10071565360E+03  0.00000000000E+00 0.  1.
</event>
<event>
 7    1  0.2719869E-009  0.3025284E+03  0.7561462E-02  0.1083983E+00
          2   -1    0    0  501    0  0.00000000000E+00  0.00000000000E+00  0.27950050333E+04  0.27950050333E+04  0.00000000000E+00 0. -1.
         -2   -1    0    0    0  501 -0.00000000000E+00 -0.00000000000E+00 -0.34915994189E+02  0.34915994189E+02  0.00000000000E+00 0.  1.
         25    2    1    2    0    0 -0.28511771485E+03 -0.62903828898E+02  0.13132031565E+04  0.13510734126E+04  0.12509129887E+03 0.  0.
          5    1    3    3  502    0 -0.23463801068E+03 -0.84766580465E+02  0.89088423787E+03  0.92516623744E+03  0.41800000000E+01 0. -1.
         -5    1    3    3    0  502 -0.50479704162E+02  0.21862751566E+02  0.42231891864E+03  0.42590717520E+03  0.41800000000E+01 0. -1.
        -11    1    1    2    0    0  0.52710251475E+02  0.41299468715E+02  0.22034012098E+03  0.23029065470E+03  0.00000000000E+00 0.  1.
         11    1    1    2    0    0  0.23240746337E+03  0.21604360184E+02  0.12265457616E+04  0.12485569602E+04  0.00000000000E+00 0. -1.
</event>
<event>
 7    1  0.2719869E-009  0.1308609E+03  0.7561462E-02  0.1226184E+00
          3   -1    0    0  501    0  0.00000000000E+00  0.00000000000E+00  0.20456407200E+03  0.20456407200E+03  0.00000000000E+00 0. -1.
         -3   -1    0    0    0  501 -0.00000000000E+00 -0.00000000000E+00 -0.13774226975E+03  0.13774226975E+03  0.00000000000E+00 0.  1.
         25    2    1    2    0    0 -0.10626069055E+03  0.23988996168E+02  0.10176015237E+03  0.19459740089E+03  0.12508482533E+03 0.  0.
          5    1    3    3  502    0 -0.12204306934E+03  0.13275506570E+02  0.11714399352E+03  0.16973784924E+03  0.41800000000E+01 0. -1.
         -5    1    3    3    0  502  0.15782378785E+02  0.10713489597E+02 -0.15383841147E+02  0.24859551644E+02  0.41800000000E+01 0. -1.
        -11    1    1    2    0    0  0.45008515768E+02 -0.35139140673E+02  0.24035137924E+02  0.61953317538E+02  0.00000000000E+00 0.  1.
         11    1    1    2    0    0  0.61252174784E+02  0.11150144506E+02 -0.58973488055E+02  0.85755623324E+02  0.00000000000E+00 0. -1.
</event>
<event>
 7    1  0.2719869E-009  0.5180848E+02  0.7561462E-02  0.1435824E+00
         -1   -1    0    0    0  501 -0.00000000000E+00  0.00000000000E+00  0.97415581522E+02  0.97415581522E+02  0.00000000000E+00 0.  1.
          1   -1    0    0  501    0  0.00000000000E+00 -0.00000000000E+00 -0.12633497643E+03  0.12633497643E+03  0.00000000000E+00 0. -1.
         25    2    1    2    0    0 -0.12993972571E+02  0.76987723240E+01  0.90468588424E+01  0.12632409594E+03  0.12509123527E+03 0.  0.
          5    1    3    3  502    0 -0.15886092523E+02  0.85368887606E+01  0.66301812190E+02  0.68837846458E+02  0.41800000000E+01 0. -1.
         -5    1    3    3    0  502  0.28921199526E+01 -0.83811643657E+00 -0.57254953347E+02  0.57486249485E+02  0.41800000000E+01 0. -1.
        -11    1    1    2    0    0 -0.15102558884E+02 -0.36631446484E+02  0.32568230906E+01  0.39756220305E+02  0.00000000000E+00 0. -1.
         11    1    1    2    0    0  0.28096531454E+02  0.28932674160E+02 -0.41223076840E+02  0.57670241702E+02  0.00000000000E+00 0.  1.
</event>
<event>
 7    1  0.2719869E-009  0.7325861E+02  0.7561462E-02  0.1349350E+00
          2   -1    0    0  501    0  0.00000000000E+00  0.00000000000E+00  0.59643262661E+03  0.59643262661E+03  0.00000000000E+00 0.  1.
         -2   -1    0    0    0  501 -0.00000000000E+00 -0.00000000000E+00 -0.24000568243E+02  0.24000568243E+02  0.00000000000E+00 0. -1.
         25    2    1    2    0    0 -0.29274398695E+01 -0.38629762913E+02  0.40593025171E+03  0.42652941499E+03  0.12508854507E+03 0.  0.
          5    1    3    3  502    0 -0.28082957125E+01 -0.41705602554E+02  0.32628303467E+02  0.53191375207E+02  0.41800000000E+01 0. -1.
         -5    1    3    3    0  502 -0.11914415702E+00  0.30758396417E+01  0.37330194824E+03  0.37333803978E+03  0.41800000000E+01 0. -1.
        -11    1    1    2    0    0  0.46482192943E+02  0.28754840867E+02  0.88281202009E+02  0.10383162217E+03  0.00000000000E+00 0. -1.
         11    1    1    2    0    0 -0.43554753074E+02  0.98749220460E+01  0.78220604651E+02  0.90072157700E+02  0.00000000000E+00 0.  1.
</event>
<event>
 7    1  0.2719869E-009  0.1050748E+03  0.7561462E-02  0.1269972E+00
         -1   -1    0    0    0  501 -0.00000000000E+00  0.00000000000E+00  0.28775995473E+02  0.28775995473E+02  0.00000000000E+00 0.  1.
          1   -1    0    0  501    0  0.00000000000E+00 -0.00000000000E+00 -0.54806142637E+03  0.54806142637E+03  0.00000000000E+00 0. -1.
         25    2    1    2    0    0 -0.54847878899E+02  0.28443590355E+02 -0.37479938469E+03  0.39992814187E+03  0.12510240704E+03 0.  0.
          5    1    3    3  502    0  0.16721906551E+02  0.50965389689E+02 -0.85422005924E+02  0.10095288307E+03  0.41800000000E+01 0.  1.
         -5    1    3    3    0  502 -0.71569785449E+02 -0.22521799334E+02 -0.28937737876E+03  0.29897525880E+03  0.41800000000E+01 0.  1.
        -11    1    1    2    0    0  0.15242020850E+02 -0.37582637177E+02 -0.12579538108E+03  0.13217129687E+03  0.00000000000E+00 0. -1.
         11    1    1    2    0    0  0.39605858048E+02  0.91390468225E+01 -0.18690665136E+02  0.44737983099E+02  0.00000000000E+00 0.  1.
</event>
<event>
 7    1  0.2719869E-009  0.1053290E+03  0.7561462E-02  0.1269473E+00
         -1   -1    0    0    0  501 -0.00000000000E+00  0.00000000000E+00  0.75821492931E+03  0.75821492931E+03  0.00000000000E+00 0.  1.
          1   -1    0    0  501    0  0.00000000000E+00 -0.00000000000E+00 -0.23298163834E+02  0.23298163834E+02  0.00000000000E+00 0. -1.
         25    2    1    2    0    0  0.74127460427E+02 -0.46101612239E+01  0.43714942615E+03  0.46072144385E+03  0.12509394097E+03 0.  0.
          5    1    3    3  502    0 -0.29036756841E+02 -0.37923580981E+01  0.19852210195E+03  0.20071375785E+03  0.41800000000E+01 0.  1.
         -5    1    3    3    0  502  0.10316421727E+03 -0.81780312576E+00  0.23862732419E+03  0.26000768600E+03  0.41800000000E+01 0.  1.
        -11    1    1    2    0    0 -0.53984207433E+02  0.13747013396E+02  0.29289138547E+03  0.29814197744E+03  0.00000000000E+00 0.  1.
         11    1    1    2    0    0 -0.20143252994E+02 -0.91368521719E+01  0.48759538553E+01  0.22649671847E+02  0.00000000000E+00 0. -1.
</event>
<event>
 7    1  0.2719869E-009  0.1141835E+03  0.7561462E-02  0.1253013E+00
          3   -1    0    0  501    0  0.00000000000E+00  0.00000000000E+00  0.13577042206E+03  0.13577042206E+03  0.00000000000E+00 0.  1.
         -3   -1    0    0    0  501 -0.00000000000E+00 -0.00000000000E+00 -0.12399929752E+03  0.12399929752E+03  0.00000000000E+00 0. -1.
         25    2    1    2    0    0  0.36506609398E+02 -0.67488456148E+01 -0.53970219757E+02  0.14120129181E+03  0.12508693274E+03 0.  0.
          5    1    3    3  502    0  0.10996281418E+02  0.58635280057E+02 -0.19541531113E+02  0.62915483870E+02  0.41800000000E+01 0. -1.
         -5    1    3    3    0  502  0.25510327980E+02 -0.65384125672E+02 -0.34428688644E+02  0.78285807943E+02  0.41800000000E+01 0. -1.
        -11    1    1    2    0    0 -0.23091546991E+02 -0.41871769383E+02  0.37460921028E+02  0.60743602280E+02  0.00000000000E+00 0.  1.
         11    1    1    2    0    0 -0.13415062407E+02  0.48620614998E+02  0.28280423273E+02  0.57824825488E+02  0.00000000000E+00 0. -1.
</event>
<event>
 7    1  0.2719869E-009  0.9375783E+02  0.7561462E-02  0.1293999E+00
         -2   -1    0    0    0  501 -0.00000000000E+00  0.00000000000E+00  0.30500315968E+02  0.30500315968E+02  0.00000000000E+00 0.  1.
          2   -1    0    0  501    0  0.00000000000E+00 -0.00000000000E+00 -0.47935564394E+03  0.47935564394E+03  0.00000000000E+00 0. -1.
         25    2    1    2    0    0 -0.21860952370E+01 -0.37259088809E+02 -0.32936685417E+03  0.35429297783E+03  0.12509184947E+03 0.  0.
          5    1    3    3  502    0 -0.18705018624E+01 -0.62393113857E+02 -0.70826936165E+02  0.94500405928E+02  0.41800000000E+01 0. -1.
         -5    1    3    3    0  502 -0.31559337451E+00  0.25134025048E+02 -0.25853991800E+03  0.25979257190E+03  0.41800000000E+01 0. -1.
        -11    1    1    2    0    0 -0.30224526362E+02  0.54828286173E+02 -0.71215767213E+02  0.94822721213E+02  0.00000000000E+00 0.  1.
         11    1    1    2    0    0  0.32410621599E+02 -0.17569197364E+02 -0.48272706590E+02  0.60740260866E+02  0.00000000000E+00 0. -1.
</event>
<event>
 7    1  0.2719869E-009  0.9089311E+02  0.7561462E-02  0.1300703E+00
         -2   -1    0    0    0  501 -0.00000000000E+00  0.00000000000E+00  0.87160523995E+02  0.87160523995E+02  0.00000000000E+00 0. -1.
          2   -1    0    0  501    0  0.00000000000E+00 -0.00000000000E+00 -0.17428489852E+03  0.17428489852E+03  0.00000000000E+00 0.  1.
         25    2    1    2    0    0 -0.12937289818E+02 -0.37941417808E+02 -0.43413139689E+02  0.13834283044E+03  0.12508842226E+03 0.  0.
          5    1    3    3  502    0  0.45125457111E+02 -0.38204865053E+02  0.90697663041E+01  0.59963752834E+02  0.41800000000E+01 0.  1.
         -5    1    3    3    0  502 -0.58062746929E+02  0.26344724430E+00 -0.52482905993E+02  0.78379077609E+02  0.41800000000E+01 0.  1.
        -11    1    1    2    0    0 -0.66105359758E+01  0.43481408086E+02  0.25590268794E+02  0.50884122199E+02  0.00000000000E+00 0. -1.
         11    1    1    2    0    0  0.19547825794E+02 -0.55399902773E+01 -0.69301503628E+02  0.72218469872E+02  0.00000000000E+00 0.  1.
</event>
<event>
 7    1  0.2719869E-009  0.1100594E+03  0.7561462E-02  0.1260460E+00
         -4   -1    0    0    0  501 -0.00000000000E+00  0.00000000000E+00  0.22606912881E+03  0.22606912881E+03  0.00000000000E+00 0.  1.
          4   -1    0    0  501    0  0.00000000000E+00 -0.00000000000E+00 -0.65376233671E+02  0.65376233671E+02  0.00000000000E+00 0. -1.
         25    2    1    2    0    0  0.32880207885E+02  0.40450937682E+02  0.64824181127E+02  0.15022418103E+03  0.12509094163E+03 0.  0.
          5    1    3    3  502    0 -0.30963774175E+02 -0.16352106106E+02 -0.99010380049E+01  0.36628535854E+02  0.41800000000E+01 0.  1.
         -5    1    3    3    0  502  0.63843982060E+02  0.56803043788E+02  0.74725219132E+02  0.11359564518E+03  0.41800000000E+01 0.  1.
        -11    1    1    2    0    0  0.20686171918E+02 -0.40782312945E+02  0.64753878401E+02  0.79272817067E+02  0.00000000000E+00 0.  1.
         11    1    1    2    0    0 -0.53566379803E+02  0.33137526284E+00  0.31114835615E+02  0.61948364386E+02  0.00000000000E+00 0. -1.
</event>
<event>
 7    1  0.2719869E-009  0.8923189E+02  0.7561462E-02  0.1304723E+00
          4   -1    0    0  501    0  0.00000000000E+00  0.00000000000E+00  0.39776694578E+03  0.39776694578E+03  0.00000000000E+00 0. -1.
         -4   -1    0    0    0  501 -0.00000000000E+00 -0.00000000000E+00 -0.35035295917E+02  0.35035295917E+02  0.00000000000E+00 0.  1.
         25    2    1    2    0    0 -0.30759293580E+02 -0.31733057544E+02  0.18936066548E+03  0.23123985582E+03  0.12514506864E+03 0.  0.
          5    1    3    3  502    0 -0.50764452484E+02  0.24591898202E+01  0.16126378615E+02  0.53484668250E+02  0.41800000000E+01 0. -1.
         -5    1    3    3    0  502  0.20005158904E+02 -0.34192247364E+02  0.17323428686E+03  0.17775518757E+03  0.41800000000E+01 0. -1.
        -11    1    1    2    0    0  0.44673323877E+02  0.48437735232E+02  0.16601067799E+03  0.17860981291E+03  0.00000000000E+00 0. -1.
         11    1    1    2    0    0 -0.13914030297E+02 -0.16704677688E+02  0.73603063958E+01  0.22952572971E+02  0.00000000000E+00 0.  1.
</event>
<event>
 7    1  0.2719869E-009  0.8228778E+02  0.7561462E-02  0.1322682E+00
         -1   -1    0    0    0  501 -0.00000000000E+00  0.00000000000E+00  0.56728631909E+03  0.56728631909E+03  0.00000000000E+00 0.  1.
          1   -1    0    0  501    0  0.00000000000E+00 -0.00000000000E+00 -0.34436374786E+02  0.34436374786E+02  0.00000000000E+00 0. -1.
         25    2    1    2    0    0  0.89947535088E+01  0.64061203722E+02  0.16341458662E+03  0.21572561881E+03  0.12509385308E+03 0.  0.
          5    1    3    3  502    0  0.47626674852E+01  0.48359664587E+02  0.18331257435E+03  0.18969004316E+03  0.41800000000E+01 0.  1.
         -5    1    3    3    0  502  0.42320860236E+01  0.15701539134E+02 -0.19897987735E+02  0.26035575645E+02  0.41800000000E+01 0.  1.
        -11    1    1    2    0    0 -0.40530326293E+02 -0.21027233029E+02  0.83898329026E+02  0.95518487695E+02  0.00000000000E+00 0. -1.
         11    1    1    2    0    0  0.31535572784E+02 -0.43033970693E+02  0.28553702866E+03  0.29047858737E+03  0.00000000000E+00 0.  1.
</event>
<event>
 7    1  0.2719869E-009  0.1337610E+03  0.7561462E-02  0.1221979E+00
          2   -1    0    0  501    0  0.00000000000E+00  0.00000000000E+00  0.17020025534E+03  0.17020025534E+03  0.00000000000E+00 0. -1.
         -2   -1    0    0    0  501 -0.00000000000E+00 -0.00000000000E+00 -0.16332184777E+03  0.16332184777E+03  0.00000000000E+00 0.  1.
         25    2    1    2    0    0  0.64812750486E+02 -0.99259847533E+02  0.47980524440E+02  0.17890569286E+03  0.12510757872E+03 0.  0.
          5    1    3    3  502    0  0.72363603537E+02 -0.10124459637E+03  0.78453966140E+02  0.14717152107E+03  0.41800000000E+01 0.  1.
         -5    1    3    3    0  502 -0.75508530501E+01  0.19847488410E+01 -0.30473441700E+02  0.31734171784E+02  0.41800000000E+01 0.  1.
        -11    1    1    2    0    0 -0.62240057594E+02  0.38184471967E+02  0.11562472001E+02  0.73929489566E+02  0.00000000000E+00 0. -1.
         11    1    1    2    0    0 -0.25726928927E+01  0.61075375566E+02 -0.52664588865E+02  0.80686920685E+02  0.00000000000E+00 0.  1.
</event>
<event>
 6    1  0.2719869E-009  0.1157799E+03  0.7561462E-02  0.1250226E+00
         -1   -1    0    0    0  501 -0.00000000000E+00  0.00000000000E+00  0.24308004696E+02  0.24308004696E+02  0.00000000000E+00 0. -1.
          1   -1    0    0  501    0  0.00000000000E+00 -0.00000000000E+00 -0.58328203644E+03  0.58328203644E+03  0.00000000000E+00 0.  1.
          5    1    1    2  502    0  0.36278179879E+02 -0.21303776926E+02 -0.11964359616E+03  0.12689373408E+03  0.41800000000E+01 0. -1.
         -5    1    1    2    0  502 -0.75736512168E+02  0.50731877829E+02 -0.19518790401E+03  0.21546585106E+03  0.41800000000E+01 0. -1.
        -11    1    1    2    0    0 -0.26117402226E+02  0.83898358811E-01 -0.32434291853E+02  0.41642634715E+02  0.00000000000E+00 0. -1.
         11    1    1    2    0    0  0.65575734514E+02 -0.29511999262E+02 -0.21170823973E+03  0.22358782128E+03  0.00000000000E+00 0.  1.
</event>
<event>
 7    1  0.2719869E-009  0.9472768E+02  0.7561462E-02  0.1291791E+00
          2   -1    0    0  501    0  0.00000000000E+00  0.00000000000E+00  0.85540046868E+02  0.85540046868E+02  0.00000000000E+00 0. -1.
         -2   -1    0    0    0  501 -0.00000000000E+00 -0.00000000000E+00 -0.15004253741E+03  0.15004253741E+03  0.00000000000E+00 0.  1.
         25    2    1    2    0    0 -0.18035436550E+02 -0.21670274018E+02 -0.56967938474E+02  0.14031149762E+03  0.12508833920E+03 0.  0.
          5    1    3    3  502    0  0.16807872274E+02  0.44706113598E+02 -0.33715984363E+01  0.48062264194E+02  0.41800000000E+01 0.  1.
         -5    1    3    3    0  502 -0.34843308824E+02 -0.66376387616E+02 -0.53596340038E+02  0.92249233429E+02  0.41800000000E+01 0.  1.
        -11    1    1    2    0    0  0.51590731719E+01  0.42026692265E+02  0.29135386293E+02  0.51397759028E+02  0.00000000000E+00 0. -1.
         11    1    1    2    0    0  0.12876363378E+02 -0.20356418247E+02 -0.36669938358E+02  0.43873327625E+02  0.00000000000E+00 0.  1.
</event>
<event>
 7    1  0.2719869E-009  0.1173841E+03  0.7561462E-02  0.1247476E+00
         -1   -1    0    0    0  501 -0.00000000000E+00  0.00000000000E+00  0.12851642989E+03  0.12851642989E+03  0.00000000000E+00 0.  1.
          1   -1    0    0  501    0  0.00000000000E+00 -0.00000000000E+00 -0.11845149602E+03  0.11845149602E+03  0.00000000000E+00 0. -1.
         25    2    1    2    0    0 -0.52660241526E+02 -0.20561139060E+02 -0.14334753518E+02  0.13802182867E+03  0.12509467836E+03 0.  0.
          5    1    3    3  502    0 -0.28373083674E+02  0.47958524399E+02 -0.30168776725E+02  0.63503381239E+02  0.41800000000E+01 0.  1.
         -5    1    3    3    0  502 -0.24287157852E+02 -0.68519663458E+02  0.15834023207E+02  0.74518447434E+02  0.41800000000E+01 0.  1.
        -11    1    1    2    0    0  0.40610400770E+02  0.55695288612E+02  0.13517016007E+02  0.70241579894E+02  0.00000000000E+00 0.  1.
         11    1    1    2    0    0  0.12049840756E+02 -0.35134149553E+02  0.10882671381E+02  0.38704517351E+02  0.00000000000E+00 0. -1.
</event>
<event>
 7    1  0.2719869E-009  0.1310558E+03  0.7561462E-02  0.1225897E+00
          1   -1    0    0  501    0  0.00000000000E+00  0.00000000000E+00  0.33675403641E+02  0.33675403641E+02  0.00000000000E+00 0. -1.
         -1   -1    0    0    0  501 -0.00000000000E+00 -0.00000000000E+00 -0.76353289725E+03  0.76353289725E+03  0.00000000000E+00 0.  1.
         25    2    1    2    0    0 -0.89667045832E+02 -0.72829308851E+02 -0.39345601919E+03  0.42871882871E+03  0.12509159732E+03 0.  0.
          5    1    3    3  502    0 -0.63309944225E+02 -0.88241246645E+02 -0.37974055047E+03  0.39498737286E+03  0.41800000000E+01 0.  1.
         -5    1    3    3    0  502 -0.26357101607E+02  0.15411937794E+02 -0.13715468718E+02  0.33731455852E+02  0.41800000000E+01 0.  1.
        -11    1    1    2    0    0  0.71212412526E+02  0.32537266698E+02 -0.30311639920E+03  0.31306458261E+03  0.00000000000E+00 0.  1.
         11    1    1    2    0    0  0.18454633306E+02  0.40292042153E+02 -0.33285075221E+02  0.55424889569E+02  0.00000000000E+00 0. -1.
</event>
<event>
 7    1  0.2719869E-009  0.1137252E+03  0.7561462E-02  0.1253823E+00
         -3   -1    0    0    0  501 -0.00000000000E+00  0.00000000000E+00  0.42065325343E+02  0.42065325343E+02  0.00000000000E+00 0.  1.
          3   -1    0    0  501    0  0.00000000000E+00 -0.00000000000E+00 -0.58834056895E+03  0.58834056895E+03  0.00000000000E+00 0. -1.
         25    2    1    2    0    0  0.31034088083E+02 -0.65941285743E+02 -0.46783123800E+03  0.48971968804E+03  0.12509171762E+03 0.  0.
          5    1    3    3  502    0 -0.21600799218E+02  0.47507378704E+01 -0.29320778554E+03  0.29407047104E+03  0.41800000000E+01 0.  1.
         -5    1    3    3    0  502  0.52634887302E+02 -0.70692023613E+02 -0.17462345247E+03  0.19564921701E+03  0.41800000000E+01 0.  1.
        -11    1    1    2    0    0 -0.55854176937E+02  0.72033187942E+02 -0.63379256552E+02  0.11101981538E+03  0.00000000000E+00 0.  1.
         11    1    1    2    0    0  0.24820088854E+02 -0.60919021988E+01 -0.15064749053E+02  0.29666390868E+02  0.00000000000E+00 0. -1.
</event>
<event>
 7    1  0.2719869E-009  0.1279137E+03  0.7561462E-02  0.1230585E+00
          1   -1    0    0  501    0  0.00000000000E+00  0.00000000000E+00  0.16674742840E+04  0.16674742840E+04  0.00000000000E+00 0. -1.
         -1   -1    0    0    0  501 -0.00000000000E+00 -0.00000000000E+00 -0.15548754632E+02  0.15548754632E+02  0.00000000000E+00 0.  1.
         25    2    1    2    0    0 -0.47716096466E+02  0.94520748886E+02  0.11299485058E+04  0.11417706281E+04  0.12508214726E+03 0.  0.
          5    1    3    3  502    0 -0.51002327807E+02  0.37080543027E+02  0.19373384485E+03  0.20378046804E+03  0.41800000000E+01 0. -1.
         -5    1    3    3    0  502  0.32862313412E+01  0.57440205859E+02  0.93621466099E+03  0.93799016009E+03  0.41800000000E+01 0. -1.
        -11    1    1    2    0    0  0.56372826124E+02 -0.19835321418E+02  0.14466782377E+03  0.15652512494E+03  0.00000000000E+00 0.  1.
         11    1    1    2    0    0 -0.86567296580E+01 -0.74685427468E+02  0.37730919973E+03  0.38472728555E+03  0.00000000000E+00 0. -1.
</event>
<event>
 7    1  0.2719869E-009  0.9810002E+02  0.7561462E-02  0.1284343E+00
          2   -1    0    0  501    0  0.00000000000E+00  0.00000000000E+00  0.55214519144E+03  0.55214519144E+03  0.00000000000E+00 0. -1.
         -2   -1    0    0    0  501 -0.00000000000E+00 -0.00000000000E+00 -0.49497687652E+02  0.49497687652E+02  0.00000000000E+00 0.  1.
         25    2    1    2    0    0 -0.77246002717E+02 -0.38549289173E+02  0.43304372584E+03  0.45894161691E+03  0.12509015393E+03 0.  0.
          5    1    3    3  502    0 -0.38733009269E+01  0.96385667373E+00 -0.81141663739E+01  0.99621069910E+01  0.41800000000E+01 0.  1.
         -5    1    3    3    0  502 -0.73372701790E+02 -0.39513145847E+02  0.44115789222E+03  0.44897950992E+03  0.41800000000E+01 0.  1.
        -11    1    1    2    0    0  0.77783504551E+02  0.99977992224E+01  0.13263410531E+02  0.79537083354E+02  0.00000000000E+00 0.  1.
         11    1    1    2    0    0 -0.53750183432E+00  0.28551489951E+02  0.56340367417E+02  0.63164178830E+02  0.00000000000E+00 0. -1.
</event>
<event>
 7    1  0.2719869E-009  0.1461415E+03  0.7561462E-02  0.1205296E+00
          1   -1    0    0  501    0  0.00000000000E+00  0.00000000000E+00  0.50426514159E+03  0.50426514159E+03  0.00000000000E+00 0. -1.
         -1   -1    0    0    0  501 -0.00000000000E+00 -0.00000000000E+00 -0.47458782977E+02  0.47458782977E+02  0.00000000000E+00 0.  1.
         25    2    1    2    0    0 -0.40469512574E+02  0.10186480818E+03  0.27705749862E+03  0.32314651733E+03  0.12509433852E+03 0.  0.
          5    1    3    3  502    0 -0.97248759869E+01 -0.21577916801E+02  0.77129412341E+01  0.25241663355E+02  0.41800000000E+01 0. -1.
         -5    1    3    3    0  502 -0.30744636587E+02  0.12344272498E+03  0.26934455738E+03  0.29790485397E+03  0.41800000000E+01 0. -1.
        -11    1    1    2    0    0 -0.18041791150E+02 -0.73983517371E+02  0.90499529468E+02  0.11827608340E+03  0.00000000000E+00 0.  1.
         11    1    1    2    0    0  0.58511303723E+02 -0.27881290810E+02  0.89249330525E+02  0.11030132384E+03  0.00000000000E+00 0. -1.
</event>
<event>
 7    1  0.2719869E-009  0.1303540E+03  0.7561462E-02  0.1226931E+00
          2   -1    0    0  501    0  0.00000000000E+00  0.00000000000E+00  0.45922372728E+03  0.45922372728E+03  0.00000000000E+00 0. -1.
         -2   -1    0    0    0  501 -0.00000000000E+00 -0.00000000000E+00 -0.52754855576E+02  0.52754855576E+02  0.00000000000E+00 0.  1.
         25    2    1    2    0    0 -0.20127919979E+02 -0.10525462731E+03  0.27533347989E+03  0.32084231345E+03  0.12509034821E+03 0.  0.
          5    1    3    3  502    0  0.23998740195E+02 -0.71088162633E+02  0.24687399788E+03  0.25805757037E+03  0.41800000000E+01 0.  1.
         -5    1    3    3    0  502 -0.44126660175E+02 -0.34166464674E+02  0.28459482017E+02  0.62784743076E+02  0.41800000000E+01 0.  1.
        -11    1    1    2    0    0  0.47229598585E+02  0.54956159677E+02  0.10673597463E+03  0.12900923513E+03  0.00000000000E+00 0. -1.
         11    1    1    2    0    0 -0.27101678605E+02  0.50298467630E+02  0.24399417176E+02  0.62127034274E+02  0.00000000000E+00 0.  1.
</event>
<event>
 7    1  0.2719869E-009  0.1330291E+03  0.7561462E-02  0.1223029E+00
         -2   -1    0    0    0  501 -0.00000000000E+00  0.00000000000E+00  0.60213902932E+02  0.60213902932E+02  0.00000000000E+00 0.  1.
          2   -1    0    0  501    0  0.00000000000E+00 -0.00000000000E+00 -0.40553707740E+03  0.40553707740E+03  0.00000000000E+00 0. -1.
         25    2    1    2    0    0  0.80706045338E+02  0.74658247900E+02 -0.15616439766E+03  0.22830216714E+03  0.12508893112E+03 0.  0.
          5    1    3    3  502    0 -0.36818187564E+01  0.33465484292E+02  0.11720852860E+02  0.35893526157E+02  0.41800000000E+01 0.  1.
         -5    1    3    3    0  502  0.84387864094E+02  0.41192763609E+02 -0.16788525053E+03  0.19240864098E+03  0.41800000000E+01 0.  1.
        -11    1    1    2    0    0 -0.85392370636E+02 -0.26016991387E+02 -0.15114439028E+03  0.17553736786E+03  0.00000000000E+00 0.  1.
         11    1    1    2    0    0  0.46863252982E+01 -0.48641256514E+02 -0.38014386524E+02  0.61911445330E+02  0.00000000000E+00 0. -1.
</event>
<event>
 7    1  0.2719869E-009  0.1472091E+03  0.7561462E-02  0.1203945E+00
          2   -1    0    0  501    0  0.00000000000E+00  0.00000000000E+00  0.18320112710E+03  0.18320112710E+03  0.00000000000E+00 0.  1.
         -2   -1    0    0    0  501 -0.00000000000E+00 -0.00000000000E+00 -0.14018605431E+03  0.14018605431E+03  0.00000000000E+00 0. -1.
         25    2    1    2    0    0  0.78371897619E+02 -0.78507837777E+02  0.63878426963E+01  0.16731620544E+03  0.12509305792E+03 0.  0.
          5    1    3    3  502    0  0.11048954439E+03 -0.43108672050E+02  0.10621396228E+02  0.11914941663E+03  0.41800000000E+01 0. -1.
         -5    1    3    3    0  502 -0.32117646772E+02 -0.35399165727E+02 -0.42335535317E+01  0.48166788805E+02  0.41800000000E+01 0. -1.
        -11    1    1    2    0    0 -0.78431420468E+02  0.37818036254E+02  0.63095306536E+02  0.10753003901E+03  0.00000000000E+00 0.  1.
         11    1    1    2    0    0  0.59522849287E-01  0.40689801523E+02 -0.26468076442E+02  0.48540936965E+02  0.00000000000E+00 0. -1.
</event>
<event>
 7    1  0.2719869E-009  0.1479153E+03  0.7561462E-02  0.1203058E+00
         -1   -1    0    0    0  501 -0.00000000000E+00  0.00000000000E+00  0.50074165368E+03  0.50074165368E+03  0.00000000000E+00 0.  1.
          1   -1    0    0  501    0  0.00000000000E+00 -0.00000000000E+00 -0.67365100586E+02  0.67365100586E+02  0.00000000000E+00 0. -1.
         25    2    1    2    0    0  0.10872545871E+03  0.45732110641E+02  0.36698087715E+03  0.40525853137E+03  0.12508741639E+03 0.  0.
          5    1    3    3  502    0 -0.21545281220E+02 -0.59121029973E+01  0.17437166107E+02  0.28647500180E+02  0.41800000000E+01 0. -1.
         -5    1    3    3    0  502  0.13027073993E+03  0.51644213638E+02  0.34954371104E+03  0.37661103119E+03  0.41800000000E+01 0. -1.
        -11    1    1    2    0    0 -0.78205661265E+02 -0.60618322786E+02  0.79011649020E+02  0.12662364389E+03  0.00000000000E+00 0.  1.
         11    1    1    2    0    0 -0.30519797445E+02  0.14886212145E+02 -0.12615973070E+02  0.36224579012E+02  0.00000000000E+00 0. -1.
</event>
<event>
 7    1  0.2737810E-009  0.1649755E+03  0.7561462E-02  0.1183191E+00
          1   -1    0    0  501    0  0.00000000000E+00  0.00000000000E+00  0.10006149784E+04  0.10006149784E+04  0.00000000000E+00 0. -1.
         -1   -1    0    0    0  501 -0.00000000000E+00 -0.00000000000E+00 -0.31743974237E+02  0.31743974237E+02  0.00000000000E+00 0.  1.
         25    2    1    2    0    0 -0.12263628892E+03  0.64379090410E+02  0.43664839900E+03  0.47486346561E+03  0.12509660261E+03 0.  0.
          5    1    3    3  502    0 -0.47778390109E+02  0.76803479143E+02  0.34035183912E+03  0.35219085133E+03  0.41800000000E+01 0.  1.
         -5    1    3    3    0  502 -0.74857898815E+02 -0.12424388733E+02  0.96296559879E+02  0.12267261428E+03  0.41800000000E+01 0.  1.
        -11    1    1    2    0    0  0.21402692719E+02 -0.58169232066E+02  0.25109166558E+03  0.25862861276E+03  0.00000000000E+00 0. -1.
         11    1    1    2    0    0  0.10123359620E+03 -0.62098583440E+01  0.28113093962E+03  0.29886687430E+03  0.00000000000E+00 0.  1.
</event>
<event>
 7    1  0.2719869E-009  0.1102868E+03  0.7561462E-02  0.1260040E+00
         -2   -1    0    0    0  501 -0.00000000000E+00  0.00000000000E+00  0.47737600580E+02  0.47737600580E+02  0.00000000000E+00 0.  1.
          2   -1    0    0  501    0  0.00000000000E+00 -0.00000000000E+00 -0.26607690447E+03  0.26607690447E+03  0.00000000000E+00 0. -1.
         25    2    1    2    0    0 -0.88872870357E+01  0.16373614441E+02 -0.10220654324E+03  0.16260828489E+03  0.12509275644E+03 0.  0.
          5    1    3    3  502    0 -0.43304892058E+02  0.56152845106E+02 -0.41884596427E+02  0.82463613233E+02  0.41800000000E+01 0.  1.
         -5    1    3    3    0  502  0.34417605023E+02 -0.39779230665E+02 -0.60321946818E+02  0.80144671661E+02  0.41800000000E+01 0.  1.
        -11    1    1    2    0    0 -0.35462595775E+02 -0.33923215684E+02 -0.61579689193E+02  0.78742862423E+02  0.00000000000E+00 0. -1.
         11    1    1    2    0    0  0.44349882811E+02  0.17549601243E+02 -0.54553071452E+02  0.72463357733E+02  0.00000000000E+00 0.  1.
</event>
<event>
 7    1  0.2719869E-009  0.1316010E+03  0.7561462E-02  0.1225099E+00
         -2   -1    0    0    0  501 -0.00000000000E+00  0.00000000000E+00  0.30152919448E+02  0.30152919448E+02  0.00000000000E+00 0.  1.
          2   -1    0    0  501    0  0.00000000000E+00 -0.00000000000E+00 -0.87642006235E+03  0.87642006235E+03  0.00000000000E+00 0. -1.
         25    2    1    2    0    0 -0.69080646612E+02 -0.77510737206E+02 -0.62652565103E+03  0.64727352322E+03  0.12509425384E+03 0.  0.
          5    1    3    3  502    0  0.15245840692E+02  0.17908284391E+02 -0.36313285681E+02  0.43465727018E+02  0.41800000000E+01 0.  1.
         -5    1    3    3    0  502 -0.84326487304E+02 -0.95419021598E+02 -0.59021236535E+03  0.60380779620E+03  0.41800000000E+01 0.  1.
        -11    1    1    2    0    0  0.52234977865E+02  0.27290235956E+02 -0.18917489153E+03  0.19814234650E+03  0.00000000000E+00 0. -1.
         11    1    1    2    0    0  0.16845668747E+02  0.50220501250E+02 -0.30566600341E+02  0.61157112079E+02  0.00000000000E+00 0.  1.
</event>
<event>
 7    1  0.2719869E-009  0.1768540E+03  0.7561462E-02  0.1170883E+00
         -2   -1    0    0    0  501 -0.00000000000E+00  0.00000000000E+00  0.17692606335E+02  0.17692606335E+02  0.00000000000E+00 0.  1.
          2   -1    0    0  501    0  0.00000000000E+00 -0.00000000000E+00 -0.18855094551E+04  0.18855094551E+04  0.00000000000E+00 0. -1.
         25    2    1    2    0    0  0.13191139727E+03 -0.59624084932E+02 -0.10927674575E+04  0.11093884290E+04  0.12508525861E+03 0.  0.
          5    1    3    3  502    0  0.97219202087E+02  0.17857222580E+02 -0.43241711339E+03  0.44359044851E+03  0.41800000000E+01 0.  1.
         -5    1    3    3    0  502  0.34692195182E+02 -0.77481307512E+02 -0.66035034413E+03  0.66579798048E+03  0.41800000000E+01 0.  1.
        -11    1    1    2    0    0 -0.93680147888E+02 -0.59538746470E+01 -0.37065571118E+03  0.38235726090E+03  0.00000000000E+00 0. -1.
         11    1    1    2    0    0 -0.38231249381E+02  0.65577959579E+02 -0.40439368004E+03  0.41145637153E+03  0.00000000000E+00 0.  1.
</event>
<event>
 7    1  0.2719869E-009  0.3902917E+03  0.7561462E-02  0.1047194E+00
          1   -1    0    0  501    0  0.00000000000E+00  0.00000000000E+00  0.19167361977E+03  0.19167361977E+03  0.00000000000E+00 0. -1.
         -1   -1    0    0    0  501 -0.00000000000E+00 -0.00000000000E+00 -0.83063025051E+03  0.83063025051E+03  0.00000000000E+00 0.  1.
         25    2    1    2    0    0  0.38008325291E+03 -0.40311151323E+02 -0.26569614317E+03  0.48200679414E+03  0.12509133078E+03 0.  0.
          5    1    3    3  502    0  0.17972695425E+03 -0.75188130142E+02 -0.16346991787E+03  0.25435195978E+03  0.41800000000E+01 0. -1.
         -5    1    3    3    0  502  0.20035629867E+03  0.34876978820E+02 -0.10222622529E+03  0.22765483435E+03  0.41800000000E+01 0. -1.
        -11    1    1    2    0    0 -0.14978459634E+03  0.19982624217E+02 -0.20350410181E+03  0.25347317418E+03  0.00000000000E+00 0.  1.
         11    1    1    2    0    0 -0.23029865657E+03  0.20328527105E+02 -0.16975638576E+03  0.28682390196E+03  0.00000000000E+00 0. -1.
</event>
<event>
 7    1  0.2719869E-009  0.1237304E+03  0.7561462E-02  0.1237067E+00
         -2   -1    0    0    0  501 -0.00000000000E+00  0.00000000000E+00  0.11889337069E+03  0.11889337069E+03  0.00000000000E+00 0. -1.
          2   -1    0    0  501    0  0.00000000000E+00 -0.00000000000E+00 -0.18660462912E+03  0.18660462912E+03  0.00000000000E+00 0.  1.
         25    2    1    2    0    0  0.52716259352E+02  0.81503450766E+02 -0.46546599728E+01  0.15839636702E+03  0.12508367895E+03 0.  0.
          5    1    3    3  502    0 -0.12628180673E+01  0.63795923620E+02  0.48676759924E+02  0.80364257830E+02  0.41800000000E+01 0.  1.
         -5    1    3    3    0  502  0.53979077419E+02  0.17707527146E+02 -0.53331419897E+02  0.78032109192E+02  0.41800000000E+01 0.  1.
        -11    1    1    2    0    0  0.71009407700E+01 -0.63767378568E+02 -0.94693892604E+01  0.64856543712E+02  0.00000000000E+00 0. -1.
         11    1    1    2    0    0 -0.59817200122E+02 -0.17736072198E+02 -0.53587209193E+02  0.82245089072E+02  0.00000000000E+00 0.  1.
</event>
<event>
 7    1  0.2927860E-009  0.1159883E+03  0.7561462E-02  0.1249866E+00
          2   -1    0    0  501    0  0.00000000000E+00  0.00000000000E+00  0.73489325046E+03  0.73489325046E+03  0.00000000000E+00 0. -1.
         -2   -1    0    0    0  501 -0.00000000000E+00 -0.00000000000E+00 -0.25601790569E+02  0.25601790569E+02  0.00000000000E+00 0.  1.
         25    2    1    2    0    0 -0.21826448916E+02  0.57884984183E+02  0.54447339903E+03  0.56207402260E+03  0.12509540107E+03 0.  0.
          5    1    3    3  502    0  0.46954544792E+02  0.23723025477E+02  0.33073691924E+03  0.33492072698E+03  0.41800000000E+01 0. -1.
         -5    1    3    3    0  502 -0.68780993708E+02  0.34161958707E+02  0.21373647979E+03  0.22715329562E+03  0.41800000000E+01 0. -1.
        -11    1    1    2    0    0 -0.16294936440E+02 -0.61854564690E+02  0.63656724751E+02  0.90242399861E+02  0.00000000000E+00 0.  1.
         11    1    1    2    0    0  0.38121385356E+02  0.39695805069E+01  0.10116133611E+03  0.10817861856E+03  0.00000000000E+00 0. -1.
</event>
<event>
 7    1  0.2719869E-009  0.1012401E+03  0.7561462E-02  0.1277710E+00
         -1   -1    0    0    0  501 -0.00000000000E+00  0.00000000000E+00  0.16437694358E+03  0.16437694358E+03  0.00000000000E+00 0.  1.
          1   -1    0    0  501    0  0.00000000000E+00 -0.00000000000E+00 -0.77577383920E+02  0.77577383920E+02  0.00000000000E+00 0. -1.
         25    2    1    2    0    0 -0.41882365180E+01  0.27972548980E+02  0.38014018722E+02  0.13376433418E+03  0.12509127331E+03 0.  0.
          5    1    3    3  502    0 -0.53222371064E+01  0.77395224925E+02  0.31051407901E+02  0.83666058719E+02  0.41800000000E+01 0.  1.
         -5    1    3    3    0  502  0.11340005884E+01 -0.49422675945E+02  0.69626108214E+01  0.50098275463E+02  0.41800000000E+01 0.  1.
        -11    1    1    2    0    0 -0.61988161435E+01 -0.50232434798E+02 -0.31778719156E+01  0.50713131408E+02  0.00000000000E+00 0.  1.
         11    1    1    2    0    0  0.10387052661E+02  0.22259885818E+02  0.51963412853E+02  0.57476861909E+02  0.00000000000E+00 0. -1.
</event>
<event>
 7    1  0.2719869E-009  0.9142141E+02  0.7561462E-02  0.1299446E+00
         -3   -1    0    0    0  501 -0.00000000000E+00  0.00000000000E+00  0.25167883591E+03  0.25167883591E+03  0.00000000000E+00 0.  1.
          3   -1    0    0  501    0  0.00000000000E+00 -0.00000000000E+00 -0.10714653152E+03  0.10714653152E+03  0.00000000000E+00 0. -1.
         25    2    1    2    0    0 -0.36023549721E+02  0.45753676538E+02 -0.40323867273E+02  0.14374520359E+03  0.12508226985E+03 0.  0.
          5    1    3    3  502    0 -0.27120183978E+02  0.53762252359E+02  0.33368217944E+02  0.68969518822E+02  0.41800000000E+01 0.  1.
         -5    1    3    3    0  502 -0.89033657426E+01 -0.80085758211E+01 -0.73692085218E+02  0.74775684764E+02  0.41800000000E+01 0.  1.
        -11    1    1    2    0    0  0.45281174763E+02  0.15491526581E+02  0.86083713783E+02  0.98492527444E+02  0.00000000000E+00 0. -1.
         11    1    1    2    0    0 -0.92576250428E+01 -0.61245203119E+02  0.98772457873E+02  0.11658763640E+03  0.00000000000E+00 0.  1.
</event>
<event>
 7    1  0.2719869E-009  0.1005971E+03  0.7561462E-02  0.1279045E+00
          1   -1    0    0  501    0  0.00000000000E+00  0.00000000000E+00  0.30672500265E+03  0.30672500265E+03  0.00000000000E+00 0. -1.
         -1   -1    0    0    0  501 -0.00000000000E+00 -0.00000000000E+00 -0.42219049401E+02  0.42219049401E+02  0.00000000000E+00 0.  1.
         25    2    1    2    0    0  0.89802778646E-01 -0.46673024592E+01  0.20475477262E+03  0.23998863387E+03  0.12509290827E+03 0.  0.
          5    1    3    3  502    0 -0.41941506299E+02  0.37608155150E+02  0.55395846790E+02  0.79117858451E+02  0.41800000000E+01 0. -1.
         -5    1    3    3    0  502  0.42031309078E+02 -0.42275457609E+02  0.14935892583E+03  0.16087077542E+03  0.41800000000E+01 0. -1.
        -11    1    1    2    0    0  0.42104135635E+02  0.70226198082E+01  0.10307361972E+02  0.43912607954E+02  0.00000000000E+00 0.  1.
         11    1    1    2    0    0 -0.42193938413E+02 -0.23553173490E+01  0.49443818651E+02  0.65042810221E+02  0.00000000000E+00 0. -1.
</event>
<event>
 7    1  0.2719869E-009  0.1502941E+03  0.7561462E-02  0.1200112E+00
         -2   -1    0    0    0  501 -0.00000000000E+00  0.00000000000E+00  0.29915059060E+03  0.29915059060E+03  0.00000000000E+00 0.  1.
          2   -1    0    0  501    0  0.00000000000E+00 -0.00000000000E+00 -0.85672109886E+02  0.85672109886E+02  0.00000000000E+00 0. -1.
         25    2    1    2    0    0 -0.50381514723E+02  0.10230687226E+03  0.84050660143E+02  0.18898933871E+03  0.12508982189E+03 0.  0.
          5    1    3    3  502    0  0.30559210625E+02  0.71541656495E+02  0.17886985231E+02  0.79934289318E+02  0.41800000000E+01 0. -1.
         -5    1    3    3    0  502 -0.80940725348E+02  0.30765215767E+02  0.66163674912E+02  0.10905504940E+03  0.41800000000E+01 0. -1.
        -11    1    1    2    0    0 -0.15714644812E+02 -0.47802020251E+02  0.86350844077E+02  0.99942240691E+02  0.00000000000E+00 0.  1.
         11    1    1    2    0    0  0.66096159535E+02 -0.54504852011E+02  0.43076976496E+02  0.95891121081E+02  0.00000000000E+00 0. -1.
</event>
<event>
 7    1  0.2719869E-009  0.1072572E+03  0.7561462E-02  0.1265735E+00
          4   -1    0    0  501    0  0.00000000000E+00  0.00000000000E+00  0.52450144146E+02  0.52450144146E+02  0.00000000000E+00 0. -1.
         -4   -1    0    0    0  501 -0.00000000000E+00 -0.00000000000E+00 -0.27497287230E+03  0.27497287230E+03  0.00000000000E+00 0.  1.
         25    2    1    2    0    0  0.35056426019E+02  0.26272311975E+02 -0.16653667456E+03  0.21283950149E+03  0.12508797719E+03 0.  0.
          5    1    3    3  502    0 -0.64421930207E+01 -0.47254937855E+02 -0.55741482622E+02  0.73478679136E+02  0.41800000000E+01 0. -1.
         -5    1    3    3    0  502  0.41498619040E+02  0.73527249830E+02 -0.11079519194E+03  0.13936082235E+03  0.41800000000E+01 0. -1.
        -11    1    1    2    0    0  0.12094320191E+02 -0.32376951837E+02  0.74026409373E+01  0.35345985401E+02  0.00000000000E+00 0. -1.
         11    1    1    2    0    0 -0.47150746210E+02  0.61046398615E+01 -0.63388694524E+02  0.79237529551E+02  0.00000000000E+00 0.  1.
</event>
<event>
 7    1  0.2719869E-009  0.9328156E+02  0.7561462E-02  0.1295094E+00
          1   -1    0    0  501    0  0.00000000000E+00  0.00000000000E+00  0.62368313748E+02  0.62368313748E+02  0.00000000000E+00 0. -1.
         -1   -1    0    0    0  501 -0.00000000000E+00 -0.00000000000E+00 -0.23648081185E+03  0.23648081185E+03  0.00000000000E+00 0.  1.
         25    2    1    2    0    0 -0.93336996155E+01 -0.30896268287E+02 -0.16518563101E+03  0.20970363376E+03  0.12509046317E+03 0.  0.
          5    1    3    3  502    0  0.46607614343E+02 -0.97798144729E+01 -0.18529341406E+02  0.51271077410E+02  0.41800000000E+01 0. -1.
         -5    1    3    3    0  502 -0.55941313958E+02 -0.21116453814E+02 -0.14665628961E+03  0.15843255635E+03  0.41800000000E+01 0. -1.
        -11    1    1    2    0    0 -0.30897635358E+02  0.21086613695E+02  0.16138661065E+02  0.40740220038E+02  0.00000000000E+00 0. -1.
         11    1    1    2    0    0  0.40231334973E+02  0.98096545923E+01 -0.25065528158E+02  0.48405271808E+02  0.00000000000E+00 0.  1.
</event>
<event>
 7    1  0.2719869E-009  0.1297378E+03  0.7561462E-02  0.1227845E+00
         -2   -1    0    0    0  501 -0.00000000000E+00  0.00000000000E+00  0.69554497157E+02  0.69554497157E+02  0.00000000000E+00 0.  1.
          2   -1    0    0  501    0  0.00000000000E+00 -0.00000000000E+00 -0.33550783261E+03  0.33550783261E+03  0.00000000000E+00 0. -1.
         25    2    1    2    0    0  0.62998343138E+02 -0.84476158818E+02 -0.16971269156E+03  0.23569985407E+03  0.12508801255E+03 0.  0.
          5    1    3    3  502    0 -0.17271320850E+01  0.20639849250E+02 -0.80782015643E+02  0.83499657566E+02  0.41800000000E+01 0. -1.
         -5    1    3    3    0  502  0.64725475223E+02 -0.10511600807E+03 -0.88930675918E+02  0.15220019650E+03  0.41800000000E+01 0. -1.
        -11    1    1    2    0    0 -0.68141662442E+02  0.63191231520E+02 -0.27049438738E+02  0.96788894184E+02  0.00000000000E+00 0.  1.
         11    1    1    2    0    0  0.51433193044E+01  0.21284927298E+02 -0.69191205152E+02  0.72573581515E+02  0.00000000000E+00 0. -1.
</event>
<event>
 7    1  0.2719869E-009  0.7512790E+02  0.7561462E-02  0.1343475E+00
          1   -1    0    0  501    0  0.00000000000E+00  0.00000000000E+00  0.15248621658E+03  0.15248621658E+03  0.00000000000E+00 0. -1.
         -1   -1    0    0    0  501 -0.00000000000E+00 -0.00000000000E+00 -0.83644022476E+02  0.83644022476E+02  0.00000000000E+00 0.  1.
         25    2    1    2    0    0 -0.23848484516E+02  0.95726294306E+01  0.16731849418E+02  0.12879281210E+03  0.12508896121E+03 0.  0.
          5    1    3    3  502    0  0.26192553579E+02  0.13868236303E+02  0.56935190687E+02  0.64323138758E+02  0.41800000000E+01 0. -1.
         -5    1    3    3    0  502 -0.50041038095E+02 -0.42956068722E+01 -0.40203341269E+02  0.64469673345E+02  0.41800000000E+01 0. -1.
        -11    1    1    2    0    0 -0.22609950480E+02 -0.65283797769E+00 -0.13582237212E+02  0.26383957736E+02  0.00000000000E+00 0.  1.
         11    1    1    2    0    0  0.46458434996E+02 -0.89197914529E+01  0.65692581898E+02  0.80953469217E+02  0.00000000000E+00 0. -1.
</event>
<event>
 7    1  0.2719869E-009  0.1038439E+03  0.7561462E-02  0.1272414E+00
         -2   -1    0    0    0  501 -0.00000000000E+00  0.00000000000E+00  0.93335901816E+02  0.93335901816E+02  0.00000000000E+00 0.  1.
          2   -1    0    0  501    0  0.00000000000E+00 -0.00000000000E+00 -0.12675665750E+03  0.12675665750E+03  0.00000000000E+00 0. -1.
         25    2    1    2    0    0  0.92736820359E+00  0.60396357576E+01  0.30162591118E+00  0.12524062313E+03  0.12509110877E+03 0.  0.
          5    1    3    3  502    0  0.16883204802E+02  0.60852603408E+02  0.17149441365E+02  0.65571775064E+02  0.41800000000E+01 0. -1.
         -5    1    3    3    0  502 -0.15955836598E+02 -0.54812967650E+02 -0.16847815454E+02  0.59668848068E+02  0.41800000000E+01 0. -1.
        -11    1    1    2    0    0 -0.19006663833E+02  0.36379954174E+02 -0.72481191371E+01  0.41680805735E+02  0.00000000000E+00 0.  1.
         11    1    1    2    0    0  0.18079295629E+02 -0.42419589931E+02 -0.26474262455E+02  0.53171130446E+02  0.00000000000E+00 0. -1.
</event>
<event>
 7    1  0.2719869E-009  0.1011857E+03  0.7561462E-02  0.1277822E+00
         -2   -1    0    0    0  501 -0.00000000000E+00  0.00000000000E+00  0.24604131685E+03  0.24604131685E+03  0.00000000000E+00 0.  1.
          2   -1    0    0  501    0  0.00000000000E+00 -0.00000000000E+00 -0.74877554628E+02  0.74877554628E+02  0.00000000000E+00 0. -1.
         25    2    1    2    0    0  0.20487826769E+02  0.55866154104E+02  0.15956531009E+03  0.21130336055E+03  0.12508894345E+03 0.  0.
          5    1    3    3  502    0 -0.41074876684E+02  0.48109894197E+02  0.12498868704E+03  0.14014760684E+03  0.41800000000E+01 0.  1.
         -5    1    3    3    0  502  0.61562703453E+02  0.77562599065E+01  0.34576623047E+02  0.71155753706E+02  0.41800000000E+01 0.  1.
        -11    1    1    2    0    0  0.89816194197E+01 -0.44177809729E+02  0.44906926709E+02  0.63631599275E+02  0.00000000000E+00 0.  1.
         11    1    1    2    0    0 -0.29469446189E+02 -0.11688344375E+02 -0.33308474575E+02  0.45983911658E+02  0.00000000000E+00 0. -1.
</event>
<event>
 7    1  0.2719869E-009  0.1185628E+03  0.7561462E-02  0.1245487E+00
          1   -1    0    0  501    0  0.00000000000E+00  0.00000000000E+00  0.52130535360E+03  0.52130535360E+03  0.00000000000E+00 0. -1.
         -1   -1    0    0    0  501 -0.00000000000E+00 -0.00000000000E+00 -0.36534126666E+02  0.36534126666E+02  0.00000000000E+00 0.  1.
         25    2    1    2    0    0 -0.29533673655E+00  0.74354340875E+02  0.18090363742E+03  0.23216814403E+03  0.12508903164E+03 0.  0.
          5    1    3    3  502    0 -0.42116211478E+02  0.75356546969E+01  0.13313181569E+03  0.13990037209E+03  0.41800000000E+01 0.  1.
         -5    1    3    3    0  502  0.41820874741E+02  0.66818686178E+02  0.47771821729E+02  0.92267771935E+02  0.41800000000E+01 0.  1.
        -11    1    1    2    0    0  0.31352752674E+02 -0.77868419811E+02  0.19262202558E+03  0.21011837293E+03  0.00000000000E+00 0.  1.
         11    1    1    2    0    0 -0.31057415938E+02  0.35140789367E+01  0.11124556393E+03  0.11555296331E+03  0.00000000000E+00 0. -1.
</event>
<event>
 7    1  0.2719869E-009  0.1118476E+03  0.7561462E-02  0.1257186E+00
          2   -1    0    0  501    0  0.00000000000E+00  0.00000000000E+00  0.17461003382E+03  0.17461003382E+03  0.00000000000E+00 0. -1.
         -2   -1    0    0    0  501 -0.00000000000E+00 -0.00000000000E+00 -0.89673504655E+02  0.89673504655E+02  0.00000000000E+00 0.  1.
         25    2    1    2    0    0  0.26221971510E+02 -0.47864458271E+02  0.81530417953E+02  0.15897518577E+03  0.12508917812E+03 0.  0.
          5    1    3    3  502    0 -0.47612553080E+01 -0.82978495320E+02  0.73996821400E+02  0.11136023624E+03  0.41800000000E+01 0. -1.
         -5    1    3    3    0  502  0.30983226817E+02  0.35114037049E+02  0.75335965535E+01  0.47614949532E+02  0.41800000000E+01 0. -1.
        -11    1    1    2    0    0  0.23160850074E+02  0.35776815051E+02  0.25728361276E+02  0.49783069866E+02  0.00000000000E+00 0. -1.
         11    1    1    2    0    0 -0.49382821583E+02  0.12087643220E+02 -0.22322250066E+02  0.55525282837E+02  0.00000000000E+00 0.  1.
</event>
<event>
 7    1  0.2719869E-009  0.1233602E+03  0.7561462E-02  0.1237654E+00
         -1   -1    0    0    0  501 -0.00000000000E+00  0.00000000000E+00  0.67587136678E+03  0.67587136678E+03  0.00000000000E+00 0.  1.
          1   -1    0    0  501    0  0.00000000000E+00 -0.00000000000E+00 -0.23369123476E+02  0.23369123476E+02  0.00000000000E+00 0. -1.
         25    2    1    2    0    0  0.40905091893E+02 -0.43079667635E+02  0.31060094762E+03  0.34007219986E+03  0.12508824146E+03 0.  0.
          5    1    3    3  502    0  0.78642796464E+02 -0.57276302509E+02  0.20482512700E+03  0.22679521449E+03  0.41800000000E+01 0.  1.
         -5    1    3    3    0  502 -0.37737704571E+02  0.14196634874E+02  0.10577582061E+03  0.11327698537E+03  0.41800000000E+01 0.  1.
        -11    1    1    2    0    0  0.20151950984E+02 -0.14542469113E+02  0.57650350244E+02  0.62778558597E+02  0.00000000000E+00 0.  1.
         11    1    1    2    0    0 -0.61057042877E+02  0.57622136748E+02  0.28425094545E+03  0.29638973180E+03  0.00000000000E+00 0. -1.
</event>
<event>
 7    1  0.2719869E-009  0.1950615E+03  0.7561462E-02  0.1153974E+00
          4   -1    0    0  501    0  0.00000000000E+00  0.00000000000E+00  0.13563827368E+03  0.13563827368E+03  0.00000000000E+00 0. -1.
         -4   -1    0    0    0  501 -0.00000000000E+00 -0.00000000000E+00 -0.35189147324E+03  0.35189147324E+03  0.00000000000E+00 0.  1.
         25    2    1    2    0    0 -0.41338213312E+02 -0.16366200749E+03 -0.15205812590E+02  0.21064823790E+03  0.12508941929E+03 0.  0.
          5    1    3    3  502    0  0.35951874316E+02 -0.82355057661E+02  0.21591236569E+02  0.92512413684E+02  0.41800000000E+01 0.  1.
         -5    1    3    3    0  502 -0.77290087628E+02 -0.81306949833E+02 -0.36797049159E+02  0.11813582422E+03  0.41800000000E+01 0.  1.
        -11    1    1    2    0    0 -0.25485700815E+02  0.43734485592E+02 -0.75145584808E+02  0.90604001524E+02  0.00000000000E+00 0.  1.
         11    1    1    2    0    0  0.66823914127E+02  0.11992752190E+03 -0.12590180217E+03  0.18627750749E+03  0.00000000000E+00 0. -1.
</event>
<event>
 7    1  0.2719869E-009  0.1055568E+03  0.7561462E-02  0.1269026E+00
          2   -1    0    0  501    0  0.00000000000E+00  0.00000000000E+00  0.77563408943E+03  0.77563408943E+03  0.00000000000E+00 0. -1.
         -2   -1    0    0    0  501 -0.00000000000E+00 -0.00000000000E+00 -0.27404675417E+02  0.27404675417E+02  0.00000000000E+00 0.  1.
         25    2    1    2    0    0  0.61356295180E+02 -0.70833486502E+02  0.48915980363E+03  0.51352379728E+03  0.12508956439E+03 0.  0.
          5    1    3    3  502    0  0.72774812207E+01 -0.21819979272E+00 -0.60654952737E+01  0.10357218593E+02  0.41800000000E+01 0.  1.
         -5    1    3    3    0  502  0.54078813959E+02 -0.70615286709E+02  0.49522529890E+03  0.50316657869E+03  0.41800000000E+01 0.  1.
        -11    1    1    2    0    0 -0.73637314743E+02  0.48455839883E+02  0.24498388206E+03  0.26036037527E+03  0.00000000000E+00 0. -1.
         11    1    1    2    0    0  0.12281019563E+02  0.22377646619E+02  0.14085728332E+02  0.29154592303E+02  0.00000000000E+00 0.  1.
</event>
<event>
 7    1  0.2719869E-009  0.7146607E+02  0.7561462E-02  0.1355177E+00
          2   -1    0    0  501    0  0.00000000000E+00  0.00000000000E+00  0.16589114157E+03  0.16589114157E+03  0.00000000000E+00 0. -1.
         -2   -1    0    0    0  501 -0.00000000000E+00 -0.00000000000E+00 -0.71249165438E+02  0.71249165438E+02  0.00000000000E+00 0.  1.
         25    2    1    2    0    0  0.25221223133E+01  0.16708292544E+02  0.54566168089E+02  0.13751378686E+03  0.12508815586E+03 0.  0.
          5    1    3    3  502    0 -0.32584390967E+02  0.25486704958E+02  0.81981214616E+02  0.91922285732E+02  0.41800000000E+01 0.  1.
         -5    1    3    3    0  502  0.35106513280E+02 -0.87784124138E+01 -0.27415046527E+02  0.45591501130E+02  0.41800000000E+01 0.  1.
        -11    1    1    2    0    0 -0.95201623860E+01  0.22849483636E+02 -0.16856700371E+02  0.29947967238E+02  0.00000000000E+00 0.  1.
         11    1    1    2    0    0  0.69980400727E+01 -0.39557776180E+02  0.56932508419E+02  0.69678552913E+02  0.00000000000E+00 0. -1.
</event>
<event>
 7    1  0.2719869E-009  0.1773369E+03  0.7561462E-02  0.1170406E+00
         -2   -1    0    0    0  501 -0.00000000000E+00  0.00000000000E+00  0.49400802035E+02  0.49400802035E+02  0.00000000000E+00 0.  1.
          2   -1    0    0  501    0  0.00000000000E+00 -0.00000000000E+00 -0.88106388176E+03  0.88106388176E+03  0.00000000000E+00 0. -1.
         25    2    1    2    0    0 -0.11729463406E+03  0.96174815809E+02 -0.22586740968E+03  0.29944997187E+03  0.12508626031E+03 0.  0.
          5    1    3    3  502    0 -0.83932435453E+02  0.20793647710E+00 -0.54430403961E+02  0.10012411415E+03  0.41800000000E+01 0.  1.
         -5    1    3    3    0  502 -0.33362198609E+02  0.95966879332E+02 -0.17143700572E+03  0.19932585772E+03  0.41800000000E+01 0.  1.
        -11    1    1    2    0    0  0.90176045358E+01  0.12584855773E+02 -0.19140975280E+02  0.24618544251E+02  0.00000000000E+00 0.  1.
         11    1    1    2    0    0  0.10827702953E+03 -0.10875967158E+03 -0.58665469476E+03  0.60639616767E+03  0.00000000000E+00 0. -1.
</event>
<event>
 7    1  0.2719869E-009  0.1176932E+03  0.7561462E-02  0.1246952E+00
         -1   -1    0    0    0  501 -0.00000000000E+00  0.00000000000E+00  0.97410891946E+02  0.97410891946E+02  0.00000000000E+00 0.  1.
          1   -1    0    0  501    0  0.00000000000E+00 -0.00000000000E+00 -0.16492277359E+03  0.16492277359E+03  0.00000000000E+00 0. -1.
         25    2    1    2    0    0 -0.10630955338E+02  0.64429374697E+02 -0.44415299623E+02  0.14792914984E+03  0.12508458337E+03 0.  0.
          5    1    3    3  502    0 -0.23403830941E+02 -0.28723146814E+02 -0.38547107202E+02  0.53629379441E+02  0.41800000000E+01 0.  1.
         -5    1    3    3    0  502  0.12772875603E+02  0.93152521511E+02 -0.58681924213E+01  0.94299770399E+02  0.41800000000E+01 0.  1.
        -11    1    1    2    0    0 -0.28216146629E+02 -0.58147442059E+02 -0.34726325392E+02  0.73370250265E+02  0.00000000000E+00 0. -1.
         11    1    1    2    0    0  0.38847101967E+02 -0.62819326380E+01  0.11629743368E+02  0.41034265434E+02  0.00000000000E+00 0.  1.
</event>
<event>
 7    1  0.2719869E-009  0.5064524E+02  0.7561462E-02  0.1441892E+00
         -3   -1    0    0    0  501 -0.00000000000E+00  0.00000000000E+00  0.29598642684E+02  0.29598642684E+02  0.00000000000E+00 0.  1.
          3   -1    0    0  501    0  0.00000000000E+00 -0.00000000000E+00 -0.47143272764E+03  0.47143272764E+03  0.00000000000E+00 0. -1.
         25    2    1    2    0    0  0.38198715904E+02 -0.95779456252E+01 -0.30391253139E+03  0.33101645624E+03  0.12513268410E+03 0.  0.
          5    1    3    3  502    0  0.79687751976E+00  0.11533293464E+02 -0.28263857982E+03  0.28290579894E+03  0.41800000000E+01 0.  1.
         -5    1    3    3    0  502  0.37401838385E+02 -0.21111239089E+02 -0.21273951564E+02  0.48110657297E+02  0.41800000000E+01 0.  1.
        -11    1    1    2    0    0 -0.94777418771E+01 -0.78016280048E+01  0.11528828783E+02  0.16840631927E+02  0.00000000000E+00 0.  1.
         11    1    1    2    0    0 -0.28720974027E+02  0.17379573630E+02 -0.14945038235E+03  0.15317428215E+03  0.00000000000E+00 0. -1.
</event>
<event>
 7    1  0.2719869E-009  0.1600505E+03  0.7561462E-02  0.1188640E+00
          1   -1    0    0  501    0  0.00000000000E+00  0.00000000000E+00  0.66352940321E+02  0.66352940321E+02  0.00000000000E+00 0. -1.
         -1   -1    0    0    0  501 -0.00000000000E+00 -0.00000000000E+00 -0.42278044507E+03  0.42278044507E+03  0.00000000000E+00 0.  1.
         25    2    1    2    0    0  0.16124693795E+02  0.12480031700E+03 -0.21229855781E+03  0.27668110587E+03  0.12508649738E+03 0.  0.
          5    1    3    3  502    0  0.15311433441E+02 -0.21398293870E+02 -0.13476684107E+02  0.29856664064E+02  0.41800000000E+01 0.  1.
         -5    1    3    3    0  502  0.81326035416E+00  0.14619861087E+03 -0.19882187370E+03  0.24682444181E+03  0.41800000000E+01 0.  1.
        -11    1    1    2    0    0  0.34619257111E+01 -0.12739364934E+03 -0.14452878754E+03  0.19269067764E+03  0.00000000000E+00 0.  1.
         11    1    1    2    0    0 -0.19586619506E+02  0.25933323431E+01  0.39984059281E+00  0.19761601879E+02  0.00000000000E+00 0. -1.
</event>
<event>
 7    1  0.2719869E-009  0.9418938E+02  0.7561462E-02  0.1293012E+00
          1   -1    0    0  501    0  0.00000000000E+00  0.00000000000E+00  0.13985647511E+03  0.13985647511E+03  0.00000000000E+00 0. -1.
         -1   -1    0    0    0  501 -0.00000000000E+00 -0.00000000000E+00 -0.12815225490E+03  0.12815225490E+03  0.00000000000E+00 0.  1.
         25    2    1    2    0    0 -0.33120764135E+02  0.68177468595E+02 -0.15157280557E+02  0.14704373705E+03  0.12508782998E+03 0.  0.
          5    1    3    3  502    0 -0.40598313009E+02  0.57741028509E+02  0.46038757076E+02  0.84375878932E+02  0.41800000000E+01 0. -1.
         -5    1    3    3    0  502  0.74775488737E+01  0.10436440086E+02 -0.61196037632E+02  0.62667858115E+02  0.41800000000E+01 0. -1.
        -11    1    1    2    0    0 -0.22798795690E+02 -0.21257095571E+02 -0.17299131277E+02  0.35649812622E+02  0.00000000000E+00 0.  1.
         11    1    1    2    0    0  0.55919559826E+02 -0.46920373023E+02  0.44160632042E+02  0.85315180350E+02  0.00000000000E+00 0. -1.
</event>
<event>
 7    1  0.2719869E-009  0.1404546E+03  0.7561462E-02  0.1212719E+00
         -2   -1    0    0    0  501 -0.00000000000E+00  0.00000000000E+00  0.26677814447E+02  0.26677814447E+02  0.00000000000E+00 0. -1.
          2   -1    0    0  501    0  0.00000000000E+00 -0.00000000000E+00 -0.93542510254E+03  0.93542510254E+03  0.00000000000E+00 0.  1.
         25    2    1    2    0    0 -0.61791204735E+02  0.74358868813E+02 -0.67355931690E+03  0.69186438394E+03  0.12508708174E+03 0.  0.
          5    1    3    3  502    0  0.27931302009E+02 -0.57750884364E+01 -0.59460447914E+02  0.66079698429E+02  0.41800000000E+01 0.  1.
         -5    1    3    3    0  502 -0.89722506743E+02  0.80133957250E+02 -0.61409886899E+03  0.62578468551E+03  0.41800000000E+01 0.  1.
        -11    1    1    2    0    0  0.71905041266E+02 -0.17558028395E+02 -0.15117842657E+03  0.16832568426E+03  0.00000000000E+00 0. -1.
         11    1    1    2    0    0 -0.10113836532E+02 -0.56800840418E+02 -0.84009544613E+02  0.10191284879E+03  0.00000000000E+00 0.  1.
</event>
<event>
 7    1  0.2719869E-009  0.1108864E+03  0.7561462E-02  0.1258937E+00
          2   -1    0    0  501    0  0.00000000000E+00  0.00000000000E+00  0.64379864275E+03  0.64379864275E+03  0.00000000000E+00 0.  1.
         -2   -1    0    0    0  501 -0.00000000000E+00 -0.00000000000E+00 -0.25482815609E+02  0.25482815609E+02  0.00000000000E+00 0. -1.
         25    2    1    2    0    0 -0.17495615960E+02  0.62812962236E+02  0.40675944704E+03  0.43052578122E+03  0.12509051019E+03 0.  0.
          5    1    3    3  502    0  0.35277932572E+02  0.54405308627E+02  0.10094546939E+03  0.12004969939E+03  0.41800000000E+01 0.  1.
         -5    1    3    3    0  502 -0.52773548532E+02  0.84076536088E+01  0.30581397765E+03  0.31047608183E+03  0.41800000000E+01 0.  1.
        -11    1    1    2    0    0  0.47565075284E+02 -0.53781250571E+02  0.18194256267E+03  0.19559640951E+03  0.00000000000E+00 0.  1.
         11    1    1    2    0    0 -0.30069459324E+02 -0.90317116647E+01  0.29613817425E+02  0.43159267627E+02  0.00000000000E+00 0. -1.
</event>
<event>
 7    1  0.2719869E-009  0.1628743E+03  0.7561462E-02  0.1185489E+00
          2   -1    0    0  501    0  0.00000000000E+00  0.00000000000E+00  0.15246410941E+02  0.15246410941E+02  0.00000000000E+00 0. -1.
         -2   -1    0    0    0  501 -0.00000000000E+00 -0.00000000000E+00 -0.17863473184E+04  0.17863473184E+04  0.00000000000E+00 0.  1.
         25    2    1    2    0    0 -0.12330541881E+03  0.14279103573E+02 -0.95677759979E+03  0.97287441920E+03  0.12511251323E+03 0.  0.
          5    1    3    3  502    0 -0.33531286364E+02  0.62226913697E+02 -0.49170174625E+03  0.49677420990E+03  0.41800000000E+01 0.  1.
         -5    1    3    3    0  502 -0.89774132444E+02 -0.47947810125E+02 -0.46507585353E+03  0.47610020929E+03  0.41800000000E+01 0.  1.
        -11    1    1    2    0    0 -0.89814528226E+01  0.15098070028E+02 -0.70694841925E+02  0.72844896103E+02  0.00000000000E+00 0. -1.
         11    1    1    2    0    0  0.13228687163E+03 -0.29377173600E+02 -0.74362846579E+03  0.75587441409E+03  0.00000000000E+00 0.  1.
</event>
<event>
 7    1  0.2719869E-009  0.1973699E+03  0.7561462E-02  0.1151977E+00
          2   -1    0    0  501    0  0.00000000000E+00  0.00000000000E+00  0.73513048665E+03  0.73513048665E+03  0.00000000000E+00 0. -1.
         -2   -1    0    0    0  501 -0.00000000000E+00 -0.00000000000E+00 -0.61081529143E+02  0.61081529143E+02  0.00000000000E+00 0.  1.
         25    2    1    2    0    0  0.12664651853E+03 -0.11625420401E+03  0.45604521601E+03  0.50316445504E+03  0.12507137629E+03 0.  0.
          5    1    3    3  502    0 -0.16848058857E+02 -0.17601539233E+02  0.14120026670E+03  0.14334803447E+03  0.41800000000E+01 0.  1.
         -5    1    3    3    0  502  0.14349457739E+03 -0.98652664782E+02  0.31484494931E+03  0.35981642057E+03  0.41800000000E+01 0.  1.
        -11    1    1    2    0    0 -0.69364904058E+02  0.11981033207E+03  0.15359281809E+03  0.20677707648E+03  0.00000000000E+00 0. -1.
         11    1    1    2    0    0 -0.57281614471E+02 -0.35561280579E+01  0.64410923407E+02  0.86270484276E+02  0.00000000000E+00 0.  1.
</event>
<event>
 7    1  0.2719869E-009  0.9995361E+02  0.7561462E-02  0.1280394E+00
         -1   -1    0    0    0  501 -0.00000000000E+00  0.00000000000E+00  0.25271225931E+02  0.25271225931E+02  0.00000000000E+00 0.  1.
          1   -1    0    0  501    0  0.00000000000E+00 -0.00000000000E+00 -0.47710186842E+03  0.47710186842E+03  0.00000000000E+00 0. -1.
         25    2    1    2    0    0 -0.17879995003E+01 -0.15605900767E+02 -0.23764949264E+03  0.26902029936E+03  0.12509156260E+03 0.  0.
          5    1    3    3  502    0  0.49951761301E+02 -0.41362894543E+02 -0.95519643475E+02  0.11553156362E+03  0.41800000000E+01 0.  1.
         -5    1    3    3    0  502 -0.51739760801E+02  0.25756993776E+02 -0.14212984916E+03  0.15348873574E+03  0.41800000000E+01 0.  1.
        -11    1    1    2    0    0 -0.70428401103E+01  0.45375748626E+02 -0.18544126014E+03  0.19104193551E+03  0.00000000000E+00 0. -1.
         11    1    1    2    0    0  0.88308396106E+01 -0.29769847859E+02 -0.28739889704E+02  0.42310859480E+02  0.00000000000E+00 0.  1.
</event>
<event>
 7    1  0.2719869E-009  0.1021526E+03  0.7561462E-02  0.1275833E+00
         -4   -1    0    0    0  501 -0.00000000000E+00  0.00000000000E+00  0.34913960845E+03  0.34913960845E+03  0.00000000000E+00 0.  1.
          4   -1    0    0  501    0  0.00000000000E+00 -0.00000000000E+00 -0.61397435468E+02  0.61397435468E+02  0.00000000000E+00 0. -1.
         25    2    1    2    0    0  0.60415834099E+02 -0.52745003451E+02  0.23341203561E+03  0.27669603101E+03  0.12508959514E+03 0.  0.
          5    1    3    3  502    0 -0.16900788254E+02  0.44414671874E+01  0.14464379023E+03  0.14575548609E+03  0.41800000000E+01 0.  1.
         -5    1    3    3    0  502  0.77316622353E+02 -0.57186470639E+02  0.88768245384E+02  0.13094054492E+03  0.41800000000E+01 0.  1.
        -11    1    1    2    0    0 -0.63142405952E+02  0.35134697600E+02 -0.44723783024E+01  0.72397600599E+02  0.00000000000E+00 0. -1.
         11    1    1    2    0    0  0.27265718534E+01  0.17610305851E+02  0.58802515674E+02  0.61443412306E+02  0.00000000000E+00 0.  1.
</event>
<event>
 7    1  0.2719869E-009  0.1181589E+03  0.7561462E-02  0.1246166E+00
          1   -1    0    0  501    0  0.00000000000E+00  0.00000000000E+00  0.10154489972E+04  0.10154489972E+04  0.00000000000E+00 0. -1.
         -1   -1    0    0    0  501 -0.00000000000E+00 -0.00000000000E+00 -0.32215167007E+02  0.32215167007E+02  0.00000000000E+00 0.  1.
         25    2    1    2    0    0 -0.64803762431E+02  0.50182307661E+02  0.86195904436E+03  0.87483640007E+03  0.12509013196E+03 0.  0.
          5    1    3    3  502    0  0.35515054404E+02  0.20605020335E+02  0.16619377346E+03  0.17124172590E+03  0.41800000000E+01 0.  1.
         -5    1    3    3    0  502 -0.10031881684E+03  0.29577287326E+02  0.69576527090E+03  0.70359467417E+03  0.41800000000E+01 0.  1.
        -11    1    1    2    0    0  0.14452469861E+02 -0.34869794710E+02 -0.30034619884E+01  0.37865515342E+02  0.00000000000E+00 0.  1.
         11    1    1    2    0    0  0.50351292570E+02 -0.15312512951E+02  0.12427824779E+03  0.13496224876E+03  0.00000000000E+00 0. -1.
</event>
<event>
 7    1  0.2719869E-009  0.6881729E+02  0.7561462E-02  0.1364162E+00
          2   -1    0    0  501    0  0.00000000000E+00  0.00000000000E+00  0.67152864134E+03  0.67152864134E+03  0.00000000000E+00 0.  1.
         -2   -1    0    0    0  501 -0.00000000000E+00 -0.00000000000E+00 -0.19726528905E+02  0.19726528905E+02  0.00000000000E+00 0. -1.
         25    2    1    2    0    0  0.30202329642E+02 -0.21261020316E+02  0.41358663088E+03  0.43366824368E+03  0.12510009047E+03 0.  0.
          5    1    3    3  502    0  0.14681576883E+02 -0.17379500529E+02  0.41627340553E+03  0.41691559852E+03  0.41800000000E+01 0. -1.
         -5    1    3    3    0  502  0.15520752759E+02 -0.38815197871E+01 -0.26867746463E+01  0.16752645166E+02  0.41800000000E+01 0. -1.
        -11    1    1    2    0    0 -0.32704104310E+02  0.55079106761E+02  0.15900092699E+03  0.17141925570E+03  0.00000000000E+00 0.  1.
         11    1    1    2    0    0  0.25017746680E+01 -0.33818086445E+02  0.79214554563E+02  0.86167670863E+02  0.00000000000E+00 0. -1.
</event>
<event>
 7    1  0.2719869E-009  0.1335881E+03  0.7561462E-02  0.1222227E+00
          1   -1    0    0  501    0  0.00000000000E+00  0.00000000000E+00  0.94225746176E+02  0.94225746176E+02  0.00000000000E+00 0. -1.
         -1   -1    0    0    0  501 -0.00000000000E+00 -0.00000000000E+00 -0.31264239337E+03  0.31264239337E+03  0.00000000000E+00 0.  1.
         25    2    1    2    0    0 -0.34640082128E+02  0.12450313843E+03 -0.78506107837E+02  0.19624379617E+03  0.12508977495E+03 0.  0.
          5    1    3    3  502    0 -0.35364639581E+01  0.19907624511E+02 -0.84394033716E+02  0.86882940891E+02  0.41800000000E+01 0. -1.
         -5    1    3    3    0  502 -0.31103618170E+02  0.10459551392E+03  0.58879258797E+01  0.10936085528E+03  0.41800000000E+01 0. -1.
        -11    1    1    2    0    0  0.45511334011E+02 -0.11116013162E+03 -0.14881791232E+03  0.19124494088E+03  0.00000000000E+00 0.  1.
         11    1    1    2    0    0 -0.10871251883E+02 -0.13343006809E+02  0.89073729604E+01  0.19379402500E+02  0.00000000000E+00 0. -1.
</event>
<event>
 7    1  0.2719869E-009  0.1939131E+03  0.7561462E-02  0.1154979E+00
          2   -1    0    0  501    0  0.00000000000E+00  0.00000000000E+00  0.36862605330E+03  0.36862605330E+03  0.00000000000E+00 0. -1.
         -2   -1    0    0    0  501 -0.00000000000E+00 -0.00000000000E+00 -0.15047473981E+03  0.15047473981E+03  0.00000000000E+00 0.  1.
         25    2    1    2    0    0  0.17129611633E+03 -0.20049058014E+01 -0.19534605125E+02  0.21299913965E+03  0.12506259863E+03 0.  0.
          5    1    3    3  502    0  0.12410014972E+03 -0.56618706939E+02  0.52396912375E+01  0.13657031852E+03  0.41800000000E+01 0. -1.
         -5    1    3    3    0  502  0.47195966604E+02  0.54613801138E+02 -0.24774296363E+02  0.76428821126E+02  0.41800000000E+01 0. -1.
        -11    1    1    2    0    0 -0.68703675890E+02 -0.24758316254E+02  0.43902456292E+02  0.85209124940E+02  0.00000000000E+00 0.  1.
         11    1    1    2    0    0 -0.10259244044E+03  0.26763222055E+02  0.19378346232E+03  0.22089252853E+03  0.00000000000E+00 0. -1.
</event>
<event>
 7    1  0.2719869E-009  0.3011522E+03  0.7561462E-02  0.1084666E+00
         -4   -1    0    0    0  501 -0.00000000000E+00  0.00000000000E+00  0.19846818415E+03  0.19846818415E+03  0.00000000000E+00 0.  1.
          4   -1    0    0  501    0  0.00000000000E+00 -0.00000000000E+00 -0.49667065157E+03  0.49667065157E+03  0.00000000000E+00 0. -1.
         25    2    1    2    0    0 -0.43979828255E+02 -0.28154631099E+03 -0.23433003467E+03  0.38956591952E+03  0.12509392462E+03 0.  0.
          5    1    3    3  502    0  0.37906175198E+02 -0.79774511058E+02 -0.37633975496E+02  0.96097030361E+02  0.41800000000E+01 0.  1.
         -5    1    3    3    0  502 -0.81886003453E+02 -0.20177179993E+03 -0.19669605917E+03  0.29346888916E+03  0.41800000000E+01 0.  1.
        -11    1    1    2    0    0 -0.23708100882E+02  0.83088632781E+02 -0.37667877205E+02  0.94258495203E+02  0.00000000000E+00 0. -1.
         11    1    1    2    0    0  0.67687929137E+02  0.19845767821E+03 -0.26204555544E+02  0.21131442100E+03  0.00000000000E+00 0.  1.
</event>
<event>
 7    1  0.2719869E-009  0.6991629E+02  0.7561462E-02  0.1360378E+00
         -2   -1    0    0    0  501 -0.00000000000E+00  0.00000000000E+00  0.25346272345E+03  0.25346272345E+03  0.00000000000E+00 0.  1.
          2   -1    0    0  501    0  0.00000000000E+00 -0.00000000000E+00 -0.50013563347E+02  0.50013563347E+02  0.00000000000E+00 0. -1.
         25    2    1    2    0    0  0.13260266295E+02  0.18050456060E+02  0.15474003048E+03  0.20023497028E+03  0.12509161709E+03 0.  0.
          5    1    3    3  502    0 -0.14795061502E+02  0.17443533802E+02 -0.15306666242E+02  0.27837692933E+02  0.41800000000E+01 0. -1.
         -5    1    3    3    0  502  0.28055327798E+02  0.60692225759E+00  0.17004669672E+03  0.17239727735E+03  0.41800000000E+01 0. -1.
        -11    1    1    2    0    0  0.29975851562E+02  0.15253441557E+02  0.65195833612E+01  0.34259657375E+02  0.00000000000E+00 0. -1.
         11    1    1    2    0    0 -0.43236117858E+02 -0.33303897616E+02  0.42189546269E+02  0.68981659144E+02  0.00000000000E+00 0.  1.
</event>
<event>
 7    1  0.2719869E-009  0.1568422E+03  0.7561462E-02  0.1192309E+00
          2   -1    0    0  501    0  0.00000000000E+00  0.00000000000E+00  0.80079143572E+03  0.80079143572E+03  0.00000000000E+00 0. -1.
         -2   -1    0    0    0  501 -0.00000000000E+00 -0.00000000000E+00 -0.42765183068E+02  0.42765183068E+02  0.00000000000E+00 0.  1.
         25    2    1    2    0    0 -0.14686177577E+03 -0.11742720971E+02  0.46885423613E+03  0.50712709180E+03  0.12508924742E+03 0.  0.
          5    1    3    3  502    0 -0.64590663694E+02 -0.11432393732E+01  0.54774179076E+02  0.84799433524E+02  0.41800000000E+01 0.  1.
         -5    1    3    3    0  502 -0.82271112079E+02 -0.10599481597E+02  0.41408005705E+03  0.42232765827E+03  0.41800000000E+01 0.  1.
        -11    1    1    2    0    0  0.57941313671E+02 -0.32648974918E+02  0.16132699186E+03  0.17449799338E+03  0.00000000000E+00 0. -1.
         11    1    1    2    0    0  0.88920462102E+02  0.44391695889E+02  0.12784502467E+03  0.16193153361E+03  0.00000000000E+00 0.  1.
</event>
<event>
 7    1  0.2719869E-009  0.1381414E+03  0.7561462E-02  0.1215852E+00
          1   -1    0    0  501    0  0.00000000000E+00  0.00000000000E+00  0.15129764750E+04  0.15129764750E+04  0.00000000000E+00 0. -1.
         -1   -1    0    0    0  501 -0.00000000000E+00 -0.00000000000E+00 -0.19172597799E+02  0.19172597799E+02  0.00000000000E+00 0.  1.
         25    2    1    2    0    0  0.12872401335E+03 -0.14150123995E+01  0.95215920779E+03  0.96893067816E+03  0.12509048018E+03 0.  0.
          5    1    3    3  502    0  0.68746700792E+02 -0.21405569664E+02  0.17620844094E+03  0.19039746411E+03  0.41800000000E+01 0. -1.
         -5    1    3    3    0  502  0.59977312560E+02  0.19990557264E+02  0.77595076685E+03  0.77853321405E+03  0.41800000000E+01 0. -1.
        -11    1    1    2    0    0 -0.77637201860E+02 -0.27177130502E+02  0.42291028163E+03  0.43083551135E+03  0.00000000000E+00 0. -1.
         11    1    1    2    0    0 -0.51086811492E+02  0.28592142901E+02  0.11873438776E+03  0.13238288326E+03  0.00000000000E+00 0.  1.
</event>
<event>
 7    1  0.2719869E-009  0.1283393E+03  0.7561462E-02  0.1229941E+00
         -1   -1    0    0    0  501 -0.00000000000E+00  0.00000000000E+00  0.15552643925E+02  0.15552643925E+02  0.00000000000E+00 0.  1.
          1   -1    0    0  501    0  0.00000000000E+00 -0.00000000000E+00 -0.22985816478E+04  0.22985816478E+04  0.00000000000E+00 0. -1.
         25    2    1    2    0    0 -0.56348333494E+02 -0.98896273520E+02 -0.18360913784E+04  0.18438640350E+04  0.12508965662E+03 0.  0.
          5    1    3    3  502    0  0.51216407732E+01 -0.43625544470E+02 -0.16728385836E+03  0.17300514733E+03  0.41800000000E+01 0.  1.
         -5    1    3    3    0  502 -0.61469974267E+02 -0.55270729050E+02 -0.16688075201E+04  0.16708588877E+04  0.41800000000E+01 0.  1.
        -11    1    1    2    0    0  0.70086399290E+02  0.86002959892E+02 -0.43258553610E+03  0.44658577958E+03  0.00000000000E+00 0. -1.
         11    1    1    2    0    0 -0.13738065796E+02  0.12893313628E+02 -0.14352089402E+02  0.23684477160E+02  0.00000000000E+00 0.  1.
</event>
<event>
 7    1  0.2719869E-009  0.8878695E+02  0.7561462E-02  0.1305816E+00
          1   -1    0    0  501    0  0.00000000000E+00  0.00000000000E+00  0.17510195556E+03  0.17510195556E+03  0.00000000000E+00 0. -1.
         -1   -1    0    0    0  501 -0.00000000000E+00 -0.00000000000E+00 -0.93189662177E+02  0.93189662177E+02  0.00000000000E+00 0.  1.
         25    2    1    2    0    0  0.30993984996E+02  0.56434779996E+02  0.22081141643E+02  0.14242224343E+03  0.12510398518E+03 0.  0.
          5    1    3    3  502    0  0.32630579225E+02  0.34286281396E+02 -0.48748427598E+02  0.68074851346E+02  0.41800000000E+01 0.  1.
         -5    1    3    3    0  502 -0.16365942290E+01  0.22148498600E+02  0.70829569241E+02  0.74347392085E+02  0.41800000000E+01 0.  1.
        -11    1    1    2    0    0  0.10370987263E+02  0.18875151456E+02  0.25409172481E+02  0.33308478882E+02  0.00000000000E+00 0. -1.
         11    1    1    2    0    0 -0.41364972259E+02 -0.75309931451E+02  0.34421979253E+02  0.92560895419E+02  0.00000000000E+00 0.  1.
</event>
<event>
 7    1  0.2719869E-009  0.1031165E+03  0.7561462E-02  0.1273876E+00
          1   -1    0    0  501    0  0.00000000000E+00  0.00000000000E+00  0.11269894391E+03  0.11269894391E+03  0.00000000000E+00 0. -1.
         -1   -1    0    0    0  501 -0.00000000000E+00 -0.00000000000E+00 -0.24059617685E+03  0.24059617685E+03  0.00000000000E+00 0.  1.
         25    2    1    2    0    0 -0.42392485091E+02  0.35660847363E+02 -0.18671307583E+03  0.23147015385E+03  0.12509132909E+03 0.  0.
          5    1    3    3  502    0  0.17388410267E+02  0.62703557979E+02 -0.12650867969E+03  0.14232361516E+03  0.41800000000E+01 0.  1.
         -5    1    3    3    0  502 -0.59780895358E+02 -0.27042710615E+02 -0.60204396132E+02  0.89146538693E+02  0.41800000000E+01 0.  1.
        -11    1    1    2    0    0  0.23800284299E+02 -0.47578325878E+02 -0.58238087464E+01  0.53516982112E+02  0.00000000000E+00 0.  1.
         11    1    1    2    0    0  0.18592200793E+02  0.11917478514E+02  0.64639651624E+02  0.68307984793E+02  0.00000000000E+00 0. -1.
</event>
<event>
 7    1  0.2719869E-009  0.1015537E+03  0.7561462E-02  0.1277062E+00
         -1   -1    0    0    0  501 -0.00000000000E+00  0.00000000000E+00  0.12826344798E+03  0.12826344798E+03  0.00000000000E+00 0.  1.
          1   -1    0    0  501    0  0.00000000000E+00 -0.00000000000E+00 -0.13499686295E+03  0.13499686295E+03  0.00000000000E+00 0. -1.
         25    2    1    2    0    0 -0.30751342499E+02  0.59943671336E+02 -0.30564344735E+02  0.14532939727E+03  0.12509023041E+03 0.  0.
          5    1    3    3  502    0 -0.68003417273E+02  0.57549936873E+01  0.82274389088E+01  0.68867611140E+02  0.41800000000E+01 0. -1.
         -5    1    3    3    0  502  0.37252074774E+02  0.54188677649E+02 -0.38791783644E+02  0.76461786132E+02  0.41800000000E+01 0. -1.
        -11    1    1    2    0    0  0.22862243037E+00 -0.12031531727E+02 -0.34481589017E+02  0.36521089867E+02  0.00000000000E+00 0. -1.
         11    1    1    2    0    0  0.30522720068E+02 -0.47912139609E+02  0.58312518786E+02  0.81409823790E+02  0.00000000000E+00 0.  1.
</event>
<event>
 7    1  0.2719869E-009  0.6214284E+02  0.7561462E-02  0.1389053E+00
         -3   -1    0    0    0  501 -0.00000000000E+00  0.00000000000E+00  0.46134357188E+02  0.46134357188E+02  0.00000000000E+00 0.  1.
          3   -1    0    0  501    0  0.00000000000E+00 -0.00000000000E+00 -0.25237141030E+03  0.25237141030E+03  0.00000000000E+00 0. -1.
         25    2    1    2    0    0 -0.86930706009E+01 -0.11916709691E+02 -0.15712016354E+03  0.20137505256E+03  0.12509032159E+03 0.  0.
          5    1    3    3  502    0  0.10800749313E+02 -0.22687020934E+02  0.13792624502E+02  0.28966635897E+02  0.41800000000E+01 0. -1.
         -5    1    3    3    0  502 -0.19493819914E+02  0.10770311243E+02 -0.17091278805E+03  0.17240841666E+03  0.41800000000E+01 0. -1.
        -11    1    1    2    0    0  0.29093631603E+02  0.34890697024E+02 -0.48424864211E+02  0.66398551283E+02  0.00000000000E+00 0.  1.
         11    1    1    2    0    0 -0.20400561002E+02 -0.22973987333E+02 -0.69202535870E+00  0.30732163645E+02  0.00000000000E+00 0. -1.
</event>
<event>
 7    1  0.2719869E-009  0.1285373E+03  0.7561462E-02  0.1229642E+00
         -1   -1    0    0    0  501 -0.00000000000E+00  0.00000000000E+00  0.12284239158E+03  0.12284239158E+03  0.00000000000E+00 0.  1.
          1   -1    0    0  501    0  0.00000000000E+00 -0.00000000000E+00 -0.20204891108E+03  0.20204891108E+03  0.00000000000E+00 0. -1.
         25    2    1    2    0    0  0.31906998523E+02 -0.99888092834E+02  0.25640887069E+01  0.16324586931E+03  0.12508777578E+03 0.  0.
          5    1    3    3  502    0 -0.28490696725E+02 -0.32078295103E+02 -0.43582530579E+02  0.61299642644E+02  0.41800000000E+01 0. -1.
         -5    1    3    3    0  502  0.60397695249E+02 -0.67809797732E+02  0.46146619286E+02  0.10194622667E+03  0.41800000000E+01 0. -1.
        -11    1    1    2    0    0 -0.51549989150E+02  0.79517721582E+02 -0.24680197911E+02  0.97926409083E+02  0.00000000000E+00 0.  1.
         11    1    1    2    0    0  0.19642990627E+02  0.20370371252E+02 -0.57090410300E+02  0.63719024270E+02  0.00000000000E+00 0. -1.
</event>
<event>
 7    1  0.2719869E-009  0.7634846E+02  0.7561462E-02  0.1339745E+00
         -1   -1    0    0    0  501 -0.00000000000E+00  0.00000000000E+00  0.22825407384E+02  0.22825407384E+02  0.00000000000E+00 0.  1.
          1   -1    0    0  501    0  0.00000000000E+00 -0.00000000000E+00 -0.57273408117E+03  0.57273408117E+03  0.00000000000E+00 0. -1.
         25    2    1    2    0    0 -0.17232914599E+02  0.27830941396E+02 -0.36586505252E+03  0.38804026386E+03  0.12508587082E+03 0.  0.
          5    1    3    3  502    0  0.36949793525E+02 -0.15747564892E+01 -0.33802175628E+02  0.50277495729E+02  0.41800000000E+01 0. -1.
         -5    1    3    3    0  502 -0.54182708124E+02  0.29405697886E+02 -0.33206287689E+03  0.33776276813E+03  0.41800000000E+01 0. -1.
        -11    1    1    2    0    0  0.13137391811E+02 -0.39338429391E+02 -0.18961230004E+03  0.19409515042E+03  0.00000000000E+00 0. -1.
         11    1    1    2    0    0  0.40955227879E+01  0.11507487995E+02  0.55686787700E+01  0.13424074273E+02  0.00000000000E+00 0.  1.
</event>
<event>
 7    1  0.2719869E-009  0.1129285E+03  0.7561462E-02  0.1255241E+00
         -4   -1    0    0    0  501 -0.00000000000E+00  0.00000000000E+00  0.60860389940E+02  0.60860389940E+02  0.00000000000E+00 0.  1.
          4   -1    0    0  501    0  0.00000000000E+00 -0.00000000000E+00 -0.34661074877E+03  0.34661074877E+03  0.00000000000E+00 0. -1.
         25    2    1    2    0    0 -0.23403077271E+02  0.44980691827E+02 -0.26898427421E+03  0.30095097180E+03  0.12509189021E+03 0.  0.
          5    1    3    3  502    0 -0.73312765139E+02  0.10907304551E+02 -0.15546896339E+03  0.17228407298E+03  0.41800000000E+01 0. -1.
         -5    1    3    3    0  502  0.49909687868E+02  0.34073387276E+02 -0.11351531081E+03  0.12866689882E+03  0.41800000000E+01 0. -1.
        -11    1    1    2    0    0 -0.27830468699E+02 -0.17945296318E+02  0.19254370078E+02  0.38305344471E+02  0.00000000000E+00 0.  1.
         11    1    1    2    0    0  0.51233545970E+02 -0.27035395509E+02 -0.36020454706E+02  0.68214822438E+02  0.00000000000E+00 0. -1.
</event>
<event>
 7    1  0.2719869E-009  0.1371046E+03  0.7561462E-02  0.1217279E+00
          1   -1    0    0  501    0  0.00000000000E+00  0.00000000000E+00  0.38437492198E+03  0.38437492198E+03  0.00000000000E+00 0. -1.
         -1   -1    0    0    0  501 -0.00000000000E+00 -0.00000000000E+00 -0.14568728143E+03  0.14568728143E+03  0.00000000000E+00 0.  1.
         25    2    1    2    0    0 -0.10494406932E+03 -0.64169944157E+02 -0.66640225107E+02  0.18766892665E+03  0.12509063518E+03 0.  0.
          5    1    3    3  502    0 -0.31440344423E+02 -0.12142908542E+02 -0.88596929051E+02  0.94883263659E+02  0.41800000000E+01 0. -1.
         -5    1    3    3    0  502 -0.73503724900E+02 -0.52027035615E+02  0.21956703944E+02  0.92785662994E+02  0.41800000000E+01 0. -1.
        -11    1    1    2    0    0  0.48617344193E+02 -0.16820816142E+02  0.14807829564E+03  0.15676022344E+03  0.00000000000E+00 0. -1.
         11    1    1    2    0    0  0.56326725130E+02  0.80990760299E+02  0.15724957001E+03  0.18563305333E+03  0.00000000000E+00 0.  1.
</event>
<event>
 7    1  0.2837486E-009  0.1270180E+03  0.7561462E-02  0.1231949E+00
          1   -1    0    0  501    0  0.00000000000E+00  0.00000000000E+00  0.70399172208E+03  0.70399172208E+03  0.00000000000E+00 0. -1.
         -1   -1    0    0    0  501 -0.00000000000E+00 -0.00000000000E+00 -0.32773514880E+02  0.32773514880E+02  0.00000000000E+00 0.  1.
         25    2    1    2    0    0  0.62476136075E+02  0.52903595955E+02  0.19946330953E+03  0.24926950114E+03  0.12509042452E+03 0.  0.
          5    1    3    3  502    0  0.14930830542E+02 -0.40910234215E+02  0.68034353488E+02  0.80887097975E+02  0.41800000000E+01 0.  1.
         -5    1    3    3    0  502  0.47545305533E+02  0.93813830170E+02  0.13142895605E+03  0.16838240317E+03  0.41800000000E+01 0.  1.
        -11    1    1    2    0    0  0.13066562722E+02 -0.16853037660E+02  0.24523083281E+02  0.32498331547E+02  0.00000000000E+00 0.  1.
         11    1    1    2    0    0 -0.75542698797E+02 -0.36050558294E+02  0.44723181438E+03  0.45499740427E+03  0.00000000000E+00 0. -1.
</event>
<event>
 7    1  0.2719869E-009  0.7400158E+02  0.7561462E-02  0.1346991E+00
          2   -1    0    0  501    0  0.00000000000E+00  0.00000000000E+00  0.54450298456E+03  0.54450298456E+03  0.00000000000E+00 0. -1.
         -2   -1    0    0    0  501 -0.00000000000E+00 -0.00000000000E+00 -0.28680818900E+02  0.28680818900E+02  0.00000000000E+00 0.  1.
         25    2    1    2    0    0  0.12572241644E+02  0.70170065502E+01  0.45256206092E+03  0.46975207770E+03  0.12508915172E+03 0.  0.
          5    1    3    3  502    0  0.16979597701E+02  0.37752272605E+02  0.42779951734E+03  0.42981791524E+03  0.41800000000E+01 0.  1.
         -5    1    3    3    0  502 -0.44073560569E+01 -0.30735266054E+02  0.24762543579E+02  0.39934162459E+02  0.41800000000E+01 0.  1.
        -11    1    1    2    0    0  0.65197025770E+01  0.31452653635E+02  0.73859838248E+01  0.32959500898E+02  0.00000000000E+00 0.  1.
         11    1    1    2    0    0 -0.19091944221E+02 -0.38469660185E+02  0.55874120915E+02  0.70472224862E+02  0.00000000000E+00 0. -1.
</event>
<event>
 7    1  0.2719869E-009  0.1553671E+03  0.7561462E-02  0.1194029E+00
         -4   -1    0    0    0  501 -0.00000000000E+00  0.00000000000E+00  0.19496587802E+03  0.19496587802E+03  0.00000000000E+00 0.  1.
          4   -1    0    0  501    0  0.00000000000E+00 -0.00000000000E+00 -0.15062515968E+03  0.15062515968E+03  0.00000000000E+00 0. -1.
         25    2    1    2    0    0 -0.42946974667E+02 -0.10502485389E+03  0.85338920350E+02  0.18922414454E+03  0.12509349697E+03 0.  0.
          5    1    3    3  502    0 -0.28528266439E+02  0.24089481826E+02  0.29430956434E+02  0.47726499110E+02  0.41800000000E+01 0. -1.
         -5    1    3    3    0  502 -0.14418708228E+02 -0.12911433571E+03  0.55907963916E+02  0.14149764543E+03  0.41800000000E+01 0. -1.
        -11    1    1    2    0    0  0.62429244902E+02  0.37337080629E+02 -0.45478076215E+02  0.85788831588E+02  0.00000000000E+00 0.  1.
         11    1    1    2    0    0 -0.19482270235E+02  0.67687773258E+02  0.44798742048E+01  0.70578061571E+02  0.00000000000E+00 0. -1.
</event>
<event>
 7    1  0.2719869E-009  0.5684275E+02  0.7561462E-02  0.1411580E+00
          1   -1    0    0  501    0  0.00000000000E+00  0.00000000000E+00  0.83003639635E+02  0.83003639635E+02  0.00000000000E+00 0. -1.
         -1   -1    0    0    0  501 -0.00000000000E+00 -0.00000000000E+00 -0.14485380562E+03  0.14485380562E+03  0.00000000000E+00 0.  1.
         25    2    1    2    0    0 -0.29662891748E+01  0.11037518519E+02 -0.49877124148E+02  0.13515136565E+03  0.12509012126E+03 0.  0.
          5    1    3    3  502    0 -0.24696186253E+02 -0.97450479920E+01 -0.84753895183E+02  0.88913231436E+02  0.41800000000E+01 0. -1.
         -5    1    3    3    0  502  0.21729897078E+02  0.20782566511E+02  0.34876771035E+02  0.46238134215E+02  0.41800000000E+01 0. -1.
        -11    1    1    2    0    0  0.17576504621E+02 -0.28623007605E+02 -0.42749628362E+02  0.54366725155E+02  0.00000000000E+00 0.  1.
         11    1    1    2    0    0 -0.14610215446E+02  0.17585489085E+02  0.30776586522E+02  0.38339354451E+02  0.00000000000E+00 0. -1.
</event>
<event>
 7    1  0.2719869E-009  0.9116893E+02  0.7561462E-02  0.1300045E+00
         -2   -1    0    0    0  501 -0.00000000000E+00  0.00000000000E+00  0.20312583689E+03  0.20312583689E+03  0.00000000000E+00 0.  1.
          2   -1    0    0  501    0  0.00000000000E+00 -0.00000000000E+00 -0.60128453042E+02  0.60128453042E+02  0.00000000000E+00 0. -1.
         25    2    1    2    0    0 -0.35180611793E+01 -0.21895953932E+02  0.93782027668E+02  0.15790602583E+03  0.12508970672E+03 0.  0.
          5    1    3    3  502    0 -0.32210109370E+02 -0.65625809737E+02  0.65785292364E+02  0.98434826869E+02  0.41800000000E+01 0.  1.
         -5    1    3    3    0  502  0.28692048190E+02  0.43729855805E+02  0.27996735304E+02  0.59471198960E+02  0.41800000000E+01 0.  1.
        -11    1    1    2    0    0  0.10917364516E+02 -0.15257960707E+02  0.62459435410E+02  0.65216372827E+02  0.00000000000E+00 0.  1.
         11    1    1    2    0    0 -0.73993033369E+01  0.37153914639E+02 -0.13244079229E+02  0.40131891277E+02  0.00000000000E+00 0. -1.
</event>
<event>
 7    1  0.2719869E-009  0.4659217E+02  0.7561462E-02  0.1464640E+00
         -2   -1    0    0    0  501 -0.00000000000E+00  0.00000000000E+00  0.26237593781E+02  0.26237593781E+02  0.00000000000E+00 0.  1.
          2   -1    0    0  501    0  0.00000000000E+00 -0.00000000000E+00 -0.45119735086E+03  0.45119735086E+03  0.00000000000E+00 0. -1.
         25    2    1    2    0    0  0.46657378394E+01 -0.51231759138E+01 -0.26172464497E+03  0.29016035391E+03  0.12508087445E+03 0.  0.
          5    1    3    3  502    0  0.13017681300E+02 -0.14434214116E+02  0.70258139008E+01  0.21086512859E+02  0.41800000000E+01 0.  1.
         -5    1    3    3    0  502 -0.83519434604E+01  0.93110382026E+01 -0.26875045887E+03  0.26907384105E+03  0.41800000000E+01 0.  1.
        -11    1    1    2    0    0 -0.32201968370E+02  0.58665859766E+00 -0.13435050012E+02  0.34897156102E+02  0.00000000000E+00 0.  1.
         11    1    1    2    0    0  0.27536230530E+02  0.45365173162E+01 -0.14980006209E+03  0.15237743463E+03  0.00000000000E+00 0. -1.
</event>
<event>
 7    1  0.2719869E-009  0.9295221E+02  0.7561462E-02  0.1295856E+00
          1   -1    0    0  501    0  0.00000000000E+00  0.00000000000E+00  0.13948778411E+03  0.13948778411E+03  0.00000000000E+00 0. -1.
         -1   -1    0    0    0  501 -0.00000000000E+00 -0.00000000000E+00 -0.10422279905E+03  0.10422279905E+03  0.00000000000E+00 0.  1.
         25    2    1    2    0    0 -0.10214484570E+02 -0.25179151236E+02 -0.25844662230E+02  0.13059456905E+03  0.12509464236E+03 0.  0.
          5    1    3    3  502    0  0.93357931493E+01  0.44422345768E+02  0.14326239359E+02  0.47783002955E+02  0.41800000000E+01 0. -1.
         -5    1    3    3    0  502 -0.19550277719E+02 -0.69601497004E+02 -0.40170901589E+02  0.82811566092E+02  0.41800000000E+01 0. -1.
        -11    1    1    2    0    0 -0.15568979665E+02  0.36547380109E+02  0.72541823084E+02  0.82706832952E+02  0.00000000000E+00 0. -1.
         11    1    1    2    0    0  0.25783464235E+02 -0.11368228873E+02 -0.11432175795E+02  0.30409181164E+02  0.00000000000E+00 0.  1.
</event>
<event>
 7    1  0.2719869E-009  0.1499334E+03  0.7561462E-02  0.1200555E+00
         -1   -1    0    0    0  501 -0.00000000000E+00  0.00000000000E+00  0.34676921243E+02  0.34676921243E+02  0.00000000000E+00 0.  1.
          1   -1    0    0  501    0  0.00000000000E+00 -0.00000000000E+00 -0.74049893635E+03  0.74049893635E+03  0.00000000000E+00 0. -1.
         25    2    1    2    0    0 -0.80659560333E+02  0.70129194323E+02 -0.26474639985E+03  0.31171001042E+03  0.12509358813E+03 0.  0.
          5    1    3    3  502    0 -0.48844855097E+02 -0.30899078361E+02 -0.81273652446E+02  0.99817092198E+02  0.41800000000E+01 0. -1.
         -5    1    3    3    0  502 -0.31814705236E+02  0.10102827268E+03 -0.18347274741E+03  0.21189291822E+03  0.41800000000E+01 0. -1.
        -11    1    1    2    0    0 -0.97359176240E+01 -0.39177089176E+02 -0.20219000376E+03  0.20618057627E+03  0.00000000000E+00 0. -1.
         11    1    1    2    0    0  0.90395477957E+02 -0.30952105147E+02 -0.23888561149E+03  0.25728527090E+03  0.00000000000E+00 0.  1.
</event>
<event>
 7    1  0.2719869E-009  0.7582700E+02  0.7561462E-02  0.1341329E+00
         -2   -1    0    0    0  501 -0.00000000000E+00  0.00000000000E+00  0.28544937001E+03  0.28544937001E+03  0.00000000000E+00 0.  1.
          2   -1    0    0  501    0  0.00000000000E+00 -0.00000000000E+00 -0.44346751536E+02  0.44346751536E+02  0.00000000000E+00 0. -1.
         25    2    1    2    0    0  0.13176270066E+02 -0.17115206772E+02  0.10730479984E+03  0.16621759047E+03  0.12508965952E+03 0.  0.
          5    1    3    3  502    0  0.23823124309E+02 -0.50384794902E+02  0.28107644128E+01  0.55960178750E+02  0.41800000000E+01 0.  1.
         -5    1    3    3    0  502 -0.10646854243E+02  0.33269588130E+02  0.10449403543E+03  0.11025741172E+03  0.41800000000E+01 0.  1.
        -11    1    1    2    0    0  0.10776899606E+02  0.31053406387E+02  0.13175128910E+03  0.13578975585E+03  0.00000000000E+00 0.  1.
         11    1    1    2    0    0 -0.23953169672E+02 -0.13938199615E+02  0.20465295401E+01  0.27788775234E+02  0.00000000000E+00 0. -1.
</event>
<event>
 7    1  0.2719869E-009  0.9000544E+02  0.7561462E-02  0.1302839E+00
          2   -1    0    0  501    0  0.00000000000E+00  0.00000000000E+00  0.54609351715E+03  0.54609351715E+03  0.00000000000E+00 0. -1.
         -2   -1    0    0    0  501 -0.00000000000E+00 -0.00000000000E+00 -0.71189751302E+02  0.71189751302E+02  0.00000000000E+00 0.  1.
         25    2    1    2    0    0 -0.63822396312E+02  0.47104832984E+02  0.23211326007E+02  0.14992786507E+03  0.12508970984E+03 0.  0.
          5    1    3    3  502    0 -0.14966001130E+02  0.26973158048E+02 -0.50387673524E+02  0.59227717229E+02  0.41800000000E+01 0. -1.
         -5    1    3    3    0  502 -0.48856395182E+02  0.20131674937E+02  0.73598999532E+02  0.90700147839E+02  0.41800000000E+01 0. -1.
        -11    1    1    2    0    0  0.62563709049E+02 -0.57757998216E+02  0.44798548634E+03  0.45600570174E+03  0.00000000000E+00 0. -1.
         11    1    1    2    0    0  0.12586872627E+01  0.10653165232E+02  0.37069534931E+01  0.11349701638E+02  0.00000000000E+00 0.  1.
</event>
<event>
 7    1  0.2719869E-009  0.8633376E+02  0.7561462E-02  0.1311981E+00
         -2   -1    0    0    0  501 -0.00000000000E+00  0.00000000000E+00  0.11491288210E+03  0.11491288210E+03  0.00000000000E+00 0.  1.
          2   -1    0    0  501    0  0.00000000000E+00 -0.00000000000E+00 -0.12287298783E+03  0.12287298783E+03  0.00000000000E+00 0. -1.
         25    2    1    2    0    0  0.15408949779E+02 -0.26905379364E+02 -0.13589481499E+02  0.12958809348E+03  0.12508822803E+03 0.  0.
          5    1    3    3  502    0 -0.19550399385E+02 -0.61379666845E+02 -0.37672439512E+02  0.74742001023E+02  0.41800000000E+01 0. -1.
         -5    1    3    3    0  502  0.34959349164E+02  0.34474287481E+02  0.24082958012E+02  0.54846092458E+02  0.41800000000E+01 0. -1.
        -11    1    1    2    0    0  0.80143530973E+01  0.33547386111E+02  0.48132787885E+02  0.59215050789E+02  0.00000000000E+00 0.  1.
         11    1    1    2    0    0 -0.23423302876E+02 -0.66420067467E+01 -0.42503412114E+02  0.48982725655E+02  0.00000000000E+00 0. -1.
</event>
<event>
 7    1  0.2719869E-009  0.9682058E+02  0.7561462E-02  0.1287128E+00
         -4   -1    0    0    0  501 -0.00000000000E+00  0.00000000000E+00  0.10529446405E+03  0.10529446405E+03  0.00000000000E+00 0.  1.
          4   -1    0    0  501    0  0.00000000000E+00 -0.00000000000E+00 -0.12577654127E+03  0.12577654127E+03  0.00000000000E+00 0. -1.
         25    2    1    2    0    0 -0.32583515560E+02 -0.67269616140E+01  0.71394672440E+01  0.12963299216E+03  0.12508718225E+03 0.  0.
          5    1    3    3  502    0 -0.66374259250E+02  0.80352785381E+01  0.41711285348E+02  0.78913951349E+02  0.41800000000E+01 0. -1.
         -5    1    3    3    0  502  0.33790743690E+02 -0.14762240152E+02 -0.34571818104E+02  0.50719040808E+02  0.41800000000E+01 0. -1.
        -11    1    1    2    0    0 -0.25870348007E+02 -0.11500082010E+02  0.94661330994E+01  0.29851875453E+02  0.00000000000E+00 0.  1.
         11    1    1    2    0    0  0.58453863567E+02  0.18227043624E+02 -0.37087677566E+02  0.71586137712E+02  0.00000000000E+00 0. -1.
</event>
<event>
 7    1  0.3760435E-009  0.1086656E+03  0.7561462E-02  0.1263061E+00
          1   -1    0    0  501    0  0.00000000000E+00  0.00000000000E+00  0.17508415813E+03  0.17508415813E+03  0.00000000000E+00 0. -1.
         -1   -1    0    0    0  501 -0.00000000000E+00 -0.00000000000E+00 -0.11268447097E+03  0.11268447097E+03  0.00000000000E+00 0.  1.
         25    2    1    2    0    0  0.52537616941E+02 -0.17191137629E+02 -0.37300974618E+02  0.14175390482E+03  0.12508825052E+03 0.  0.
          5    1    3    3  502    0  0.20594653431E+02  0.54352467461E+02 -0.14625758561E+02  0.60080909468E+02  0.41800000000E+01 0.  1.
         -5    1    3    3    0  502  0.31942963511E+02 -0.71543605090E+02 -0.22675216057E+02  0.81672995355E+02  0.41800000000E+01 0.  1.
        -11    1    1    2    0    0 -0.34460831323E+02 -0.19570157735E+02  0.15524476221E+01  0.39660434477E+02  0.00000000000E+00 0.  1.
         11    1    1    2    0    0 -0.18076785618E+02  0.36761295364E+02  0.98148214163E+02  0.10635428980E+03  0.00000000000E+00 0. -1.
</event>
<event>
 7    1  0.2719869E-009  0.9906627E+02  0.7561462E-02  0.1282272E+00
         -1   -1    0    0    0  501 -0.00000000000E+00  0.00000000000E+00  0.19679278482E+03  0.19679278482E+03  0.00000000000E+00 0.  1.
          1   -1    0    0  501    0  0.00000000000E+00 -0.00000000000E+00 -0.16193897975E+03  0.16193897975E+03  0.00000000000E+00 0. -1.
         25    2    1    2    0    0  0.39274069914E+02  0.46553069118E+02  0.14667145726E+03  0.20217917019E+03  0.12511698394E+03 0.  0.
          5    1    3    3  502    0 -0.61194357399E+01 -0.12179354938E+02  0.12347753418E+03  0.12429786011E+03  0.41800000000E+01 0. -1.
         -5    1    3    3    0  502  0.45393505654E+02  0.58732424056E+02  0.23193923081E+02  0.77881310075E+02  0.41800000000E+01 0. -1.
        -11    1    1    2    0    0 -0.60632880760E+01 -0.69113823725E+02 -0.72892829935E+02  0.10063224507E+03  0.00000000000E+00 0.  1.
         11    1    1    2    0    0 -0.33210781838E+02  0.22560754606E+02 -0.38924822267E+02  0.55920349312E+02  0.00000000000E+00 0. -1.
</event>
<event>
 7    1  0.2719869E-009  0.1294986E+03  0.7561462E-02  0.1228202E+00
          1   -1    0    0  501    0  0.00000000000E+00  0.00000000000E+00  0.20190324428E+04  0.20190324428E+04  0.00000000000E+00 0. -1.
         -1   -1    0    0    0  501 -0.00000000000E+00 -0.00000000000E+00 -0.13366671686E+02  0.13366671686E+02  0.00000000000E+00 0.  1.
         25    2    1    2    0    0 -0.16178449869E+02 -0.90596611991E+02  0.15625553664E+04  0.15702524412E+04  0.12507584831E+03 0.  0.
          5    1    3    3  502    0  0.38337398491E+02 -0.16381878858E+02  0.93755848987E+03  0.93849428149E+03  0.41800000000E+01 0. -1.
         -5    1    3    3    0  502 -0.54515848360E+02 -0.74214733132E+02  0.62499687654E+03  0.63175815975E+03  0.41800000000E+01 0. -1.
        -11    1    1    2    0    0  0.28890440296E+02  0.10310892671E+03  0.41697557046E+03  0.43050520864E+03  0.00000000000E+00 0. -1.
         11    1    1    2    0    0 -0.12711990428E+02 -0.12512314719E+02  0.26134834246E+02  0.31641464588E+02  0.00000000000E+00 0.  1.
</event>
<event>
 7    1  0.2719869E-009  0.3096047E+03  0.7561462E-02  0.1080535E+00
         -2   -1    0    0    0  501 -0.00000000000E+00  0.00000000000E+00  0.98704795972E+02  0.98704795972E+02  0.00000000000E+00 0.  1.
          2   -1    0    0  501    0  0.00000000000E+00 -0.00000000000E+00 -0.10338437378E+04  0.10338437378E+04  0.00000000000E+00 0. -1.
         25    2    1    2    0    0 -0.27039465636E+03  0.11483714142E+03 -0.36000782878E+03  0.48120163984E+03  0.12509413323E+03 0.  0.
          5    1    3    3  502    0 -0.27851404314E+03  0.11993515650E+03 -0.32435959305E+03  0.44405082141E+03  0.41800000000E+01 0. -1.
         -5    1    3    3    0  502  0.81193867837E+01 -0.50980150836E+01 -0.35648235731E+02  0.37150818434E+02  0.41800000000E+01 0. -1.
        -11    1    1    2    0    0  0.11916802509E+03 -0.96119615131E+02 -0.27486111329E+03  0.31462458616E+03  0.00000000000E+00 0. -1.
         11    1    1    2    0    0  0.15122663126E+03 -0.18717526286E+02 -0.30026999973E+03  0.33672230774E+03  0.00000000000E+00 0.  1.
</event>
<event>
 7    1  0.2719869E-009  0.1730375E+03  0.7561462E-02  0.1174717E+00
         -1   -1    0    0    0  501 -0.00000000000E+00  0.00000000000E+00  0.22034891877E+02  0.22034891877E+02  0.00000000000E+00 0.  1.
          1   -1    0    0  501    0  0.00000000000E+00 -0.00000000000E+00 -0.14104473351E+04  0.14104473351E+04  0.00000000000E+00 0. -1.
         25    2    1    2    0    0 -0.55475933104E+02 -0.12568133613E+03 -0.64066799885E+03  0.66706524501E+03  0.12508868430E+03 0.  0.
          5    1    3    3  502    0 -0.79133978577E+02 -0.31084805735E+02 -0.23889028258E+03  0.25360301896E+03  0.41800000000E+01 0.  1.
         -5    1    3    3    0  502  0.23658045474E+02 -0.94596530392E+02 -0.40177771627E+03  0.41346222605E+03  0.41800000000E+01 0.  1.
        -11    1    1    2    0    0 -0.86708473426E+01 -0.10021716287E+02 -0.51629924509E+02  0.53303541119E+02  0.00000000000E+00 0. -1.
         11    1    1    2    0    0  0.64146780446E+02  0.13570305241E+03 -0.69611451983E+03  0.71211344082E+03  0.00000000000E+00 0.  1.
</event>
<event>
 7    1  0.2719869E-009  0.1214149E+03  0.7561462E-02  0.1240781E+00
          2   -1    0    0  501    0  0.00000000000E+00  0.00000000000E+00  0.48602244922E+03  0.48602244922E+03  0.00000000000E+00 0. -1.
         -2   -1    0    0    0  501 -0.00000000000E+00 -0.00000000000E+00 -0.42671996250E+02  0.42671996250E+02  0.00000000000E+00 0.  1.
         25    2    1    2    0    0  0.33364339562E+02  0.57606577108E+02  0.11856194857E+03  0.18476057551E+03  0.12509131758E+03 0.  0.
          5    1    3    3  502    0  0.55744093004E+02  0.83232875760E+02  0.11115050573E+03  0.14968975528E+03  0.41800000000E+01 0.  1.
         -5    1    3    3    0  502 -0.22379753442E+02 -0.25626298652E+02  0.74114428408E+01  0.35070820232E+02  0.41800000000E+01 0.  1.
        -11    1    1    2    0    0 -0.59462237410E+02 -0.56718955938E+02  0.19608324218E+03  0.21260629225E+03  0.00000000000E+00 0.  1.
         11    1    1    2    0    0  0.26097897849E+02 -0.88762116972E+00  0.12870526222E+03  0.13132757771E+03  0.00000000000E+00 0. -1.
</event>
<event>
 7    1  0.2719869E-009  0.1692246E+03  0.7561462E-02  0.1178659E+00
          2   -1    0    0  501    0  0.00000000000E+00  0.00000000000E+00  0.10460006459E+03  0.10460006459E+03  0.00000000000E+00 0. -1.
         -2   -1    0    0    0  501 -0.00000000000E+00 -0.00000000000E+00 -0.34795056560E+03  0.34795056560E+03  0.00000000000E+00 0.  1.
         25    2    1    2    0    0 -0.12862726517E+03  0.67154966845E+02 -0.19601858024E+03  0.27409170345E+03  0.12509282627E+03 0.  0.
          5    1    3    3  502    0 -0.24443292803E+02  0.82215186377E+02 -0.79747854703E+02  0.11719216767E+03  0.41800000000E+01 0. -1.
         -5    1    3    3    0  502 -0.10418397236E+03 -0.15060219532E+02 -0.11627072553E+03  0.15689953577E+03  0.41800000000E+01 0. -1.
        -11    1    1    2    0    0  0.92639200372E+02 -0.35209689857E+02 -0.73776353516E+02  0.12355037047E+03  0.00000000000E+00 0.  1.
         11    1    1    2    0    0  0.35988064794E+02 -0.31945276988E+02  0.26444432744E+02  0.54908556279E+02  0.00000000000E+00 0. -1.
</event>
<event>
 7    1  0.2719869E-009  0.1885983E+03  0.7561462E-02  0.1159732E+00
          2   -1    0    0  501    0  0.00000000000E+00  0.00000000000E+00  0.21557955057E+03  0.21557955057E+03  0.00000000000E+00 0.  1.
         -2   -1    0    0    0  501 -0.00000000000E+00 -0.00000000000E+00 -0.18158297423E+03  0.18158297423E+03  0.00000000000E+00 0. -1.
         25    2    1    2    0    0 -0.12085160001E+03  0.11156823324E+03  0.37561286977E+02  0.21002289178E+03  0.12508471090E+03 0.  0.
          5    1    3    3  502    0 -0.12504937209E+03  0.13238876530E+03  0.22258187724E+02  0.18351302395E+03  0.41800000000E+01 0. -1.
         -5    1    3    3    0  502  0.41977720890E+01 -0.20820532057E+02  0.15303099253E+02  0.26509867831E+02  0.41800000000E+01 0. -1.
        -11    1    1    2    0    0  0.72269671336E+02 -0.29576821850E+02 -0.36644193890E+02  0.86258279207E+02  0.00000000000E+00 0.  1.
         11    1    1    2    0    0  0.48581928669E+02 -0.81991411388E+02  0.33079483258E+02  0.10088135381E+03  0.00000000000E+00 0. -1.
</event>
<event>
 7    1  0.2719869E-009  0.1427350E+03  0.7561462E-02  0.1209696E+00
          1   -1    0    0  501    0  0.00000000000E+00  0.00000000000E+00  0.41198717070E+03  0.41198717070E+03  0.00000000000E+00 0. -1.
         -1   -1    0    0    0  501 -0.00000000000E+00 -0.00000000000E+00 -0.59112908091E+02  0.59112908091E+02  0.00000000000E+00 0.  1.
         25    2    1    2    0    0  0.45279351748E+02  0.78617607048E+02  0.27753403147E+03  0.31765438395E+03  0.12509285025E+03 0.  0.
          5    1    3    3  502    0 -0.21289884328E+02 -0.22197732544E+02  0.35815647086E+02  0.47394424577E+02  0.41800000000E+01 0.  1.
         -5    1    3    3    0  502  0.66569236076E+02  0.10081533959E+03  0.24171838439E+03  0.27025995937E+03  0.41800000000E+01 0.  1.
        -11    1    1    2    0    0 -0.69374594040E+02 -0.83912882867E+02  0.58756177186E+02  0.12371941871E+03  0.00000000000E+00 0.  1.
         11    1    1    2    0    0  0.24095242292E+02  0.52952758196E+01  0.16584053952E+02  0.29726276131E+02  0.00000000000E+00 0. -1.
</event>
<event>
 7    1  0.2719869E-009  0.1057478E+03  0.7561462E-02  0.1268653E+00
          1   -1    0    0  501    0  0.00000000000E+00  0.00000000000E+00  0.10705874410E+03  0.10705874410E+03  0.00000000000E+00 0. -1.
         -1   -1    0    0    0  501 -0.00000000000E+00 -0.00000000000E+00 -0.21316865438E+03  0.21316865438E+03  0.00000000000E+00 0.  1.
         25    2    1    2    0    0 -0.64803420508E+02  0.59868410799E+02  0.28652259469E+01  0.15310111022E+03  0.12509208812E+03 0.  0.
          5    1    3    3  502    0 -0.82454964325E+02  0.52462277299E+02  0.44212186636E+02  0.10734664191E+03  0.41800000000E+01 0.  1.
         -5    1    3    3    0  502  0.17651543817E+02  0.74061334998E+01 -0.41346960690E+02  0.45754468315E+02  0.41800000000E+01 0.  1.
        -11    1    1    2    0    0  0.55729086855E+02 -0.30890735933E+02 -0.11913693706E+03  0.13510580469E+03  0.00000000000E+00 0.  1.
         11    1    1    2    0    0  0.90743336529E+01 -0.28977674866E+02  0.10161800832E+02  0.32020483569E+02  0.00000000000E+00 0. -1.
</event>
<event>
 7    1  0.2719869E-009  0.1046765E+03  0.7561462E-02  0.1270758E+00
         -2   -1    0    0    0  501 -0.00000000000E+00  0.00000000000E+00  0.14789389260E+02  0.14789389260E+02  0.00000000000E+00 0.  1.
          2   -1    0    0  501    0  0.00000000000E+00 -0.00000000000E+00 -0.17114778088E+04  0.17114778088E+04  0.00000000000E+00 0. -1.
         25    2    1    2    0    0  0.13206344824E+02 -0.34713020920E+02 -0.15047081800E+04  0.15103555997E+04  0.12509168359E+03 0.  0.
          5    1    3    3  502    0  0.23959022664E+02  0.38253627537E+02 -0.90179101471E+03  0.90292961043E+03  0.41800000000E+01 0. -1.
         -5    1    3    3    0  502 -0.10752677840E+02 -0.72966648457E+02 -0.60291716528E+03  0.60742598929E+03  0.41800000000E+01 0. -1.
        -11    1    1    2    0    0  0.22599787792E+02  0.47116222579E+02 -0.15242836655E+03  0.16113688519E+03  0.00000000000E+00 0. -1.
         11    1    1    2    0    0 -0.35806132616E+02 -0.12403201659E+02 -0.39551873026E+02  0.54774713182E+02  0.00000000000E+00 0.  1.
</event>
<event>
 7    1  0.2719869E-009  0.1233248E+03  0.7561462E-02  0.1237711E+00
         -1   -1    0    0    0  501 -0.00000000000E+00  0.00000000000E+00  0.54207123363E+03  0.54207123363E+03  0.00000000000E+00 0.  1.
          1   -1    0    0  501    0  0.00000000000E+00 -0.00000000000E+00 -0.29953768838E+02  0.29953768838E+02  0.00000000000E+00 0. -1.
         25    2    1    2    0    0  0.63924442948E+02 -0.17616611435E+02  0.28268020881E+03  0.31615206305E+03  0.12508935651E+03 0.  0.
          5    1    3    3  502    0  0.33491879897E+02  0.49966839525E+02  0.79122718230E+02  0.99479987994E+02  0.41800000000E+01 0. -1.
         -5    1    3    3    0  502  0.30432563051E+02 -0.67583450959E+02  0.20355749058E+03  0.21667207506E+03  0.41800000000E+01 0. -1.
        -11    1    1    2    0    0  0.48669342365E+01  0.39598449215E+02  0.64865886347E+02  0.76153184048E+02  0.00000000000E+00 0. -1.
         11    1    1    2    0    0 -0.68791377185E+02 -0.21981837781E+02  0.16457136963E+03  0.17971975537E+03  0.00000000000E+00 0.  1.
</event>
<event>
 7    1  0.2719869E-009  0.7753998E+02  0.7561462E-02  0.1336181E+00
          1   -1    0    0  501    0  0.00000000000E+00  0.00000000000E+00  0.13627521581E+03  0.13627521581E+03  0.00000000000E+00 0. -1.
         -1   -1    0    0    0  501 -0.00000000000E+00 -0.00000000000E+00 -0.93005040093E+02  0.93005040093E+02  0.00000000000E+00 0.  1.
         25    2    1    2    0    0 -0.20284755508E+02 -0.10449139772E+02 -0.39839711019E+01  0.12721737409E+03  0.12509089662E+03 0.  0.
          5    1    3    3  502    0 -0.63383217498E+02 -0.28926383419E+02  0.22332668041E+02  0.73282933756E+02  0.41800000000E+01 0.  1.
         -5    1    3    3    0  502  0.43098461990E+02  0.18477243647E+02 -0.26316639143E+02  0.53934440337E+02  0.41800000000E+01 0.  1.
        -11    1    1    2    0    0  0.24698848583E+02 -0.22104338186E+01  0.70772694818E+02  0.74991289300E+02  0.00000000000E+00 0. -1.
         11    1    1    2    0    0 -0.44140930748E+01  0.12659573591E+02 -0.23518547998E+02  0.27071592512E+02  0.00000000000E+00 0.  1.
</event>
<event>
 7    1  0.2719869E-009  0.1471148E+03  0.7561462E-02  0.1204064E+00
         -1   -1    0    0    0  501 -0.00000000000E+00  0.00000000000E+00  0.71692795472E+03  0.71692795472E+03  0.00000000000E+00 0.  1.
          1   -1    0    0  501    0  0.00000000000E+00 -0.00000000000E+00 -0.64501327779E+02  0.64501327779E+02  0.00000000000E+00 0. -1.
         25    2    1    2    0    0  0.30623837547E+01 -0.10147406873E+03  0.62089508687E+03  0.64145500440E+03  0.12508976358E+03 0.  0.
          5    1    3    3  502    0  0.17783527304E+02  0.25279926129E+02  0.84441412381E+02  0.90017515148E+02  0.41800000000E+01 0.  1.
         -5    1    3    3    0  502 -0.14721143550E+02 -0.12675399486E+03  0.53645367449E+03  0.55143748925E+03  0.41800000000E+01 0.  1.
        -11    1    1    2    0    0  0.42543101726E+02  0.36935283303E+02  0.21550463657E+02  0.60320420597E+02  0.00000000000E+00 0.  1.
         11    1    1    2    0    0 -0.45605485480E+02  0.64538785424E+02  0.99810764207E+01  0.79653857511E+02  0.00000000000E+00 0. -1.
</event>
<event>
 7    1  0.2719869E-009  0.1201077E+03  0.7561462E-02  0.1242920E+00
          2   -1    0    0  501    0  0.00000000000E+00  0.00000000000E+00  0.18893385976E+03  0.18893385976E+03  0.00000000000E+00 0. -1.
         -2   -1    0    0    0  501 -0.00000000000E+00 -0.00000000000E+00 -0.94473224949E+02  0.94473224949E+02  0.00000000000E+00 0.  1.
         25    2    1    2    0    0 -0.42359584884E+02 -0.64428596712E+02  0.41394663781E+02  0.15266862802E+03  0.12509521688E+03 0.  0.
          5    1    3    3  502    0 -0.86049491889E+02 -0.32879532814E+02  0.33159316246E+02  0.97992812932E+02  0.41800000000E+01 0.  1.
         -5    1    3    3    0  502  0.43689907005E+02 -0.31549063898E+02  0.82353475351E+01  0.54675815092E+02  0.41800000000E+01 0.  1.
        -11    1    1    2    0    0  0.88273669503E+01 -0.93813515873E+01  0.47791672574E+02  0.49497233583E+02  0.00000000000E+00 0. -1.
         11    1    1    2    0    0  0.33532217933E+02  0.73809948299E+02  0.52742984597E+01  0.81241223106E+02  0.00000000000E+00 0.  1.
</event>
<event>
 7    1  0.2719869E-009  0.8817903E+02  0.7561462E-02  0.1307322E+00
         -1   -1    0    0    0  501 -0.00000000000E+00  0.00000000000E+00  0.10538587730E+03  0.10538587730E+03  0.00000000000E+00 0.  1.
          1   -1    0    0  501    0  0.00000000000E+00 -0.00000000000E+00 -0.12877647342E+03  0.12877647342E+03  0.00000000000E+00 0. -1.
         25    2    1    2    0    0 -0.19194560510E+02 -0.20881468575E+02 -0.44970091140E+02  0.13592080851E+03  0.12509072790E+03 0.  0.
          5    1    3    3  502    0  0.52497679193E+02 -0.19815740637E+02 -0.16233806183E+02  0.58563459263E+02  0.41800000000E+01 0. -1.
         -5    1    3    3    0  502 -0.71692239703E+02 -0.10657279375E+01 -0.28736284958E+02  0.77357349249E+02  0.41800000000E+01 0. -1.
        -11    1    1    2    0    0 -0.11969139347E+02  0.87479454935E+01  0.51362679889E+02  0.53459440068E+02  0.00000000000E+00 0.  1.
         11    1    1    2    0    0  0.31163699857E+02  0.12133523081E+02 -0.29783184874E+02  0.44782102143E+02  0.00000000000E+00 0. -1.
</event>
<event>
 7    1  0.2719869E-009  0.1727628E+03  0.7561462E-02  0.1174997E+00
         -4   -1    0    0    0  501 -0.00000000000E+00  0.00000000000E+00  0.14452341583E+03  0.14452341583E+03  0.00000000000E+00 0.  1.
          4   -1    0    0  501    0  0.00000000000E+00 -0.00000000000E+00 -0.23979492625E+03  0.23979492625E+03  0.00000000000E+00 0. -1.
         25    2    1    2    0    0 -0.11942521258E+03 -0.90751144204E+02 -0.64869929575E+02  0.20580644359E+03  0.12510009148E+03 0.  0.
          5    1    3    3  502    0 -0.10299033876E+02 -0.84324074627E+02 -0.38020006836E+02  0.93164440535E+02  0.41800000000E+01 0. -1.
         -5    1    3    3    0  502 -0.10912617870E+03 -0.64270695771E+01 -0.26849922739E+02  0.11264200306E+03  0.41800000000E+01 0. -1.
        -11    1    1    2    0    0  0.17255513082E+02  0.21865373222E+02  0.30292770614E+02  0.41152147324E+02  0.00000000000E+00 0.  1.
         11    1    1    2    0    0  0.10216969950E+03  0.68885770982E+02 -0.60694351457E+02  0.13735975116E+03  0.00000000000E+00 0. -1.
</event>
<event>
 7    1  0.2719869E-009  0.1028635E+03  0.7561462E-02  0.1274387E+00
          1   -1    0    0  501    0  0.00000000000E+00  0.00000000000E+00  0.21540394731E+03  0.21540394731E+03  0.00000000000E+00 0. -1.
         -1   -1    0    0    0  501 -0.00000000000E+00 -0.00000000000E+00 -0.61301885968E+02  0.61301885968E+02  0.00000000000E+00 0.  1.
         25    2    1    2    0    0  0.34382071159E+02 -0.95989083171E+01  0.76661166458E+02  0.15099193290E+03  0.12508942201E+03 0.  0.
          5    1    3    3  502    0 -0.46463219181E+02  0.66911117961E+01  0.33455845253E+02  0.57795914175E+02  0.41800000000E+01 0.  1.
         -5    1    3    3    0  502  0.80845290341E+02 -0.16290020113E+02  0.43205321205E+02  0.93196018724E+02  0.41800000000E+01 0.  1.
        -11    1    1    2    0    0 -0.54770688883E+02  0.97595416010E+01  0.11655478083E+02  0.56841245432E+02  0.00000000000E+00 0.  1.
         11    1    1    2    0    0  0.20388617723E+02 -0.16063328387E+00  0.65785416796E+02  0.68872654942E+02  0.00000000000E+00 0. -1.
</event>
<event>
 7    1  0.2719869E-009  0.1049444E+03  0.7561462E-02  0.1270229E+00
         -1   -1    0    0    0  501 -0.00000000000E+00  0.00000000000E+00  0.16518434789E+03  0.16518434789E+03  0.00000000000E+00 0.  1.
          1   -1    0    0  501    0  0.00000000000E+00 -0.00000000000E+00 -0.93830702511E+02  0.93830702511E+02  0.00000000000E+00 0. -1.
         25    2    1    2    0    0  0.31668294852E+02  0.22310124486E+02  0.94340270432E+02  0.16136298731E+03  0.12504920830E+03 0.  0.
          5    1    3    3  502    0  0.60292892078E+02 -0.25826666178E+02  0.79740845709E+02  0.10333597822E+03  0.41800000000E+01 0. -1.
         -5    1    3    3    0  502 -0.28624597226E+02  0.48136790664E+02  0.14599424723E+02  0.58027009091E+02  0.41800000000E+01 0. -1.
        -11    1    1    2    0    0 -0.58379970484E+02 -0.16510303159E+02  0.18808145015E+01  0.60698834646E+02  0.00000000000E+00 0.  1.
         11    1    1    2    0    0  0.26711675632E+02 -0.57998213266E+01 -0.24867439552E+02  0.36953228443E+02  0.00000000000E+00 0. -1.
</event>
<event>
 7    1  0.2719869E-009  0.1326669E+03  0.7561462E-02  0.1223551E+00
          2   -1    0    0  501    0  0.00000000000E+00  0.00000000000E+00  0.18512974862E+03  0.18512974862E+03  0.00000000000E+00 0. -1.
         -2   -1    0    0    0  501 -0.00000000000E+00 -0.00000000000E+00 -0.11777150219E+03  0.11777150219E+03  0.00000000000E+00 0.  1.
         25    2    1    2    0    0  0.79415151498E+02  0.15405734992E+00  0.99153044715E+02  0.17828513264E+03  0.12508985659E+03 0.  0.
          5    1    3    3  502    0 -0.12020174221E+02  0.43811382723E+02  0.41269806041E+02  0.61519030674E+02  0.41800000000E+01 0. -1.
         -5    1    3    3    0  502  0.91435325719E+02 -0.43657325373E+02  0.57883238675E+02  0.11676610196E+03  0.41800000000E+01 0. -1.
        -11    1    1    2    0    0 -0.91232546887E+02 -0.21655226109E+02 -0.15187970330E+02  0.94989477691E+02  0.00000000000E+00 0. -1.
         11    1    1    2    0    0  0.11817395389E+02  0.21501168759E+02 -0.16606827952E+02  0.29626640485E+02  0.00000000000E+00 0.  1.
</event>
<event>
 7    1  0.2719869E-009  0.9549992E+02  0.7561462E-02  0.1290054E+00
          1   -1    0    0  501    0  0.00000000000E+00  0.00000000000E+00  0.10532056519E+03  0.10532056519E+03  0.00000000000E+00 0. -1.
         -1   -1    0    0    0  501 -0.00000000000E+00 -0.00000000000E+00 -0.14367414591E+03  0.14367414591E+03  0.00000000000E+00 0.  1.
         25    2    1    2    0    0 -0.20239646264E+02 -0.40553724119E+02  0.11303022149E+02  0.13352693549E+03  0.12508971329E+03 0.  0.
          5    1    3    3  502    0 -0.50378127685E+02 -0.53941321952E+02  0.44713239765E+02  0.86396575009E+02  0.41800000000E+01 0.  1.
         -5    1    3    3    0  502  0.30138481420E+02  0.13387597833E+02 -0.33410217616E+02  0.47130360482E+02  0.41800000000E+01 0.  1.
        -11    1    1    2    0    0  0.33511074594E+02 -0.71933383087E+01 -0.55846716217E+02  0.65525506093E+02  0.00000000000E+00 0.  1.
         11    1    1    2    0    0 -0.13271428330E+02  0.47747062428E+02  0.61901133465E+01  0.49942269509E+02  0.00000000000E+00 0. -1.
</event>
<event>
 7    1  0.2719869E-009  0.1593051E+03  0.7561462E-02  0.1189484E+00
          1   -1    0    0  501    0  0.00000000000E+00  0.00000000000E+00  0.15993470607E+03  0.15993470607E+03  0.00000000000E+00 0. -1.
         -1   -1    0    0    0  501 -0.00000000000E+00 -0.00000000000E+00 -0.18551087585E+03  0.18551087585E+03  0.00000000000E+00 0.  1.
         25    2    1    2    0    0 -0.86444025123E+02  0.10079099652E+03 -0.96072986288E+01  0.18267792684E+03  0.12509008878E+03 0.  0.
          5    1    3    3  502    0  0.15674560769E+02  0.57413232130E+02  0.27389434624E+02  0.65647731171E+02  0.41800000000E+01 0. -1.
         -5    1    3    3    0  502 -0.10211858589E+03  0.43377764387E+02 -0.36996733253E+02  0.11703019567E+03  0.41800000000E+01 0. -1.
        -11    1    1    2    0    0  0.19719080846E+02 -0.73039902994E+02  0.25022453330E+02  0.79685586837E+02  0.00000000000E+00 0.  1.
         11    1    1    2    0    0  0.66724944277E+02 -0.27751093522E+02 -0.40991324478E+02  0.83082068239E+02  0.00000000000E+00 0. -1.
</event>
<event>
 7    1  0.2719869E-009  0.1256230E+03  0.7561462E-02  0.1234099E+00
          2   -1    0    0  501    0  0.00000000000E+00  0.00000000000E+00  0.29136295505E+03  0.29136295505E+03  0.00000000000E+00 0. -1.
         -2   -1    0    0    0  501 -0.00000000000E+00 -0.00000000000E+00 -0.68867624677E+02  0.68867624677E+02  0.00000000000E+00 0.  1.
         25    2    1    2    0    0 -0.52062862234E+02  0.50530465011E+02  0.19397767254E+03  0.24194848754E+03  0.12509142122E+03 0.  0.
          5    1    3    3  502    0 -0.90562216510E+02  0.16647567543E+02  0.13759407453E+03  0.16561478892E+03  0.41800000000E+01 0.  1.
         -5    1    3    3    0  502  0.38499354276E+02  0.33882897469E+02  0.56383598016E+02  0.76333698625E+02  0.41800000000E+01 0.  1.
        -11    1    1    2    0    0  0.18344762629E+02 -0.67443082486E+02 -0.17541230114E+01  0.69915496413E+02  0.00000000000E+00 0.  1.
         11    1    1    2    0    0  0.33718099606E+02  0.16912617475E+02  0.30271780840E+02  0.48366595767E+02  0.00000000000E+00 0. -1.
</event>
<event>
 6    1  0.3889565E-009  0.1392165E+03  0.7561462E-02  0.1214387E+00
          2   -1    0    0  501    0  0.00000000000E+00  0.00000000000E+00  0.83967172857E+03  0.83967172857E+03  0.00000000000E+00 0. -1.
         -2   -1    0    0    0  501 -0.00000000000E+00 -0.00000000000E+00 -0.23752253634E+02  0.23752253634E+02  0.00000000000E+00 0.  1.
          5    1    1    2  502    0 -0.10567247195E+03  0.51768034538E+02  0.38703300470E+03  0.40454742596E+03  0.41800000000E+01 0.  1.
         -5    1    1    2    0  502  0.35069455860E+02  0.33220389682E+01  0.94113761666E+02  0.10057721020E+03  0.41800000000E+01 0.  1.
        -11    1    1    2    0    0  0.61149798947E+02  0.77747026315E+01  0.20003809269E+03  0.20932028674E+03  0.00000000000E+00 0.  1.
         11    1    1    2    0    0  0.94532171480E+01 -0.62864776138E+02  0.13473461588E+03  0.14897905930E+03  0.00000000000E+00 0. -1.
</event>
<event>
 7    1  0.2719869E-009  0.6182469E+02  0.7561462E-02  0.1390330E+00
          1   -1    0    0  501    0  0.00000000000E+00  0.00000000000E+00  0.11925659332E+03  0.11925659332E+03  0.00000000000E+00 0. -1.
         -1   -1    0    0    0  501 -0.00000000000E+00 -0.00000000000E+00 -0.10970585365E+03  0.10970585365E+03  0.00000000000E+00 0.  1.
         25    2    1    2    0    0  0.29822526120E+02  0.11554436032E+02 -0.41879957422E+00  0.12911608382E+03  0.12509156507E+03 0.  0.
          5    1    3    3  502    0  0.27231691166E+02  0.32548655171E+01  0.60964215920E+02  0.66979602686E+02  0.41800000000E+01 0. -1.
         -5    1    3    3    0  502  0.25908349537E+01  0.82995705151E+01 -0.61383015494E+02  0.62136481133E+02  0.41800000000E+01 0. -1.
        -11    1    1    2    0    0 -0.14772517823E+02 -0.46190613585E+02  0.30074171274E+02  0.57063612259E+02  0.00000000000E+00 0. -1.
         11    1    1    2    0    0 -0.15050008297E+02  0.34636177553E+02 -0.20104632028E+02  0.42782750896E+02  0.00000000000E+00 0.  1.
</event>
<event>
 7    1  0.2719869E-009  0.1296498E+03  0.7561462E-02  0.1227976E+00
         -2   -1    0    0    0  501 -0.00000000000E+00  0.00000000000E+00  0.22596053213E+03  0.22596053213E+03  0.00000000000E+00 0.  1.
          2   -1    0    0  501    0  0.00000000000E+00 -0.00000000000E+00 -0.20405984793E+03  0.20405984793E+03  0.00000000000E+00 0. -1.
         25    2    1    2    0    0 -0.30874614428E+02 -0.75184562091E+02  0.17798055030E+03  0.23222912676E+03  0.12508929147E+03 0.  0.
          5    1    3    3  502    0  0.24910125822E+02  0.17776026148E+02  0.10393735880E+02  0.32588397009E+02  0.41800000000E+01 0. -1.
         -5    1    3    3    0  502 -0.55784740250E+02 -0.92960588239E+02  0.16758681442E+03  0.19964072975E+03  0.41800000000E+01 0. -1.
        -11    1    1    2    0    0 -0.27047054687E+02  0.49816197464E+02 -0.89732839720E+02  0.10613754859E+03  0.00000000000E+00 0. -1.
         11    1    1    2    0    0  0.57921669115E+02  0.25368364626E+02 -0.66347026378E+02  0.91653704705E+02  0.00000000000E+00 0.  1.
</event>
<event>
 7    1  0.2719869E-009  0.2107370E+03  0.7561462E-02  0.1140984E+00
          2   -1    0    0  501    0  0.00000000000E+00  0.00000000000E+00  0.39299216886E+03  0.39299216886E+03  0.00000000000E+00 0.  1.
         -2   -1    0    0    0  501 -0.00000000000E+00 -0.00000000000E+00 -0.12795990583E+03  0.12795990583E+03  0.00000000000E+00 0. -1.
         25    2    1    2    0    0 -0.18551521888E+03 -0.41589345832E+01  0.64560051133E+02  0.23292562996E+03  0.12511257218E+03 0.  0.
          5    1    3    3  502    0 -0.12777693307E+03  0.54610091625E+02  0.24281287605E+02  0.14112498029E+03  0.41800000000E+01 0.  1.
         -5    1    3    3    0  502 -0.57738285807E+02 -0.58769026209E+02  0.40278763529E+02  0.91800649676E+02  0.41800000000E+01 0.  1.
        -11    1    1    2    0    0  0.52266189010E+02  0.35365347027E+02  0.10001268164E+03  0.11825818692E+03  0.00000000000E+00 0.  1.
         11    1    1    2    0    0  0.13324902987E+03 -0.31206412444E+02  0.10045953026E+03  0.16976825781E+03  0.00000000000E+00 0. -1.
</event>
<event>
 7    1  0.2719869E-009  0.1106621E+03  0.7561462E-02  0.1259349E+00
          2   -1    0    0  501    0  0.00000000000E+00  0.00000000000E+00  0.30070555878E+03  0.30070555878E+03  0.00000000000E+00 0. -1.
         -2   -1    0    0    0  501 -0.00000000000E+00 -0.00000000000E+00 -0.55165946134E+02  0.55165946134E+02  0.00000000000E+00 0.  1.
         25    2    1    2    0    0 -0.57814329117E+02  0.30351993056E+01  0.18940745763E+03  0.23425404656E+03  0.12509222293E+03 0.  0.
          5    1    3    3  502    0 -0.93173792203E+02 -0.45019561301E+01  0.16751547637E+03  0.19178250803E+03  0.41800000000E+01 0. -1.
         -5    1    3    3    0  502  0.35359463086E+02  0.75371554357E+01  0.21891981260E+02  0.42471538532E+02  0.41800000000E+01 0. -1.
        -11    1    1    2    0    0  0.53883240449E+02 -0.31769448770E+02  0.48964422353E+01  0.62742940822E+02  0.00000000000E+00 0.  1.
         11    1    1    2    0    0  0.39310886678E+01  0.28734249464E+02  0.51235712787E+02  0.58874517537E+02  0.00000000000E+00 0. -1.
</event>
<event>
 7    1  0.2719869E-009  0.1194259E+03  0.7561462E-02  0.1244047E+00
         -1   -1    0    0    0  501 -0.00000000000E+00  0.00000000000E+00  0.47269331958E+03  0.47269331958E+03  0.00000000000E+00 0.  1.
          1   -1    0    0  501    0  0.00000000000E+00 -0.00000000000E+00 -0.32107319827E+02  0.32107319827E+02  0.00000000000E+00 0. -1.
         25    2    1    2    0    0 -0.89253803840E+01  0.57080136019E+02  0.22187921217E+03  0.26118264501E+03  0.12509270528E+03 0.  0.
          5    1    3    3  502    0 -0.20145817266E+02  0.92182511967E+02  0.11967259096E+03  0.15245481591E+03  0.41800000000E+01 0.  1.
         -5    1    3    3    0  502  0.11220436882E+02 -0.35102375948E+02  0.10220662121E+03  0.10872782910E+03  0.41800000000E+01 0.  1.
        -11    1    1    2    0    0 -0.39788047186E+02 -0.13690998377E+02  0.86886887687E+02  0.96539439543E+02  0.00000000000E+00 0.  1.
         11    1    1    2    0    0  0.48713427570E+02 -0.43389137643E+02  0.13181989989E+03  0.14707855486E+03  0.00000000000E+00 0. -1.
</event>
<event>
 7    1  0.2719869E-009  0.9260417E+02  0.7561462E-02  0.1296665E+00
         -2   -1    0    0    0  501 -0.00000000000E+00  0.00000000000E+00  0.42527001781E+03  0.42527001781E+03  0.00000000000E+00 0.  1.
          2   -1    0    0  501    0  0.00000000000E+00 -0.00000000000E+00 -0.28188951246E+02  0.28188951246E+02  0.00000000000E+00 0. -1.
         25    2    1    2    0    0 -0.12297259558E+02  0.54658834942E+01  0.24907205433E+03  0.27904375009E+03  0.12508967878E+03 0.  0.
          5    1    3    3  502    0 -0.62584078254E+02  0.99152947390E+01  0.77737280141E+02  0.10037747279E+03  0.41800000000E+01 0. -1.
         -5    1    3    3    0  502  0.50286818696E+02 -0.44494112448E+01  0.17133477419E+03  0.17866627729E+03  0.41800000000E+01 0. -1.
        -11    1    1    2    0    0  0.41379767053E+02  0.40018447783E+00  0.26047432123E+02  0.48896973211E+02  0.00000000000E+00 0. -1.
         11    1    1    2    0    0 -0.29082507496E+02 -0.58660679720E+01  0.12196158011E+03  0.12551824576E+03  0.00000000000E+00 0.  1.
</event>
<event>
 7    1  0.2719869E-009  0.1008277E+03  0.7561462E-02  0.1278565E+00
         -2   -1    0    0    0  501 -0.00000000000E+00  0.00000000000E+00  0.34718158780E+02  0.34718158780E+02  0.00000000000E+00 0.  1.
          2   -1    0    0  501    0  0.00000000000E+00 -0.00000000000E+00 -0.46444705349E+03  0.46444705349E+03  0.00000000000E+00 0. -1.
         25    2    1    2    0    0 -0.44873162808E+02 -0.48766819556E+02 -0.21790844917E+03  0.25985209648E+03  0.12508883402E+03 0.  0.
          5    1    3    3  502    0  0.14457338897E+02  0.15258096687E+02 -0.14345656379E+03  0.14504855137E+03  0.41800000000E+01 0.  1.
         -5    1    3    3    0  502 -0.59330501705E+02 -0.64024916243E+02 -0.74451885384E+02  0.11480354511E+03  0.41800000000E+01 0.  1.
        -11    1    1    2    0    0 -0.11316305934E+02  0.32387358987E+02 -0.22195571278E+02  0.40861267559E+02  0.00000000000E+00 0.  1.
         11    1    1    2    0    0  0.56189468742E+02  0.16379460569E+02 -0.18962487426E+03  0.19845184823E+03  0.00000000000E+00 0. -1.
</event>
<event>
 7    1  0.2719869E-009  0.1526038E+03  0.7561462E-02  0.1197309E+00
          1   -1    0    0  501    0  0.00000000000E+00  0.00000000000E+00  0.88732195032E+02  0.88732195032E+02  0.00000000000E+00 0. -1.
         -1   -1    0    0    0  501 -0.00000000000E+00 -0.00000000000E+00 -0.30476241989E+03  0.30476241989E+03  0.00000000000E+00 0.  1.
         25    2    1    2    0    0 -0.45611254090E+02 -0.11402661352E+03 -0.12723147357E+03  0.21660501517E+03  0.12508968638E+03 0.  0.
          5    1    3    3  502    0 -0.39636164297E+02 -0.13952838994E+03 -0.12197758248E+03  0.18956582009E+03  0.41800000000E+01 0.  1.
         -5    1    3    3    0  502 -0.59750897938E+01  0.25501776423E+02 -0.52538910979E+01  0.27039195077E+02  0.41800000000E+01 0.  1.
        -11    1    1    2    0    0  0.57568894337E+02  0.96170839648E+02 -0.10210027567E+03  0.15161620720E+03  0.00000000000E+00 0.  1.
         11    1    1    2    0    0 -0.11957640246E+02  0.17855773869E+02  0.13301524380E+02  0.25273392561E+02  0.00000000000E+00 0. -1.
</event>
<event>
 7    1  0.2719869E-009  0.1312530E+03  0.7561462E-02  0.1225608E+00
         -2   -1    0    0    0  501 -0.00000000000E+00  0.00000000000E+00  0.45287945622E+02  0.45287945622E+02  0.00000000000E+00 0.  1.
          2   -1    0    0  501    0  0.00000000000E+00 -0.00000000000E+00 -0.52397038913E+03  0.52397038913E+03  0.00000000000E+00 0. -1.
         25    2    1    2    0    0  0.94794199517E+02  0.28734320014E+02 -0.33133686018E+03  0.36775603452E+03  0.12509510225E+03 0.  0.
          5    1    3    3  502    0  0.29262963203E+02  0.60904017264E+02 -0.24711845719E+03  0.25622377840E+03  0.41800000000E+01 0. -1.
         -5    1    3    3    0  502  0.65531236314E+02 -0.32169697250E+02 -0.84218402993E+02  0.11153225613E+03  0.41800000000E+01 0. -1.
        -11    1    1    2    0    0 -0.11441782852E+02 -0.36233655220E+02 -0.78065940254E+01  0.38790914860E+02  0.00000000000E+00 0.  1.
         11    1    1    2    0    0 -0.83352416665E+02  0.74993352061E+01 -0.13953898930E+03  0.16271138537E+03  0.00000000000E+00 0. -1.
</event>
<event>
 7    1  0.2719869E-009  0.6995626E+02  0.7561462E-02  0.1360242E+00
          2   -1    0    0  501    0  0.00000000000E+00  0.00000000000E+00  0.12588996847E+03  0.12588996847E+03  0.00000000000E+00 0. -1.
         -2   -1    0    0    0  501 -0.00000000000E+00 -0.00000000000E+00 -0.14251843338E+03  0.14251843338E+03  0.00000000000E+00 0.  1.
         25    2    1    2    0    0 -0.14590801640E+02  0.81586528686E+01 -0.47833674413E+02  0.13496126545E+03  0.12508807959E+03 0.  0.
          5    1    3    3  502    0 -0.11418151049E+02 -0.34357548642E+01  0.42190528153E+02  0.44041930596E+02  0.41800000000E+01 0.  1.
         -5    1    3    3    0  502 -0.31726505908E+01  0.11594407733E+02 -0.90024202566E+02  0.90919334853E+02  0.41800000000E+01 0.  1.
        -11    1    1    2    0    0 -0.48934809969E+02  0.64746820084E+01 -0.17177874118E+02  0.52264868631E+02  0.00000000000E+00 0.  1.
         11    1    1    2    0    0  0.63525611609E+02 -0.14633334877E+02  0.48383083619E+02  0.81182267771E+02  0.00000000000E+00 0. -1.
</event>
<event>
 7    1  0.2719869E-009  0.1635414E+03  0.7561462E-02  0.1184756E+00
          2   -1    0    0  501    0  0.00000000000E+00  0.00000000000E+00  0.17110948981E+04  0.17110948981E+04  0.00000000000E+00 0. -1.
         -2   -1    0    0    0  501 -0.00000000000E+00 -0.00000000000E+00 -0.17147797006E+02  0.17147797006E+02  0.00000000000E+00 0.  1.
         25    2    1    2    0    0  0.30195150927E+02 -0.50704768129E+02  0.93988149336E+03  0.95000394510E+03  0.12509018146E+03 0.  0.
          5    1    3    3  502    0 -0.38435802534E+02  0.13180016764E+02  0.19496383493E+03  0.19919687018E+03  0.41800000000E+01 0. -1.
         -5    1    3    3    0  502  0.68630953462E+02 -0.63884784893E+02  0.74491765843E+03  0.75080707492E+03  0.41800000000E+01 0. -1.
        -11    1    1    2    0    0 -0.10566532916E+03  0.50018968505E+02  0.44721988218E+03  0.46224742511E+03  0.00000000000E+00 0. -1.
         11    1    1    2    0    0  0.75470178229E+02  0.68579962388E+00  0.30684572557E+03  0.31599132492E+03  0.00000000000E+00 0.  1.
</event>
<event>
 7    1  0.2719869E-009  0.7076937E+02  0.7561462E-02  0.1357496E+00
         -1   -1    0    0    0  501 -0.00000000000E+00  0.00000000000E+00  0.85546717151E+02  0.85546717151E+02  0.00000000000E+00 0.  1.
          1   -1    0    0  501    0  0.00000000000E+00 -0.00000000000E+00 -0.13994934496E+03  0.13994934496E+03  0.00000000000E+00 0. -1.
         25    2    1    2    0    0 -0.12980258414E+02  0.45786803127E+01 -0.43622876771E+02  0.13319964574E+03  0.12509891617E+03 0.  0.
          5    1    3    3  502    0  0.93396512244E+01  0.47982718680E+02 -0.63576947919E+02  0.80306108632E+02  0.41800000000E+01 0. -1.
         -5    1    3    3    0  502 -0.22319909638E+02 -0.43404038367E+02  0.19954071149E+02  0.52893537112E+02  0.41800000000E+01 0. -1.
        -11    1    1    2    0    0 -0.10547659269E+02 -0.14522614821E+02  0.35305400463E+02  0.39605943482E+02  0.00000000000E+00 0.  1.
         11    1    1    2    0    0  0.23527917683E+02  0.99439345078E+01 -0.46085151504E+02  0.52690472888E+02  0.00000000000E+00 0. -1.
</event>
<event>
 7    1  0.2719869E-009  0.7631260E+02  0.7561462E-02  0.1339854E+00
          2   -1    0    0  501    0  0.00000000000E+00  0.00000000000E+00  0.17834538273E+03  0.17834538273E+03  0.00000000000E+00 0. -1.
         -2   -1    0    0    0  501 -0.00000000000E+00 -0.00000000000E+00 -0.64442118574E+02  0.64442118574E+02  0.00000000000E+00 0.  1.
         25    2    1    2    0    0  0.20535025415E+02 -0.12328487049E+02  0.45508371322E+02  0.13524812187E+03  0.12508942301E+03 0.  0.
          5    1    3    3  502    0  0.22059538055E+01  0.29835240215E+02 -0.32646021203E+02  0.44477442499E+02  0.41800000000E+01 0. -1.
         -5    1    3    3    0  502  0.18329071610E+02 -0.42163727264E+02  0.78154392525E+02  0.90770679373E+02  0.41800000000E+01 0. -1.
        -11    1    1    2    0    0  0.14735072212E+02 -0.22362886124E+02  0.51966798314E+01  0.27280515211E+02  0.00000000000E+00 0. -1.
         11    1    1    2    0    0 -0.35270097628E+02  0.34691373172E+02  0.63198213001E+02  0.80258864219E+02  0.00000000000E+00 0.  1.
</event>
<event>
 7    1  0.2719869E-009  0.1186480E+03  0.7561462E-02  0.1245344E+00
         -2   -1    0    0    0  501 -0.00000000000E+00  0.00000000000E+00  0.73543688836E+02  0.73543688836E+02  0.00000000000E+00 0.  1.
          2   -1    0    0  501    0  0.00000000000E+00 -0.00000000000E+00 -0.27133193001E+03  0.27133193001E+03  0.00000000000E+00 0. -1.
         25    2    1    2    0    0 -0.83225541345E+02  0.25368690066E+02 -0.14043889963E+03  0.20722040300E+03  0.12508856751E+03 0.  0.
          5    1    3    3  502    0 -0.70586875593E+02 -0.35253756946E+02 -0.38546680337E+02  0.87912759881E+02  0.41800000000E+01 0.  1.
         -5    1    3    3    0  502 -0.12638665752E+02  0.60622447011E+02 -0.10189221930E+03  0.11930764312E+03  0.41800000000E+01 0.  1.
        -11    1    1    2    0    0  0.38866965249E+02 -0.33268844552E+02 -0.73705643950E+02  0.89721674949E+02  0.00000000000E+00 0. -1.
         11    1    1    2    0    0  0.44358576096E+02  0.79001544862E+01  0.16356302412E+02  0.47933540895E+02  0.00000000000E+00 0.  1.
</event>
<event>
 7    1  0.2719869E-009  0.1840933E+03  0.7561462E-02  0.1163899E+00
         -2   -1    0    0    0  501 -0.00000000000E+00  0.00000000000E+00  0.71483759827E+03  0.71483759827E+03  0.00000000000E+00 0.  1.
          2   -1    0    0  501    0  0.00000000000E+00 -0.00000000000E+00 -0.55601418644E+02  0.55601418644E+02  0.00000000000E+00 0. -1.
         25    2    1    2    0    0  0.14400831118E+03 -0.48200671095E+02  0.21215035145E+03  0.28933926793E+03  0.12509093478E+03 0.  0.
          5    1    3    3  502    0  0.15946351019E+03 -0.65836728881E+02  0.19183144325E+03  0.25803073649E+03  0.41800000000E+01 0. -1.
         -5    1    3    3    0  502 -0.15455199012E+02  0.17636057787E+02  0.20318908198E+02  0.31308531443E+02  0.41800000000E+01 0. -1.
        -11    1    1    2    0    0 -0.12259327528E+03  0.70055996547E+02  0.40613664761E+03  0.42998131393E+03  0.00000000000E+00 0.  1.
         11    1    1    2    0    0 -0.21415035899E+02 -0.21855325452E+02  0.40949180563E+02  0.51118435050E+02  0.00000000000E+00 0. -1.
</event>
<event>
 7    1  0.2719869E-009  0.1357473E+03  0.7561462E-02  0.1219169E+00
         -1   -1    0    0    0  501 -0.00000000000E+00  0.00000000000E+00  0.18301100503E+02  0.18301100503E+02  0.00000000000E+00 0.  1.
          1   -1    0    0  501    0  0.00000000000E+00 -0.00000000000E+00 -0.10580438759E+04  0.10580438759E+04  0.00000000000E+00 0. -1.
         25    2    1    2    0    0 -0.39234272828E+02  0.78269580512E+02 -0.48804015261E+03  0.51136722880E+03  0.12509115372E+03 0.  0.
          5    1    3    3  502    0 -0.35220812634E+02 -0.28343618669E+02 -0.12707387056E+03  0.13494112546E+03  0.41800000000E+01 0. -1.
         -5    1    3    3    0  502 -0.40134601939E+01  0.10661319918E+03 -0.36096628204E+03  0.37642610334E+03  0.41800000000E+01 0. -1.
        -11    1    1    2    0    0  0.35137827636E+02  0.54016857979E+01 -0.11719627921E+03  0.12246964114E+03  0.00000000000E+00 0.  1.
         11    1    1    2    0    0  0.40964451923E+01 -0.83671266310E+02 -0.43450634356E+03  0.44250810644E+03  0.00000000000E+00 0. -1.
</event>
<event>
 7    1  0.2719869E-009  0.1220329E+03  0.7561462E-02  0.1239781E+00
         -1   -1    0    0    0  501 -0.00000000000E+00  0.00000000000E+00  0.28643226698E+02  0.28643226698E+02  0.00000000000E+00 0.  1.
          1   -1    0    0  501    0  0.00000000000E+00 -0.00000000000E+00 -0.81491011202E+03  0.81491011202E+03  0.00000000000E+00 0. -1.
         25    2    1    2    0    0 -0.14996247395E+02 -0.52322145636E+02 -0.65349298078E+03  0.66758010496E+03  0.12509047227E+03 0.  0.
          5    1    3    3  502    0 -0.49970964621E+02  0.17702587610E+02 -0.35526518168E+03  0.35922319054E+03  0.41800000000E+01 0.  1.
         -5    1    3    3    0  502  0.34974717227E+02 -0.70024733246E+02 -0.29822779910E+03  0.30835691442E+03  0.41800000000E+01 0.  1.
        -11    1    1    2    0    0  0.46262668374E+02 -0.56798740510E+01 -0.75189581615E+02  0.88464504959E+02  0.00000000000E+00 0. -1.
         11    1    1    2    0    0 -0.31266420979E+02  0.58002019687E+02 -0.57584322930E+02  0.87508728798E+02  0.00000000000E+00 0.  1.
</event>
<event>
 7    1  0.2719869E-009  0.8190796E+02  0.7561462E-02  0.1323722E+00
          1   -1    0    0  501    0  0.00000000000E+00  0.00000000000E+00  0.11978602817E+03  0.11978602817E+03  0.00000000000E+00 0. -1.
         -1   -1    0    0    0  501 -0.00000000000E+00 -0.00000000000E+00 -0.10628637118E+03  0.10628637118E+03  0.00000000000E+00 0.  1.
         25    2    1    2    0    0  0.38373695119E+01 -0.11256119983E+02  0.35405837943E+02  0.13055104568E+03  0.12509427056E+03 0.  0.
          5    1    3    3  502    0  0.21679173729E+02 -0.34825866233E+02 -0.34994075352E+02  0.54082208185E+02  0.41800000000E+01 0.  1.
         -5    1    3    3    0  502 -0.17841804217E+02  0.23569746250E+02  0.70399913295E+02  0.76468837496E+02  0.41800000000E+01 0.  1.
        -11    1    1    2    0    0  0.41649969982E+02 -0.95112539499E+01 -0.13583663302E+02  0.44829676108E+02  0.00000000000E+00 0.  1.
         11    1    1    2    0    0 -0.45487339494E+02  0.20767373933E+02 -0.83225176450E+01  0.50691677564E+02  0.00000000000E+00 0. -1.
</event>
<event>
 7    1  0.2719869E-009  0.7230589E+02  0.7561462E-02  0.1352423E+00
          1   -1    0    0  501    0  0.00000000000E+00  0.00000000000E+00  0.14035774821E+04  0.14035774821E+04  0.00000000000E+00 0. -1.
         -1   -1    0    0    0  501 -0.00000000000E+00 -0.00000000000E+00 -0.27583829753E+02  0.27583829753E+02  0.00000000000E+00 0.  1.
         25    2    1    2    0    0  0.29043345806E+02 -0.34046120085E+01  0.13019992893E+04  0.13083207580E+04  0.12508376894E+03 0.  0.
          5    1    3    3  502    0  0.26750853061E+02 -0.44595259210E+02  0.11368148414E+04  0.11380113362E+04  0.41800000000E+01 0.  1.
         -5    1    3    3    0  502  0.22924927451E+01  0.41190647201E+02  0.16518444792E+03  0.17030942186E+03  0.41800000000E+01 0.  1.
        -11    1    1    2    0    0 -0.21814343090E+02  0.22025759894E+02  0.91295152743E+02  0.96414752905E+02  0.00000000000E+00 0. -1.
         11    1    1    2    0    0 -0.72290027160E+01 -0.18621147885E+02 -0.17300789706E+02  0.26425800901E+02  0.00000000000E+00 0.  1.
</event>
<event>
 7    1  0.2719869E-009  0.1074131E+03  0.7561462E-02  0.1265437E+00
         -1   -1    0    0    0  501 -0.00000000000E+00  0.00000000000E+00  0.39292947569E+02  0.39292947569E+02  0.00000000000E+00 0.  1.
          1   -1    0    0  501    0  0.00000000000E+00 -0.00000000000E+00 -0.43775004750E+03  0.43775004750E+03  0.00000000000E+00 0. -1.
         25    2    1    2    0    0  0.65131177652E+01 -0.12228301709E+02 -0.34934201335E+03  0.37132115031E+03  0.12509037658E+03 0.  0.
          5    1    3    3  502    0 -0.35248721253E+02  0.42964517482E+02 -0.17650773804E+03  0.18509693704E+03  0.41800000000E+01 0.  1.
         -5    1    3    3    0  502  0.41761839018E+02 -0.55192819191E+02 -0.17283427530E+03  0.18622421327E+03  0.41800000000E+01 0.  1.
        -11    1    1    2    0    0  0.40227154262E+02  0.15005693457E+02 -0.38594965959E+02  0.57731847134E+02  0.00000000000E+00 0.  1.
         11    1    1    2    0    0 -0.46740272027E+02 -0.27773917487E+01 -0.10520120625E+02  0.47989997625E+02  0.00000000000E+00 0. -1.
</event>
<event>
 7    1  0.2719869E-009  0.3497361E+03  0.7561462E-02  0.1062723E+00
         -2   -1    0    0    0  501 -0.00000000000E+00  0.00000000000E+00  0.33560375897E+03  0.33560375897E+03  0.00000000000E+00 0.  1.
          2   -1    0    0  501    0  0.00000000000E+00 -0.00000000000E+00 -0.38243421980E+03  0.38243421980E+03  0.00000000000E+00 0. -1.
         25    2    1    2    0    0  0.34060045821E+03  0.18892525122E+02 -0.25628316304E+02  0.36423914545E+03  0.12509094629E+03 0.  0.
          5    1    3    3  502    0  0.84202774883E+02  0.35212048705E+02  0.38914180309E+02  0.99306502814E+02  0.41800000000E+01 0. -1.
         -5    1    3    3    0  502  0.25639768333E+03 -0.16319523583E+02 -0.64542496613E+02  0.26493264264E+03  0.41800000000E+01 0. -1.
        -11    1    1    2    0    0 -0.86156425628E+02  0.31568288632E+02 -0.22168063874E+02  0.94397614271E+02  0.00000000000E+00 0.  1.
         11    1    1    2    0    0 -0.25444403258E+03 -0.50460813754E+02  0.96591934410E+00  0.25940121904E+03  0.00000000000E+00 0. -1.
</event>
<event>
 7    1  0.2719869E-009  0.1007086E+03  0.7561462E-02  0.1278813E+00
          2   -1    0    0  501    0  0.00000000000E+00  0.00000000000E+00  0.75899161119E+03  0.75899161119E+03  0.00000000000E+00 0. -1.
         -2   -1    0    0    0  501 -0.00000000000E+00 -0.00000000000E+00 -0.20917042887E+02  0.20917042887E+02  0.00000000000E+00 0.  1.
         25    2    1    2    0    0  0.34124540698E+02 -0.21827407078E+02  0.55832102815E+03  0.57359446535E+03  0.12508924907E+03 0.  0.
          5    1    3    3  502    0 -0.21925753508E+02  0.20212624129E+02  0.37635613143E+02  0.48199591468E+02  0.41800000000E+01 0. -1.
         -5    1    3    3    0  502  0.56050294205E+02 -0.42040031207E+02  0.52068541501E+03  0.52539487388E+03  0.41800000000E+01 0. -1.
        -11    1    1    2    0    0  0.20105557365E+02  0.39296793965E+02  0.72988654646E+02  0.85298388965E+02  0.00000000000E+00 0.  1.
         11    1    1    2    0    0 -0.54230098063E+02 -0.17469386887E+02  0.10676488551E+03  0.12101579976E+03  0.00000000000E+00 0. -1.
</event>
<event>
 7    1  0.2719869E-009  0.1098171E+03  0.7561462E-02  0.1260909E+00
         -2   -1    0    0    0  501 -0.00000000000E+00  0.00000000000E+00  0.74360590257E+02  0.74360590257E+02  0.00000000000E+00 0.  1.
          2   -1    0    0  501    0  0.00000000000E+00 -0.00000000000E+00 -0.17573913832E+03  0.17573913832E+03  0.00000000000E+00 0. -1.
         25    2    1    2    0    0 -0.11660677474E+02 -0.94445330552E+01 -0.23862491892E+02  0.12822638455E+03  0.12508963415E+03 0.  0.
          5    1    3    3  502    0 -0.68336981682E+02 -0.73621119774E+00 -0.11717984406E+02  0.69464153567E+02  0.41800000000E+01 0. -1.
         -5    1    3    3    0  502  0.56676304207E+02 -0.87083218574E+01 -0.12144507486E+02  0.58762230984E+02  0.41800000000E+01 0. -1.
        -11    1    1    2    0    0 -0.16960361185E+02  0.44963911343E+02 -0.34343033648E+02  0.59066497568E+02  0.00000000000E+00 0.  1.
         11    1    1    2    0    0  0.28621038660E+02 -0.35519378288E+02 -0.43173022520E+02  0.62806846454E+02  0.00000000000E+00 0. -1.
</event>
<event>
 7    1  0.2719869E-009  0.1762023E+03  0.7561462E-02  0.1171530E+00
          1   -1    0    0  501    0  0.00000000000E+00  0.00000000000E+00  0.41649896950E+03  0.41649896950E+03  0.00000000000E+00 0.  1.
         -1   -1    0    0    0  501 -0.00000000000E+00 -0.00000000000E+00 -0.10238195819E+03  0.10238195819E+03  0.00000000000E+00 0. -1.
         25    2    1    2    0    0  0.16279184632E+03 -0.61450836679E+02  0.13424927229E+03  0.25288597562E+03  0.12510419257E+03 0.  0.
          5    1    3    3  502    0  0.60864746573E+02 -0.35742798668E+01 -0.15135769106E+02  0.62959167390E+02  0.41800000000E+01 0.  1.
         -5    1    3    3    0  502  0.10192709974E+03 -0.57876556812E+02  0.14938504140E+03  0.18992680823E+03  0.41800000000E+01 0.  1.
        -11    1    1    2    0    0 -0.82864589001E+02  0.31526485804E+02  0.15244564897E+03  0.17635230452E+03  0.00000000000E+00 0.  1.
         11    1    1    2    0    0 -0.79927257316E+02  0.29924350875E+02  0.27422090051E+02  0.89642647552E+02  0.00000000000E+00 0. -1.
</event>
<event>
 7    1  0.2719869E-009  0.8982940E+02  0.7561462E-02  0.1303265E+00
         -2   -1    0    0    0  501 -0.00000000000E+00  0.00000000000E+00  0.17571301648E+02  0.17571301648E+02  0.00000000000E+00 0. -1.
          2   -1    0    0  501    0  0.00000000000E+00 -0.00000000000E+00 -0.93545875610E+03  0.93545875610E+03  0.00000000000E+00 0.  1.
         25    2    1    2    0    0  0.10993917800E+02 -0.46505954805E+02 -0.38045993499E+03  0.40333652005E+03  0.12508763414E+03 0.  0.
          5    1    3    3  502    0 -0.16757145154E+02 -0.24816685624E+02 -0.36217006574E+03  0.36342990895E+03  0.41800000000E+01 0.  1.
         -5    1    3    3    0  502  0.27751062954E+02 -0.21689269182E+02 -0.18289869250E+02  0.39906611105E+02  0.41800000000E+01 0.  1.
        -11    1    1    2    0    0  0.20379107587E+02  0.71181432385E+02 -0.30461626485E+03  0.31348552304E+03  0.00000000000E+00 0. -1.
         11    1    1    2    0    0 -0.31373025386E+02 -0.24675477580E+02 -0.23281125461E+03  0.23620801465E+03  0.00000000000E+00 0.  1.
</event>
<event>
 7    1  0.2719869E-009  0.1145544E+03  0.7561462E-02  0.1252361E+00
         -3   -1    0    0    0  501 -0.00000000000E+00  0.00000000000E+00  0.27354850841E+03  0.27354850841E+03  0.00000000000E+00 0.  1.
          3   -1    0    0  501    0  0.00000000000E+00 -0.00000000000E+00 -0.62527137345E+02  0.62527137345E+02  0.00000000000E+00 0. -1.
         25    2    1    2    0    0 -0.41860338407E+02  0.24373043765E+02  0.46904787118E+02  0.14209667206E+03  0.12508026208E+03 0.  0.
          5    1    3    3  502    0 -0.29578157086E+02 -0.46059502001E+02 -0.27212826988E+01  0.54965651827E+02  0.41800000000E+01 0.  1.
         -5    1    3    3    0  502 -0.12282181320E+02  0.70432545766E+02  0.49626069817E+02  0.87131020231E+02  0.41800000000E+01 0.  1.
        -11    1    1    2    0    0 -0.64759198309E+01 -0.48248835801E+02  0.65789936372E+02  0.81842552634E+02  0.00000000000E+00 0. -1.
         11    1    1    2    0    0  0.48336258238E+02  0.23875792036E+02  0.98326647577E+02  0.11213642107E+03  0.00000000000E+00 0.  1.
</event>
<event>
 7    1  0.2999373E-009  0.1116135E+03  0.7561462E-02  0.1257611E+00
         -1   -1    0    0    0  501 -0.00000000000E+00  0.00000000000E+00  0.24657752940E+03  0.24657752940E+03  0.00000000000E+00 0.  1.
          1   -1    0    0  501    0  0.00000000000E+00 -0.00000000000E+00 -0.89531363026E+02  0.89531363026E+02  0.00000000000E+00 0. -1.
         25    2    1    2    0    0 -0.17256353299E+02  0.90115936862E+02  0.36767245057E+02  0.15944861708E+03  0.12511341805E+03 0.  0.
          5    1    3    3  502    0 -0.38025189965E+01 -0.12593396628E+02  0.52773900232E+02  0.54549149719E+02  0.41800000000E+01 0.  1.
         -5    1    3    3    0  502 -0.13453834303E+02  0.10270933349E+03 -0.16006655176E+02  0.10489946736E+03  0.41800000000E+01 0.  1.
        -11    1    1    2    0    0  0.31774729780E+02 -0.29279095966E+02  0.10311664771E+03  0.11180313926E+03  0.00000000000E+00 0.  1.
         11    1    1    2    0    0 -0.14518376481E+02 -0.60836840896E+02  0.17162273611E+02  0.64857136087E+02  0.00000000000E+00 0. -1.
</event>
<event>
 7    1  0.2719869E-009  0.1268771E+03  0.7561462E-02  0.1232165E+00
         -1   -1    0    0    0  501 -0.00000000000E+00  0.00000000000E+00  0.32642442301E+02  0.32642442301E+02  0.00000000000E+00 0.  1.
          1   -1    0    0  501    0  0.00000000000E+00 -0.00000000000E+00 -0.70772910247E+03  0.70772910247E+03  0.00000000000E+00 0. -1.
         25    2    1    2    0    0  0.24852016856E+02 -0.92402892963E+02 -0.27419218051E+03  0.31620443800E+03  0.12509187579E+03 0.  0.
          5    1    3    3  502    0 -0.23786535893E+02 -0.49725951625E+02 -0.28687127674E+02  0.62280761468E+02  0.41800000000E+01 0.  1.
         -5    1    3    3    0  502  0.48638552748E+02 -0.42676941338E+02 -0.24550505284E+03  0.25392367654E+03  0.41800000000E+01 0.  1.
        -11    1    1    2    0    0 -0.60255738896E+02  0.49310032322E+02 -0.17586973626E+03  0.19233407782E+03  0.00000000000E+00 0.  1.
         11    1    1    2    0    0  0.35403722040E+02  0.43092860642E+02 -0.22502474339E+03  0.23183302895E+03  0.00000000000E+00 0. -1.
</event>
<event>
 7    1  0.2719869E-009  0.9297600E+02  0.7561462E-02  0.1295801E+00
         -1   -1    0    0    0  501 -0.00000000000E+00  0.00000000000E+00  0.46144244382E+02  0.46144244382E+02  0.00000000000E+00 0. -1.
          1   -1    0    0  501    0  0.00000000000E+00 -0.00000000000E+00 -0.49460261125E+03  0.49460261125E+03  0.00000000000E+00 0.  1.
         25    2    1    2    0    0  0.26963956178E+02 -0.64665905649E+02 -0.10427559608E+03  0.17728516535E+03  0.12509154900E+03 0.  0.
          5    1    3    3  502    0  0.19307172106E+02 -0.35507706038E+02 -0.13076766171E+03  0.13693508620E+03  0.41800000000E+01 0.  1.
         -5    1    3    3    0  502  0.76567840721E+01 -0.29158199611E+02  0.26492065626E+02  0.40350079157E+02  0.41800000000E+01 0.  1.
        -11    1    1    2    0    0  0.23931692616E+02  0.59006068631E+02 -0.22276450315E+03  0.23168613664E+03  0.00000000000E+00 0.  1.
         11    1    1    2    0    0 -0.50895648794E+02  0.56598370180E+01 -0.12141826763E+03  0.13177555363E+03  0.00000000000E+00 0. -1.
</event>
<event>
 7    1  0.2719869E-009  0.1210992E+03  0.7561462E-02  0.1241295E+00
         -2   -1    0    0    0  501 -0.00000000000E+00  0.00000000000E+00  0.17285276794E+03  0.17285276794E+03  0.00000000000E+00 0.  1.
          2   -1    0    0  501    0  0.00000000000E+00 -0.00000000000E+00 -0.15683432911E+03  0.15683432911E+03  0.00000000000E+00 0. -1.
         25    2    1    2    0    0  0.48114779854E+02  0.72664260219E+02  0.95856102341E+02  0.18008793706E+03  0.12509254960E+03 0.  0.
          5    1    3    3  502    0 -0.27838049123E+02 -0.18273931223E+02  0.26240284857E+02  0.42601860179E+02  0.41800000000E+01 0.  1.
         -5    1    3    3    0  502  0.75952828976E+02  0.90938191442E+02  0.69615817483E+02  0.13748607688E+03  0.41800000000E+01 0.  1.
        -11    1    1    2    0    0 -0.33302438645E+02 -0.65812275067E+02 -0.99620093677E+02  0.12395350351E+03  0.00000000000E+00 0. -1.
         11    1    1    2    0    0 -0.14812341208E+02 -0.68519851513E+01  0.19782430169E+02  0.25645656474E+02  0.00000000000E+00 0.  1.
</event>
<event>
 7    1  0.2719869E-009  0.1406283E+03  0.7561462E-02  0.1212486E+00
          2   -1    0    0  501    0  0.00000000000E+00  0.00000000000E+00  0.11911799194E+03  0.11911799194E+03  0.00000000000E+00 0.  1.
         -2   -1    0    0    0  501 -0.00000000000E+00 -0.00000000000E+00 -0.19334124667E+03  0.19334124667E+03  0.00000000000E+00 0. -1.
         25    2    1    2    0    0 -0.27399202684E+02  0.96565406621E+02 -0.27402268527E+01  0.16040926423E+03  0.12509208266E+03 0.  0.
          5    1    3    3  502    0  0.34436333123E+02  0.74736555602E+02 -0.32116904418E+02  0.88432922216E+02  0.41800000000E+01 0.  1.
         -5    1    3    3    0  502 -0.61835535807E+02  0.21828851019E+02  0.29376677566E+02  0.71976342017E+02  0.41800000000E+01 0.  1.
        -11    1    1    2    0    0  0.49325777897E+02 -0.99476625907E+02 -0.52143487817E+02  0.12266855664E+03  0.00000000000E+00 0. -1.
         11    1    1    2    0    0 -0.21926575213E+02  0.29112192867E+01 -0.19339540057E+02  0.29381417732E+02  0.00000000000E+00 0.  1.
</event>
<event>
 7    1  0.4248893E-009  0.1058625E+03  0.7561462E-02  0.1268429E+00
         -2   -1    0    0    0  501 -0.00000000000E+00  0.00000000000E+00  0.96304498288E+01  0.96304498288E+01  0.00000000000E+00 0. -1.
          2   -1    0    0  501    0  0.00000000000E+00 -0.00000000000E+00 -0.17734559609E+04  0.17734559609E+04  0.00000000000E+00 0.  1.
         25    2    1    2    0    0 -0.29773357942E+02 -0.54194601858E+02 -0.12355100358E+04  0.12433651017E+04  0.12509284440E+03 0.  0.
          5    1    3    3  502    0  0.26266737962E+02 -0.39072632547E+01 -0.63819571849E+02  0.69250403467E+02  0.41800000000E+01 0.  1.
         -5    1    3    3    0  502 -0.56040095904E+02 -0.50287338603E+02 -0.11716904640E+04  0.11741146982E+04  0.41800000000E+01 0.  1.
        -11    1    1    2    0    0  0.15175249750E+02 -0.24813592266E+02 -0.17364202081E+03  0.17606122219E+03  0.00000000000E+00 0. -1.
         11    1    1    2    0    0  0.14598108192E+02  0.79008194124E+02 -0.35467345445E+03  0.36366008689E+03  0.00000000000E+00 0.  1.
</event>
<event>
 7    1  0.2719869E-009  0.9174373E+02  0.7561462E-02  0.1298683E+00
         -2   -1    0    0    0  501 -0.00000000000E+00  0.00000000000E+00  0.54935683392E+02  0.54935683392E+02  0.00000000000E+00 0.  1.
          2   -1    0    0  501    0  0.00000000000E+00 -0.00000000000E+00 -0.26198481802E+03  0.26198481802E+03  0.00000000000E+00 0. -1.
         25    2    1    2    0    0 -0.47410129026E+02  0.67743239077E+01 -0.15680147477E+03  0.20622730442E+03  0.12509750916E+03 0.  0.
          5    1    3    3  502    0 -0.26245013939E+02  0.62646442812E+02 -0.11344069803E+03  0.13228621214E+03  0.41800000000E+01 0. -1.
         -5    1    3    3    0  502 -0.21165115087E+02 -0.55872118904E+02 -0.43360776743E+02  0.73941092278E+02  0.41800000000E+01 0. -1.
        -11    1    1    2    0    0  0.59132769043E+01 -0.12332647505E+02  0.22748000795E+02  0.26543032577E+02  0.00000000000E+00 0.  1.
         11    1    1    2    0    0  0.41496852122E+02  0.55583235970E+01 -0.72995660655E+02  0.84150164418E+02  0.00000000000E+00 0. -1.
</event>
<event>
 7    1  0.2719869E-009  0.5959618E+02  0.7561462E-02  0.1399534E+00
         -1   -1    0    0    0  501 -0.00000000000E+00  0.00000000000E+00  0.42270590597E+02  0.42270590597E+02  0.00000000000E+00 0.  1.
          1   -1    0    0  501    0  0.00000000000E+00 -0.00000000000E+00 -0.29034813394E+03  0.29034813394E+03  0.00000000000E+00 0. -1.
         25    2    1    2    0    0 -0.40370945356E+01 -0.21557588291E+02 -0.16340524001E+03  0.20695325782E+03  0.12508937090E+03 0.  0.
          5    1    3    3  502    0 -0.23566287110E+02 -0.28116345589E+02  0.49824941708E+01  0.37258508097E+02  0.41800000000E+01 0.  1.
         -5    1    3    3    0  502  0.19529192574E+02  0.65587572977E+01 -0.16838773419E+03  0.16969474972E+03  0.41800000000E+01 0.  1.
        -11    1    1    2    0    0 -0.15227753200E+01 -0.19628723988E+02  0.10139214025E+02  0.22145187087E+02  0.00000000000E+00 0.  1.
         11    1    1    2    0    0  0.55598698556E+01  0.41186312279E+02 -0.94811517354E+02  0.10352027963E+03  0.00000000000E+00 0. -1.
</event>
<event>
 7    1  0.2719869E-009  0.1628607E+03  0.7561462E-02  0.1185504E+00
          2   -1    0    0  501    0  0.00000000000E+00  0.00000000000E+00  0.96003200816E+03  0.96003200816E+03  0.00000000000E+00 0. -1.
         -2   -1    0    0    0  501 -0.00000000000E+00 -0.00000000000E+00 -0.29028340895E+02  0.29028340895E+02  0.00000000000E+00 0.  1.
         25    2    1    2    0    0 -0.10919552840E+03 -0.63350281133E+02  0.48112718286E+03  0.51290118345E+03  0.12508931350E+03 0.  0.
          5    1    3    3  502    0 -0.13138793874E+03 -0.30580998903E+02  0.40659029117E+03  0.42840532818E+03  0.41800000000E+01 0.  1.
         -5    1    3    3    0  502  0.22192410337E+02 -0.32769282230E+02  0.74536891685E+02  0.84495855263E+02  0.41800000000E+01 0.  1.
        -11    1    1    2    0    0  0.72493738255E+02 -0.57457488926E+01  0.27728144988E+03  0.28665895794E+03  0.00000000000E+00 0.  1.
         11    1    1    2    0    0  0.36701790146E+02  0.69096030025E+02  0.17259503452E+03  0.18950020767E+03  0.00000000000E+00 0. -1.
</event>
<event>
 7    1  0.3273731E-009  0.1377749E+03  0.7561462E-02  0.1216355E+00
          1   -1    0    0  501    0  0.00000000000E+00  0.00000000000E+00  0.91475855713E+03  0.91475855713E+03  0.00000000000E+00 0. -1.
         -1   -1    0    0    0  501 -0.00000000000E+00 -0.00000000000E+00 -0.23101682684E+02  0.23101682684E+02  0.00000000000E+00 0.  1.
         25    2    1    2    0    0 -0.95559909745E+02  0.82049606166E+01  0.44717573744E+03  0.47414427262E+03  0.12509050076E+03 0.  0.
          5    1    3    3  502    0 -0.11714115939E+03 -0.11838857169E+02  0.40966662228E+03  0.42627036441E+03  0.41800000000E+01 0. -1.
         -5    1    3    3    0  502  0.21581249648E+02  0.20043817786E+02  0.37509115159E+02  0.47873908215E+02  0.41800000000E+01 0. -1.
        -11    1    1    2    0    0  0.42864288969E+02 -0.46201481622E+02  0.27692937023E+03  0.28401021156E+03  0.00000000000E+00 0. -1.
         11    1    1    2    0    0  0.52695620775E+02  0.37996521006E+02  0.16755176678E+03  0.17970575563E+03  0.00000000000E+00 0.  1.
</event>
<event>
 7    1  0.2719869E-009  0.1235507E+03  0.7561462E-02  0.1237352E+00
         -2   -1    0    0    0  501 -0.00000000000E+00  0.00000000000E+00  0.16980730326E+03  0.16980730326E+03  0.00000000000E+00 0.  1.
          2   -1    0    0  501    0  0.00000000000E+00 -0.00000000000E+00 -0.12180708475E+03  0.12180708475E+03  0.00000000000E+00 0. -1.
         25    2    1    2    0    0 -0.18949967356E+02 -0.91243615377E+02  0.33841070055E+02  0.15961762949E+03  0.12509225001E+03 0.  0.
          5    1    3    3  502    0 -0.56198579339E+02 -0.66635266554E+02  0.61655809631E+02  0.10685246993E+03  0.41800000000E+01 0.  1.
         -5    1    3    3    0  502  0.37248611983E+02 -0.24608348823E+02 -0.27814739576E+02  0.52765159567E+02  0.41800000000E+01 0.  1.
        -11    1    1    2    0    0  0.44459693243E+02  0.59164967200E+02  0.39420605710E+02  0.83851904103E+02  0.00000000000E+00 0.  1.
         11    1    1    2    0    0 -0.25509725887E+02  0.32078648176E+02 -0.25261457254E+02  0.48144854411E+02  0.00000000000E+00 0. -1.
</event>
<event>
 7    1  0.2719869E-009  0.1295374E+03  0.7561462E-02  0.1228144E+00
         -2   -1    0    0    0  501 -0.00000000000E+00  0.00000000000E+00  0.10152408925E+03  0.10152408925E+03  0.00000000000E+00 0.  1.
          2   -1    0    0  501    0  0.00000000000E+00 -0.00000000000E+00 -0.31854877880E+03  0.31854877880E+03  0.00000000000E+00 0. -1.
         25    2    1    2    0    0 -0.64676494654E+02 -0.91620401189E+02 -0.21839486753E+03  0.27553798171E+03  0.12509002490E+03 0.  0.
          5    1    3    3  502    0  0.22774027049E+02 -0.12966490338E+02 -0.11767897690E+03  0.12063415845E+03  0.41800000000E+01 0. -1.
         -5    1    3    3    0  502 -0.87450521703E+02 -0.78653910850E+02 -0.10071589062E+03  0.15490382326E+03  0.41800000000E+01 0. -1.
        -11    1    1    2    0    0  0.63075996575E+02  0.74355399858E+02  0.37493583752E+02  0.10446566735E+03  0.00000000000E+00 0.  1.
         11    1    1    2    0    0  0.16004980797E+01  0.17265001331E+02 -0.36123405775E+02  0.40069218982E+02  0.00000000000E+00 0. -1.
</event>
<event>
 7    1  0.2719869E-009  0.1474807E+03  0.7561462E-02  0.1203603E+00
         -1   -1    0    0    0  501 -0.00000000000E+00  0.00000000000E+00  0.79758570669E+02  0.79758570669E+02  0.00000000000E+00 0.  1.
          1   -1    0    0  501    0  0.00000000000E+00 -0.00000000000E+00 -0.29929823163E+03  0.29929823163E+03  0.00000000000E+00 0. -1.
         25    2    1    2    0    0  0.97512117044E+02  0.39853576109E+02 -0.15409716323E+03  0.22466738386E+03  0.12503030495E+03 0.  0.
          5    1    3    3  502    0  0.39988262116E+02  0.81292919807E+02 -0.69805793154E+02  0.11444614924E+03  0.41800000000E+01 0. -1.
         -5    1    3    3    0  502  0.57523854929E+02 -0.41439343698E+02 -0.84291370072E+02  0.11022123462E+03  0.41800000000E+01 0. -1.
        -11    1    1    2    0    0 -0.18390966936E+02 -0.50193254863E+02 -0.38607257645E+01  0.53595668687E+02  0.00000000000E+00 0.  1.
         11    1    1    2    0    0 -0.79121150108E+02  0.10339678754E+02 -0.61581771974E+02  0.10079374976E+03  0.00000000000E+00 0. -1.
</event>
<event>
 7    1  0.2719869E-009  0.1016768E+03  0.7561462E-02  0.1276809E+00
         -1   -1    0    0    0  501 -0.00000000000E+00  0.00000000000E+00  0.88428796527E+02  0.88428796527E+02  0.00000000000E+00 0.  1.
          1   -1    0    0  501    0  0.00000000000E+00 -0.00000000000E+00 -0.13975081867E+03  0.13975081867E+03  0.00000000000E+00 0. -1.
         25    2    1    2    0    0 -0.10864824296E+00  0.11625207984E+02 -0.53464579257E+02  0.13653019219E+03  0.12508746892E+03 0.  0.
          5    1    3    3  502    0  0.27173161605E+02 -0.43950450505E+02 -0.53474653746E+02  0.74478411667E+02  0.41800000000E+01 0.  1.
         -5    1    3    3    0  502 -0.27281809848E+02  0.55575658489E+02  0.10074489054E-01  0.62051780527E+02  0.41800000000E+01 0.  1.
        -11    1    1    2    0    0 -0.31031036725E+02 -0.37712323496E+02 -0.86946062512E+01  0.49605854105E+02  0.00000000000E+00 0. -1.
         11    1    1    2    0    0  0.31139684968E+02  0.26087115512E+02  0.10837163367E+02  0.42043568895E+02  0.00000000000E+00 0.  1.
</event>
<event>
 7    1  0.2719869E-009  0.1156593E+03  0.7561462E-02  0.1250435E+00
         -2   -1    0    0    0  501 -0.00000000000E+00  0.00000000000E+00  0.11496368317E+03  0.11496368317E+03  0.00000000000E+00 0.  1.
          2   -1    0    0  501    0  0.00000000000E+00 -0.00000000000E+00 -0.14168793969E+03  0.14168793969E+03  0.00000000000E+00 0. -1.
         25    2    1    2    0    0 -0.48758002407E+02  0.42891750199E+02 -0.31656897274E+02  0.14444101983E+03  0.12507599302E+03 0.  0.
          5    1    3    3  502    0 -0.12668845433E+02 -0.33044920338E+02 -0.46888867346E+02  0.58894012308E+02  0.41800000000E+01 0. -1.
         -5    1    3    3    0  502 -0.36089156973E+02  0.75936670537E+02  0.15231970073E+02  0.85547007520E+02  0.41800000000E+01 0. -1.
        -11    1    1    2    0    0 -0.15480472813E+02 -0.44631861856E+02  0.78225630531E+01  0.47883615402E+02  0.00000000000E+00 0.  1.
         11    1    1    2    0    0  0.64238475219E+02  0.17401116567E+01 -0.28899222972E+01  0.64326987633E+02  0.00000000000E+00 0. -1.
</event>
<event>
 7    1  0.2719869E-009  0.5965050E+02  0.7561462E-02  0.1399304E+00
          3   -1    0    0  501    0  0.00000000000E+00  0.00000000000E+00  0.21865505125E+02  0.21865505125E+02  0.00000000000E+00 0. -1.
         -3   -1    0    0    0  501 -0.00000000000E+00 -0.00000000000E+00 -0.56167838530E+03  0.56167838530E+03  0.00000000000E+00 0.  1.
         25    2    1    2    0    0  0.15810039296E+02 -0.15158285061E+02 -0.33592918276E+03  0.35913175675E+03  0.12508985540E+03 0.  0.
          5    1    3    3  502    0  0.69121876558E+01 -0.24961756631E+02 -0.35645440401E+01  0.26477273397E+02  0.41800000000E+01 0. -1.
         -5    1    3    3    0  502  0.88978516404E+01  0.98034715700E+01 -0.33236463872E+03  0.33265448335E+03  0.41800000000E+01 0. -1.
        -11    1    1    2    0    0 -0.42485399749E+02 -0.87300094477E+01 -0.48980893193E+02  0.65424385016E+02  0.00000000000E+00 0.  1.
         11    1    1    2    0    0  0.26675360453E+02  0.23888294509E+02 -0.15490280422E+03  0.15898774866E+03  0.00000000000E+00 0. -1.
</event>
<event>
 7    1  0.2719869E-009  0.2117507E+03  0.7561462E-02  0.1140187E+00
          2   -1    0    0  501    0  0.00000000000E+00  0.00000000000E+00  0.14288568880E+04  0.14288568880E+04  0.00000000000E+00 0. -1.
         -2   -1    0    0    0  501 -0.00000000000E+00 -0.00000000000E+00 -0.36428377676E+02  0.36428377676E+02  0.00000000000E+00 0.  1.
         25    2    1    2    0    0 -0.17405111847E+03 -0.57161091688E+02  0.97892525379E+03  0.10037444575E+04  0.12508837351E+03 0.  0.
          5    1    3    3  502    0 -0.16636803389E+03 -0.87159222941E+02  0.77531773729E+03  0.79775316922E+03  0.41800000000E+01 0.  1.
         -5    1    3    3    0  502 -0.76830845795E+01  0.29998131254E+02  0.20360751650E+03  0.20599128827E+03  0.41800000000E+01 0.  1.
        -11    1    1    2    0    0  0.74255300089E+02 -0.21517749429E+02  0.13913562196E+03  0.15917155660E+03  0.00000000000E+00 0.  1.
         11    1    1    2    0    0  0.99795818380E+02  0.78678841116E+02  0.27436763461E+03  0.30236925162E+03  0.00000000000E+00 0. -1.
</event>
<event>
 7    1  0.2719869E-009  0.9066877E+02  0.7561462E-02  0.1301240E+00
         -1   -1    0    0    0  501 -0.00000000000E+00  0.00000000000E+00  0.10687461640E+03  0.10687461640E+03  0.00000000000E+00 0.  1.
          1   -1    0    0  501    0  0.00000000000E+00 -0.00000000000E+00 -0.12233411670E+03  0.12233411670E+03  0.00000000000E+00 0. -1.
         25    2    1    2    0    0 -0.41728276111E+02 -0.29550289699E+02 -0.45607919925E+02  0.14262868000E+03  0.12509352242E+03 0.  0.
          5    1    3    3  502    0 -0.38799363599E+02 -0.61994293873E+02 -0.70307308885E+02  0.10153459101E+03  0.41800000000E+01 0. -1.
         -5    1    3    3    0  502 -0.29289125120E+01  0.32444004174E+02  0.24699388960E+02  0.41094088995E+02  0.41800000000E+01 0. -1.
        -11    1    1    2    0    0  0.52007418499E+02  0.97250653335E+01  0.35374446501E+02  0.63645109317E+02  0.00000000000E+00 0.  1.
         11    1    1    2    0    0 -0.10279142388E+02  0.19825224366E+02 -0.52260268681E+01  0.22934943780E+02  0.00000000000E+00 0. -1.
</event>
<event>
 7    1  0.2719869E-009  0.1908089E+03  0.7561462E-02  0.1157734E+00
          2   -1    0    0  501    0  0.00000000000E+00  0.00000000000E+00  0.47895081752E+03  0.47895081752E+03  0.00000000000E+00 0. -1.
         -2   -1    0    0    0  501 -0.00000000000E+00 -0.00000000000E+00 -0.10178757968E+03  0.10178757968E+03  0.00000000000E+00 0.  1.
         25    2    1    2    0    0 -0.14907020185E+03  0.10429177416E+03  0.11383319875E+03  0.24840369587E+03  0.12509076605E+03 0.  0.
          5    1    3    3  502    0 -0.45998346662E+02  0.15241293644E+02  0.10028286698E+03  0.11145524096E+03  0.41800000000E+01 0.  1.
         -5    1    3    3    0  502 -0.10307185519E+03  0.89050480516E+02  0.13550331763E+02  0.13694845491E+03  0.41800000000E+01 0.  1.
        -11    1    1    2    0    0  0.68968051999E+02 -0.93040810213E+02  0.11402717151E+03  0.16252809112E+03  0.00000000000E+00 0.  1.
         11    1    1    2    0    0  0.80102149850E+02 -0.11250963947E+02  0.14930286758E+03  0.16980661021E+03  0.00000000000E+00 0. -1.
</event>
<event>
 7    1  0.2719869E-009  0.1481870E+03  0.7561462E-02  0.1202719E+00
          1   -1    0    0  501    0  0.00000000000E+00  0.00000000000E+00  0.48117566539E+03  0.48117566539E+03  0.00000000000E+00 0. -1.
         -1   -1    0    0    0  501 -0.00000000000E+00 -0.00000000000E+00 -0.49400338793E+02  0.49400338793E+02  0.00000000000E+00 0.  1.
         25    2    1    2    0    0 -0.99789444026E+02 -0.17407125884E+02  0.29486110071E+03  0.33593753733E+03  0.12510003640E+03 0.  0.
          5    1    3    3  502    0 -0.74275569474E+02  0.49318266124E+02  0.17091862947E+03  0.19282064696E+03  0.41800000000E+01 0. -1.
         -5    1    3    3    0  502 -0.25513874552E+02 -0.66725392008E+02  0.12394247123E+03  0.14311689037E+03  0.41800000000E+01 0. -1.
        -11    1    1    2    0    0  0.89783709567E+02 -0.24019428332E+02  0.74764553961E+02  0.11928028324E+03  0.00000000000E+00 0.  1.
         11    1    1    2    0    0  0.10005734459E+02  0.41426554215E+02  0.62149671930E+02  0.75358183611E+02  0.00000000000E+00 0. -1.
</event>
<event>
 7    1  0.3249773E-009  0.1113776E+03  0.7561462E-02  0.1258040E+00
          1   -1    0    0  501    0  0.00000000000E+00  0.00000000000E+00  0.39489368560E+03  0.39489368560E+03  0.00000000000E+00 0. -1.
         -1   -1    0    0    0  501 -0.00000000000E+00 -0.00000000000E+00 -0.50669912277E+02  0.50669912277E+02  0.00000000000E+00 0.  1.
         25    2    1    2    0    0  0.82499937030E+01 -0.27469771397E+02  0.52614848271E+02  0.13870524812E+03  0.12509265710E+03 0.  0.
          5    1    3    3  502    0  0.34804013085E+02 -0.69213918664E+02  0.40842854838E+02  0.87678372789E+02  0.41800000000E+01 0.  1.
         -5    1    3    3    0  502 -0.26554019382E+02  0.41744147267E+02  0.11771993433E+02  0.51026875328E+02  0.41800000000E+01 0.  1.
        -11    1    1    2    0    0 -0.28838541030E+02  0.54429959110E+02  0.18578268632E+03  0.19572809822E+03  0.00000000000E+00 0. -1.
         11    1    1    2    0    0  0.20588547327E+02 -0.26960187713E+02  0.10582623873E+03  0.11113025154E+03  0.00000000000E+00 0.  1.
</event>
<event>
 7    1  0.2719869E-009  0.9717153E+02  0.7561462E-02  0.1286359E+00
          1   -1    0    0  501    0  0.00000000000E+00  0.00000000000E+00  0.27277244062E+03  0.27277244062E+03  0.00000000000E+00 0. -1.
         -1   -1    0    0    0  501 -0.00000000000E+00 -0.00000000000E+00 -0.42994014040E+02  0.42994014040E+02  0.00000000000E+00 0.  1.
         25    2    1    2    0    0 -0.10159069994E+02  0.21677613027E+01  0.12568756356E+03  0.17763414910E+03  0.12509444992E+03 0.  0.
          5    1    3    3  502    0  0.46878840479E+02  0.29776444287E+02  0.86914526185E+02  0.10322727150E+03  0.41800000000E+01 0. -1.
         -5    1    3    3    0  502 -0.57037910474E+02 -0.27608682984E+02  0.38773037379E+02  0.74406877605E+02  0.41800000000E+01 0. -1.
        -11    1    1    2    0    0  0.94526263077E+01  0.35872406877E+02  0.12821204328E+02  0.39250031843E+02  0.00000000000E+00 0.  1.
         11    1    1    2    0    0  0.70644368658E+00 -0.38040168180E+02  0.91269658683E+02  0.98882273709E+02  0.00000000000E+00 0. -1.
</event>
<event>
 7    1  0.2719869E-009  0.2401791E+03  0.7561462E-02  0.1119674E+00
          1   -1    0    0  501    0  0.00000000000E+00  0.00000000000E+00  0.10048186296E+04  0.10048186296E+04  0.00000000000E+00 0. -1.
         -1   -1    0    0    0  501 -0.00000000000E+00 -0.00000000000E+00 -0.63572436425E+02  0.63572436425E+02  0.00000000000E+00 0.  1.
         25    2    1    2    0    0 -0.19578459845E+02 -0.22695512029E+03  0.50103281378E+03  0.56442304872E+03  0.12509018636E+03 0.  0.
          5    1    3    3  502    0  0.20196348629E+02 -0.62024557534E+02  0.26974179923E+03  0.27754828208E+03  0.41800000000E+01 0.  1.
         -5    1    3    3    0  502 -0.39774808474E+02 -0.16493056275E+03  0.23129101455E+03  0.28687476663E+03  0.41800000000E+01 0.  1.
        -11    1    1    2    0    0 -0.36218941786E+02  0.10755956539E+03  0.20945943488E+03  0.23823124629E+03  0.00000000000E+00 0.  1.
         11    1    1    2    0    0  0.55797401631E+02  0.11939555489E+03  0.23075394449E+03  0.26573677099E+03  0.00000000000E+00 0. -1.
</event>
<event>
 7    1  0.2796899E-009  0.1118036E+03  0.7561462E-02  0.1257266E+00
          2   -1    0    0  501    0  0.00000000000E+00  0.00000000000E+00  0.12023305686E+04  0.12023305686E+04  0.00000000000E+00 0. -1.
         -2   -1    0    0    0  501 -0.00000000000E+00 -0.00000000000E+00 -0.18584818749E+02  0.18584818749E+02  0.00000000000E+00 0.  1.
         25    2    1    2    0    0  0.58916515707E+01 -0.39967749962E+02  0.10236045591E+04  0.10320105524E+04  0.12508938468E+03 0.  0.
          5    1    3    3  502    0  0.21155604887E+02  0.38976802301E+02  0.53143989386E+03  0.53330346326E+03  0.41800000000E+01 0.  1.
         -5    1    3    3    0  502 -0.15263953316E+02 -0.78944552263E+02  0.49216466524E+03  0.49870708909E+03  0.41800000000E+01 0.  1.
        -11    1    1    2    0    0  0.28810938218E+02 -0.15803782851E+02  0.38135281888E+02  0.50340137446E+02  0.00000000000E+00 0.  1.
         11    1    1    2    0    0 -0.34702589789E+02  0.55771532813E+02  0.12200590888E+03  0.13856469756E+03  0.00000000000E+00 0. -1.
</event>
<event>
 7    1  0.2719869E-009  0.8198015E+02  0.7561462E-02  0.1323524E+00
         -1   -1    0    0    0  501 -0.00000000000E+00  0.00000000000E+00  0.21365575436E+03  0.21365575436E+03  0.00000000000E+00 0.  1.
          1   -1    0    0  501    0  0.00000000000E+00 -0.00000000000E+00 -0.68720798734E+02  0.68720798734E+02  0.00000000000E+00 0. -1.
         25    2    1    2    0    0 -0.31509880400E+02 -0.44543089360E+01  0.90374364492E+02  0.15756805820E+03  0.12508978287E+03 0.  0.
          5    1    3    3  502    0  0.21556638143E+02  0.23274328611E+02 -0.15736943926E+02  0.35658194352E+02  0.41800000000E+01 0.  1.
         -5    1    3    3    0  502 -0.53066518543E+02 -0.27728637547E+02  0.10611130842E+03  0.12190986385E+03  0.41800000000E+01 0.  1.
        -11    1    1    2    0    0 -0.75977523458E+01 -0.22959191179E+02  0.70442506267E+02  0.74478164514E+02  0.00000000000E+00 0.  1.
         11    1    1    2    0    0  0.39107632746E+02  0.27413500115E+02 -0.15881915131E+02  0.50330330376E+02  0.00000000000E+00 0. -1.
</event>
<event>
 7    1  0.2719869E-009  0.2281039E+03  0.7561462E-02  0.1127981E+00
          2   -1    0    0  501    0  0.00000000000E+00  0.00000000000E+00  0.59111225079E+03  0.59111225079E+03  0.00000000000E+00 0. -1.
         -2   -1    0    0    0  501 -0.00000000000E+00 -0.00000000000E+00 -0.10328370025E+03  0.10328370025E+03  0.00000000000E+00 0.  1.
         25    2    1    2    0    0  0.19701331715E+03 -0.71907542234E+02  0.15068412908E+03  0.28694998009E+03  0.12509853138E+03 0.  0.
          5    1    3    3  502    0  0.68222089738E+02 -0.71251351734E+02  0.11828755351E+03  0.15407928598E+03  0.41800000000E+01 0.  1.
         -5    1    3    3    0  502  0.12879122742E+03 -0.65619049983E+00  0.32396575562E+02  0.13287069411E+03  0.41800000000E+01 0.  1.
        -11    1    1    2    0    0 -0.19923462133E+03  0.48437992746E+02  0.30708247028E+03  0.36924289706E+03  0.00000000000E+00 0. -1.
         11    1    1    2    0    0  0.22213041778E+01  0.23469549488E+02  0.30061951187E+02  0.38203073890E+02  0.00000000000E+00 0.  1.
</event>
<event>
 7    1  0.2719869E-009  0.8466963E+02  0.7561462E-02  0.1316299E+00
         -2   -1    0    0    0  501 -0.00000000000E+00  0.00000000000E+00  0.65268576968E+02  0.65268576968E+02  0.00000000000E+00 0.  1.
          2   -1    0    0  501    0  0.00000000000E+00 -0.00000000000E+00 -0.26515840339E+03  0.26515840339E+03  0.00000000000E+00 0. -1.
         25    2    1    2    0    0 -0.55239456587E+02  0.51282585600E+02 -0.74882222670E+02  0.16412408770E+03  0.12509223693E+03 0.  0.
          5    1    3    3  502    0 -0.45099559993E+02  0.62547214950E+02 -0.10488728761E+03  0.13024952941E+03  0.41800000000E+01 0.  1.
         -5    1    3    3    0  502 -0.10139896594E+02 -0.11264629350E+02  0.30005064938E+02  0.33874558289E+02  0.41800000000E+01 0.  1.
        -11    1    1    2    0    0  0.39261844232E+02 -0.28283160326E+02 -0.12922046872E+03  0.13798318414E+03  0.00000000000E+00 0. -1.
         11    1    1    2    0    0  0.15977612355E+02 -0.22999425274E+02  0.42128649623E+01  0.28319708520E+02  0.00000000000E+00 0.  1.
</event>
<event>
 7    1  0.2719869E-009  0.1090347E+03  0.7561462E-02  0.1262368E+00
          1   -1    0    0  501    0  0.00000000000E+00  0.00000000000E+00  0.96538217012E+03  0.96538217012E+03  0.00000000000E+00 0. -1.
         -1   -1    0    0    0  501 -0.00000000000E+00 -0.00000000000E+00 -0.16377092982E+02  0.16377092982E+02  0.00000000000E+00 0.  1.
         25    2    1    2    0    0  0.22848050996E+02 -0.50269071776E+02  0.61469569541E+03  0.62972027796E+03  0.12509123674E+03 0.  0.
          5    1    3    3  502    0  0.56259714323E+02 -0.50324719228E+02  0.56281924459E+03  0.56787384805E+03  0.41800000000E+01 0.  1.
         -5    1    3    3    0  502 -0.33411663327E+02  0.55647452108E-01  0.51876450819E+02  0.61846429909E+02  0.41800000000E+01 0.  1.
        -11    1    1    2    0    0  0.27562271535E+02  0.51457240549E+02  0.15005421085E+03  0.16100867247E+03  0.00000000000E+00 0.  1.
         11    1    1    2    0    0 -0.50410322531E+02 -0.11881687727E+01  0.18425517088E+03  0.19103031267E+03  0.00000000000E+00 0. -1.
</event>
<event>
 7    1  0.2719869E-009  0.1259023E+03  0.7561462E-02  0.1233666E+00
          1   -1    0    0  501    0  0.00000000000E+00  0.00000000000E+00  0.29732951755E+02  0.29732951755E+02  0.00000000000E+00 0. -1.
         -1   -1    0    0    0  501 -0.00000000000E+00 -0.00000000000E+00 -0.68726829995E+03  0.68726829995E+03  0.00000000000E+00 0.  1.
         25    2    1    2    0    0  0.41752458239E+02  0.79248694548E+02 -0.30249074064E+03  0.33937113556E+03  0.12509394919E+03 0.  0.
          5    1    3    3  502    0  0.53091109684E+02  0.59365755800E+01 -0.40837404413E+02  0.67372656592E+02  0.41800000000E+01 0.  1.
         -5    1    3    3    0  502 -0.11338651445E+02  0.73312118968E+02 -0.26165333622E+03  0.27199847897E+03  0.41800000000E+01 0.  1.
        -11    1    1    2    0    0 -0.21478168746E+02 -0.95530388661E+02 -0.31514226103E+03  0.33000304783E+03  0.00000000000E+00 0. -1.
         11    1    1    2    0    0 -0.20274289493E+02  0.16281694114E+02 -0.39902346521E+02  0.47627068308E+02  0.00000000000E+00 0.  1.
</event>
<event>
 7    1  0.2719869E-009  0.1304465E+03  0.7561462E-02  0.1226795E+00
         -2   -1    0    0    0  501 -0.00000000000E+00  0.00000000000E+00  0.77856618147E+02  0.77856618147E+02  0.00000000000E+00 0.  1.
          2   -1    0    0  501    0  0.00000000000E+00 -0.00000000000E+00 -0.38401642834E+03  0.38401642834E+03  0.00000000000E+00 0. -1.
         25    2    1    2    0    0 -0.63094805437E+02  0.45547700100E+02 -0.30854995778E+03  0.34191563796E+03  0.12509068542E+03 0.  0.
          5    1    3    3  502    0 -0.16655392810E+02 -0.40549745035E+02 -0.57336652807E+02  0.72295560633E+02  0.41800000000E+01 0.  1.
         -5    1    3    3    0  502 -0.46439412627E+02  0.86097445135E+02 -0.25121330498E+03  0.26962007733E+03  0.41800000000E+01 0.  1.
        -11    1    1    2    0    0 -0.22389250883E+02 -0.19193786745E+02  0.72597355826E+01  0.30370771565E+02  0.00000000000E+00 0.  1.
         11    1    1    2    0    0  0.85484056320E+02 -0.26353913355E+02 -0.48695879944E+01  0.89586636957E+02  0.00000000000E+00 0. -1.
</event>
<event>
 7    1  0.2719869E-009  0.1012662E+03  0.7561462E-02  0.1277656E+00
         -1   -1    0    0    0  501 -0.00000000000E+00  0.00000000000E+00  0.11231200621E+03  0.11231200621E+03  0.00000000000E+00 0.  1.
          1   -1    0    0  501    0  0.00000000000E+00 -0.00000000000E+00 -0.14667928909E+03  0.14667928909E+03  0.00000000000E+00 0. -1.
         25    2    1    2    0    0  0.63382977959E+01 -0.53835819867E+02  0.13901389687E+02  0.13702798609E+03  0.12507977781E+03 0.  0.
          5    1    3    3  502    0  0.55470040472E+02 -0.29567433511E+02 -0.26981036423E+02  0.68531797298E+02  0.41800000000E+01 0.  1.
         -5    1    3    3    0  502 -0.49131742677E+02 -0.24268386356E+02  0.40882426110E+02  0.68496188795E+02  0.41800000000E+01 0.  1.
        -11    1    1    2    0    0  0.20463208503E+02  0.54030091824E+02  0.92456966031E+01  0.58510483081E+02  0.00000000000E+00 0.  1.
         11    1    1    2    0    0 -0.26801506299E+02 -0.19427195716E+00 -0.57514369174E+02  0.63452826123E+02  0.00000000000E+00 0. -1.
</event>
<event>
 7    1  0.2719869E-009  0.1852526E+03  0.7561462E-02  0.1162814E+00
          2   -1    0    0  501    0  0.00000000000E+00  0.00000000000E+00  0.98196434620E+03  0.98196434620E+03  0.00000000000E+00 0. -1.
         -2   -1    0    0    0  501 -0.00000000000E+00 -0.00000000000E+00 -0.44289285380E+02  0.44289285380E+02  0.00000000000E+00 0.  1.
         25    2    1    2    0    0 -0.15670809510E+03 -0.78423981956E+02  0.41135040657E+03  0.46428735139E+03  0.12508333085E+03 0.  0.
          5    1    3    3  502    0 -0.14898277017E+03 -0.94783127211E+02  0.40907825040E+03  0.44558073832E+03  0.41800000000E+01 0. -1.
         -5    1    3    3    0  502 -0.77253249365E+01  0.16359145255E+02  0.22721561704E+01  0.18706613069E+02  0.41800000000E+01 0. -1.
        -11    1    1    2    0    0  0.12377161368E+03  0.59602244323E+02  0.49196029581E+03  0.51078055223E+03  0.00000000000E+00 0. -1.
         11    1    1    2    0    0  0.32936481427E+02  0.18821737633E+02  0.34364358438E+02  0.51185727964E+02  0.00000000000E+00 0.  1.
</event>
<event>
 7    1  0.2719869E-009  0.1328425E+03  0.7561462E-02  0.1223298E+00
         -2   -1    0    0    0  501 -0.00000000000E+00  0.00000000000E+00  0.84581585621E+02  0.84581585621E+02  0.00000000000E+00 0.  1.
          2   -1    0    0  501    0  0.00000000000E+00 -0.00000000000E+00 -0.22321742385E+03  0.22321742385E+03  0.00000000000E+00 0. -1.
         25    2    1    2    0    0 -0.48812988522E+02  0.63761367374E+02 -0.10826408356E+03  0.18388644766E+03  0.12507955079E+03 0.  0.
          5    1    3    3  502    0  0.31292424361E+02  0.60588141682E+02 -0.47640127111E+02  0.83289812378E+02  0.41800000000E+01 0.  1.
         -5    1    3    3    0  502 -0.80105412883E+02  0.31732256920E+01 -0.60623956448E+02  0.10059663528E+03  0.41800000000E+01 0.  1.
        -11    1    1    2    0    0 -0.16697889098E+02 -0.46403602180E+02  0.78399638372E+00  0.49322697066E+02  0.00000000000E+00 0. -1.
         11    1    1    2    0    0  0.65510877619E+02 -0.17357765194E+02 -0.31155751054E+02  0.74589864745E+02  0.00000000000E+00 0.  1.
</event>
<event>
 7    1  0.2719869E-009  0.1526986E+03  0.7561462E-02  0.1197196E+00
         -2   -1    0    0    0  501 -0.00000000000E+00  0.00000000000E+00  0.12577453876E+04  0.12577453876E+04  0.00000000000E+00 0.  1.
          2   -1    0    0  501    0  0.00000000000E+00 -0.00000000000E+00 -0.35475080861E+02  0.35475080861E+02  0.00000000000E+00 0. -1.
         25    2    1    2    0    0  0.12906230629E+03  0.26133914633E+01  0.10220103116E+04  0.10376975018E+04  0.12508844691E+03 0.  0.
          5    1    3    3  502    0  0.70489466715E+02 -0.49185783788E+02  0.32126543648E+03  0.33259127968E+03  0.41800000000E+01 0.  1.
         -5    1    3    3    0  502  0.58572839578E+02  0.51799175251E+02  0.70074487512E+03  0.70510622214E+03  0.41800000000E+01 0.  1.
        -11    1    1    2    0    0 -0.66713580159E+02 -0.29742958823E+02  0.16151425838E+03  0.17726308425E+03  0.00000000000E+00 0.  1.
         11    1    1    2    0    0 -0.62348726134E+02  0.27129567360E+02  0.38745736769E+02  0.78259882401E+02  0.00000000000E+00 0. -1.
</event>
<event>
 7    1  0.2719869E-009  0.7613574E+02  0.7561462E-02  0.1340390E+00
         -3   -1    0    0    0  501 -0.00000000000E+00  0.00000000000E+00  0.40146833464E+02  0.40146833464E+02  0.00000000000E+00 0.  1.
          3   -1    0    0  501    0  0.00000000000E+00 -0.00000000000E+00 -0.36697867837E+03  0.36697867837E+03  0.00000000000E+00 0. -1.
         25    2    1    2    0    0 -0.26596347673E+02  0.37263074480E+02 -0.13372830868E+03  0.18875020979E+03  0.12508988257E+03 0.  0.
          5    1    3    3  502    0 -0.35837794035E+02  0.23905557332E+02 -0.15541809767E+03  0.16133220582E+03  0.41800000000E+01 0. -1.
         -5    1    3    3    0  502  0.92414463624E+01  0.13357517148E+02  0.21689788985E+02  0.27418003965E+02  0.41800000000E+01 0. -1.
        -11    1    1    2    0    0 -0.27882747426E+02 -0.34422530020E+01 -0.10930314834E+03  0.11285599208E+03  0.00000000000E+00 0. -1.
         11    1    1    2    0    0  0.54479095098E+02 -0.33820821478E+02 -0.83800387883E+02  0.10551930997E+03  0.00000000000E+00 0.  1.
</event>
<event>
 7    1  0.2719869E-009  0.1046972E+03  0.7561462E-02  0.1270717E+00
          1   -1    0    0  501    0  0.00000000000E+00  0.00000000000E+00  0.36145343762E+03  0.36145343762E+03  0.00000000000E+00 0. -1.
         -1   -1    0    0    0  501 -0.00000000000E+00 -0.00000000000E+00 -0.40162258336E+02  0.40162258336E+02  0.00000000000E+00 0.  1.
         25    2    1    2    0    0 -0.11812569624E+02  0.13631198372E+02  0.26019322285E+03  0.28926451469E+03  0.12509236536E+03 0.  0.
          5    1    3    3  502    0 -0.68075859366E+02  0.15210368307E+02  0.14857401274E+03  0.16418705063E+03  0.41800000000E+01 0. -1.
         -5    1    3    3    0  502  0.56263289742E+02 -0.15791699352E+01  0.11161921012E+03  0.12507746407E+03  0.41800000000E+01 0. -1.
        -11    1    1    2    0    0  0.46267162946E+02 -0.69799309225E+00  0.68188412711E+01  0.46772151519E+02  0.00000000000E+00 0.  1.
         11    1    1    2    0    0 -0.34454593322E+02 -0.12933205279E+02  0.54279115159E+02  0.65579029744E+02  0.00000000000E+00 0. -1.
</event>
<event>
 7    1  0.2719869E-009  0.1400351E+03  0.7561462E-02  0.1213282E+00
         -2   -1    0    0    0  501 -0.00000000000E+00  0.00000000000E+00  0.35073057641E+02  0.35073057641E+02  0.00000000000E+00 0. -1.
          2   -1    0    0  501    0  0.00000000000E+00 -0.00000000000E+00 -0.68577477722E+03  0.68577477722E+03  0.00000000000E+00 0.  1.
         25    2    1    2    0    0 -0.14470343514E+02  0.11130902031E+03 -0.35294825427E+03  0.39092124507E+03  0.12509140983E+03 0.  0.
          5    1    3    3  502    0 -0.62881025517E+02  0.86170267496E+02 -0.28056310254E+03  0.30018738361E+03  0.41800000000E+01 0. -1.
         -5    1    3    3    0  502  0.48410682003E+02  0.25138752815E+02 -0.72385151722E+02  0.90733861457E+02  0.41800000000E+01 0. -1.
        -11    1    1    2    0    0  0.27713751971E+02 -0.75879698089E+02 -0.99825090371E+02  0.12841662392E+03  0.00000000000E+00 0. -1.
         11    1    1    2    0    0 -0.13243408457E+02 -0.35429322222E+02 -0.19792837495E+03  0.20150996588E+03  0.00000000000E+00 0.  1.
</event>
<event>
 6    1  0.2719869E-009  0.2028745E+03  0.7561462E-02  0.1147336E+00
          3   -1    0    0  501    0  0.00000000000E+00  0.00000000000E+00  0.48768373314E+02  0.48768373314E+02  0.00000000000E+00 0. -1.
         -3   -1    0    0    0  501 -0.00000000000E+00 -0.00000000000E+00 -0.10301030896E+04  0.10301030896E+04  0.00000000000E+00 0.  1.
          5    1    1    2  502    0 -0.12753617418E+03  0.25354886371E+02 -0.18376381322E+03  0.22515540730E+03  0.41800000000E+01 0.  1.
         -5    1    1    2    0  502 -0.62323349880E+02  0.15972723734E+02 -0.35831762737E+03  0.36407186424E+03  0.41800000000E+01 0.  1.
        -11    1    1    2    0    0  0.16466321500E+03 -0.22481389382E+01 -0.29214248841E+03  0.33535989927E+03  0.00000000000E+00 0.  1.
         11    1    1    2    0    0  0.25196309062E+02 -0.39079471167E+02 -0.14711078729E+03  0.15428429211E+03  0.00000000000E+00 0. -1.
</event>
<event>
 7    1  0.2719869E-009  0.1711319E+03  0.7561462E-02  0.1176673E+00
          1   -1    0    0  501    0  0.00000000000E+00  0.00000000000E+00  0.63268642559E+03  0.63268642559E+03  0.00000000000E+00 0. -1.
         -1   -1    0    0    0  501 -0.00000000000E+00 -0.00000000000E+00 -0.59500320107E+02  0.59500320107E+02  0.00000000000E+00 0.  1.
         25    2    1    2    0    0  0.11741081994E+03  0.10859113328E+03  0.27307708952E+03  0.34028748436E+03  0.12508852994E+03 0.  0.
          5    1    3    3  502    0  0.22243702991E+02  0.23777868895E+02  0.17852565130E+03  0.18151873166E+03  0.41800000000E+01 0.  1.
         -5    1    3    3    0  502  0.95167116948E+02  0.84813264381E+02  0.94551438227E+02  0.15876875270E+03  0.41800000000E+01 0.  1.
        -11    1    1    2    0    0 -0.51537001440E+02 -0.10374431402E+03  0.16621076374E+03  0.20259556558E+03  0.00000000000E+00 0.  1.
         11    1    1    2    0    0 -0.65873818499E+02 -0.48468192569E+01  0.13389825222E+03  0.14930369576E+03  0.00000000000E+00 0. -1.
</event>
<event>
 7    1  0.2719869E-009  0.1096501E+03  0.7561462E-02  0.1261219E+00
          1   -1    0    0  501    0  0.00000000000E+00  0.00000000000E+00  0.10393917316E+03  0.10393917316E+03  0.00000000000E+00 0. -1.
         -1   -1    0    0    0  501 -0.00000000000E+00 -0.00000000000E+00 -0.14257880486E+03  0.14257880486E+03  0.00000000000E+00 0.  1.
         25    2    1    2    0    0  0.10915629379E+02 -0.83171540881E+01 -0.74440128001E+02  0.14620989793E+03  0.12509066943E+03 0.  0.
          5    1    3    3  502    0  0.35329031520E+02 -0.59168134010E+02 -0.36421867820E+02  0.78057884970E+02  0.41800000000E+01 0.  1.
         -5    1    3    3    0  502 -0.24413402141E+02  0.50850979922E+02 -0.38018260180E+02  0.68152012958E+02  0.41800000000E+01 0.  1.
        -11    1    1    2    0    0 -0.58778480698E+01 -0.42362621928E+02  0.16793490906E+02  0.45947384815E+02  0.00000000000E+00 0.  1.
         11    1    1    2    0    0 -0.50377813089E+01  0.50679776016E+02  0.19007005392E+02  0.54360695282E+02  0.00000000000E+00 0. -1.
</event>
<event>
 7    1  0.2719869E-009  0.1285647E+03  0.7561462E-02  0.1229601E+00
         -3   -1    0    0    0  501 -0.00000000000E+00  0.00000000000E+00  0.39091258705E+03  0.39091258705E+03  0.00000000000E+00 0.  1.
          3   -1    0    0  501    0  0.00000000000E+00 -0.00000000000E+00 -0.48433686248E+02  0.48433686248E+02  0.00000000000E+00 0. -1.
         25    2    1    2    0    0  0.33033661900E+02 -0.77442415067E+02  0.17905659369E+03  0.23408870637E+03  0.12509079996E+03 0.  0.
          5    1    3    3  502    0  0.32750612827E+02  0.23950563133E+02  0.20027863880E+02  0.45440288804E+02  0.41800000000E+01 0. -1.
         -5    1    3    3    0  502  0.28304907309E+00 -0.10139297820E+03  0.15902872981E+03  0.18864841756E+03  0.41800000000E+01 0. -1.
        -11    1    1    2    0    0  0.23142669520E+01  0.79424265988E+02  0.72027273051E+02  0.10724503682E+03  0.00000000000E+00 0. -1.
         11    1    1    2    0    0 -0.35347928852E+02 -0.19818509211E+01  0.91395034067E+02  0.98012530114E+02  0.00000000000E+00 0.  1.
</event>
<event>
 7    1  0.2719869E-009  0.2948270E+03  0.7561462E-02  0.1087856E+00
         -1   -1    0    0    0  501 -0.00000000000E+00  0.00000000000E+00  0.12179378719E+03  0.12179378719E+03  0.00000000000E+00 0.  1.
          1   -1    0    0  501    0  0.00000000000E+00 -0.00000000000E+00 -0.81991800455E+03  0.81991800455E+03  0.00000000000E+00 0. -1.
         25    2    1    2    0    0 -0.26258243495E+03  0.12261394840E+03 -0.25899977592E+03  0.40830411269E+03  0.12509056332E+03 0.  0.
          5    1    3    3  502    0 -0.26169154399E+03  0.11952558001E+03 -0.20317433234E+03  0.35223019489E+03  0.41800000000E+01 0.  1.
         -5    1    3    3    0  502 -0.89089095229E+00  0.30883683830E+01 -0.55825443581E+02  0.56073917796E+02  0.41800000000E+01 0.  1.
        -11    1    1    2    0    0  0.10443483007E+03 -0.83578521563E+02 -0.25211716575E+03  0.28540334312E+03  0.00000000000E+00 0. -1.
         11    1    1    2    0    0  0.15814760487E+03 -0.39035426834E+02 -0.18700727569E+03  0.24800433592E+03  0.00000000000E+00 0.  1.
</event>
<event>
 7    1  0.2719869E-009  0.6820728E+02  0.7561462E-02  0.1366298E+00
          1   -1    0    0  501    0  0.00000000000E+00  0.00000000000E+00  0.69298771607E+02  0.69298771607E+02  0.00000000000E+00 0. -1.
         -1   -1    0    0    0  501 -0.00000000000E+00 -0.00000000000E+00 -0.18985791280E+03  0.18985791280E+03  0.00000000000E+00 0.  1.
         25    2    1    2    0    0 -0.36981966252E+01  0.51682291558E+02 -0.86630165521E+02  0.16069746256E+03  0.12503660655E+03 0.  0.
          5    1    3    3  502    0  0.11457878446E+02  0.12018113357E+02  0.31084731826E+02  0.35488744411E+02  0.41800000000E+01 0.  1.
         -5    1    3    3    0  502 -0.15156075071E+02  0.39664178201E+02 -0.11771489735E+03  0.12520871815E+03  0.41800000000E+01 0.  1.
        -11    1    1    2    0    0 -0.16536288510E+01  0.12304486069E+02 -0.31884685605E+02  0.34216487867E+02  0.00000000000E+00 0.  1.
         11    1    1    2    0    0  0.53518254762E+01 -0.63986777627E+02 -0.20442900668E+01  0.64242733978E+02  0.00000000000E+00 0. -1.
</event>
<event>
 7    1  0.2719869E-009  0.2263331E+03  0.7561462E-02  0.1129248E+00
          1   -1    0    0  501    0  0.00000000000E+00  0.00000000000E+00  0.14592957144E+03  0.14592957144E+03  0.00000000000E+00 0. -1.
         -1   -1    0    0    0  501 -0.00000000000E+00 -0.00000000000E+00 -0.39683520455E+03  0.39683520455E+03  0.00000000000E+00 0.  1.
         25    2    1    2    0    0 -0.18601473064E+03  0.81948727647E+02 -0.51803734705E+02  0.24422953969E+03  0.12508943662E+03 0.  0.
          5    1    3    3  502    0 -0.14142332474E+03  0.11028299146E+03 -0.62874728288E+02  0.19008839744E+03  0.41800000000E+01 0. -1.
         -5    1    3    3    0  502 -0.44591405900E+02 -0.28334263809E+02  0.11070993583E+02  0.54141142254E+02  0.41800000000E+01 0. -1.
        -11    1    1    2    0    0  0.13434170732E+03 -0.97868360414E+02 -0.13130842386E+03  0.21182023623E+03  0.00000000000E+00 0. -1.
         11    1    1    2    0    0  0.51673023314E+02  0.15919632768E+02 -0.67793474541E+02  0.86715000065E+02  0.00000000000E+00 0.  1.
</event>
<event>
 7    1  0.2719869E-009  0.9078563E+02  0.7561462E-02  0.1300960E+00
         -1   -1    0    0    0  501 -0.00000000000E+00  0.00000000000E+00  0.88803154468E+02  0.88803154468E+02  0.00000000000E+00 0.  1.
          1   -1    0    0  501    0  0.00000000000E+00 -0.00000000000E+00 -0.22162535728E+03  0.22162535728E+03  0.00000000000E+00 0. -1.
         25    2    1    2    0    0 -0.37453812575E+02 -0.26133549995E+02  0.11275209424E+02  0.13364664798E+03  0.12509414717E+03 0.  0.
          5    1    3    3  502    0 -0.59023373461E+02 -0.28653315407E+02 -0.40589308939E+02  0.77264063436E+02  0.41800000000E+01 0.  1.
         -5    1    3    3    0  502  0.21569560886E+02  0.25197654120E+01  0.51864518364E+02  0.56382584542E+02  0.41800000000E+01 0.  1.
        -11    1    1    2    0    0  0.52950220239E+01  0.52106717413E+02 -0.43715490396E+02  0.68221634093E+02  0.00000000000E+00 0.  1.
         11    1    1    2    0    0  0.32158790551E+02 -0.25973167418E+02 -0.10038192184E+03  0.10856022968E+03  0.00000000000E+00 0. -1.
</event>
<event>
 7    1  0.2719869E-009  0.1510057E+03  0.7561462E-02  0.1199243E+00
         -2   -1    0    0    0  501 -0.00000000000E+00  0.00000000000E+00  0.16026437596E+03  0.16026437596E+03  0.00000000000E+00 0.  1.
          2   -1    0    0  501    0  0.00000000000E+00 -0.00000000000E+00 -0.15304803165E+03  0.15304803165E+03  0.00000000000E+00 0. -1.
         25    2    1    2    0    0  0.10603297493E+03  0.35543469241E+02  0.20256728834E+02  0.16900711884E+03  0.12508693448E+03 0.  0.
          5    1    3    3  502    0  0.96916628737E+02  0.76113835117E+02  0.28152964414E+02  0.12647612671E+03  0.41800000000E+01 0. -1.
         -5    1    3    3    0  502  0.91163461942E+01 -0.40570365877E+02 -0.78962355802E+01  0.42530992131E+02  0.41800000000E+01 0. -1.
        -11    1    1    2    0    0 -0.77941531560E+01 -0.37856846874E+02  0.16009364158E+02  0.41835265260E+02  0.00000000000E+00 0.  1.
         11    1    1    2    0    0 -0.98238821775E+02  0.23133776327E+01 -0.29049748682E+02  0.10247002351E+03  0.00000000000E+00 0. -1.
</event>
<event>
 7    1  0.2719869E-009  0.8598065E+02  0.7561462E-02  0.1312888E+00
          1   -1    0    0  501    0  0.00000000000E+00  0.00000000000E+00  0.12483434520E+03  0.12483434520E+03  0.00000000000E+00 0. -1.
         -1   -1    0    0    0  501 -0.00000000000E+00 -0.00000000000E+00 -0.12696898324E+03  0.12696898324E+03  0.00000000000E+00 0.  1.
         25    2    1    2    0    0 -0.14680841653E+02 -0.12157946445E+02  0.59503909560E+02  0.13982910744E+03  0.12509245086E+03 0.  0.
          5    1    3    3  502    0 -0.52542812168E+02 -0.23996468116E+02 -0.10880346124E+02  0.58927344453E+02  0.41800000000E+01 0. -1.
         -5    1    3    3    0  502  0.37861970515E+02  0.11838521671E+02  0.70384255684E+02  0.80901762989E+02  0.41800000000E+01 0. -1.
        -11    1    1    2    0    0 -0.28330663463E+02  0.12924627743E+02 -0.61524144671E+02  0.68955731249E+02  0.00000000000E+00 0.  1.
         11    1    1    2    0    0  0.43011505117E+02 -0.76668129712E+00 -0.11440292751E+00  0.43018489753E+02  0.00000000000E+00 0. -1.
</event>
<event>
 7    1  0.2719869E-009  0.1149167E+03  0.7561462E-02  0.1251727E+00
         -1   -1    0    0    0  501 -0.00000000000E+00  0.00000000000E+00  0.31855012780E+03  0.31855012780E+03  0.00000000000E+00 0.  1.
          1   -1    0    0  501    0  0.00000000000E+00 -0.00000000000E+00 -0.14851478384E+03  0.14851478384E+03  0.00000000000E+00 0. -1.
         25    2    1    2    0    0 -0.12829377075E+02  0.62966736791E+02  0.27819993801E+03  0.31173359096E+03  0.12511284255E+03 0.  0.
          5    1    3    3  502    0 -0.20400434297E+02 -0.29604746150E+02  0.31100294331E+02  0.47721268021E+02  0.41800000000E+01 0.  1.
         -5    1    3    3    0  502  0.75710572228E+01  0.92571482940E+02  0.24709964368E+03  0.26401232294E+03  0.41800000000E+01 0.  1.
        -11    1    1    2    0    0 -0.21781749905E+02  0.67706098551E+01 -0.58993623631E+02  0.63249770086E+02  0.00000000000E+00 0. -1.
         11    1    1    2    0    0  0.34611126980E+02 -0.69737346646E+02 -0.49170970413E+02  0.92081550591E+02  0.00000000000E+00 0.  1.
</event>
<event>
 7    1  0.2719869E-009  0.5191497E+02  0.7561462E-02  0.1435278E+00
          1   -1    0    0  501    0  0.00000000000E+00  0.00000000000E+00  0.27348714883E+02  0.27348714883E+02  0.00000000000E+00 0. -1.
         -1   -1    0    0    0  501 -0.00000000000E+00 -0.00000000000E+00 -0.44305961518E+03  0.44305961518E+03  0.00000000000E+00 0.  1.
         25    2    1    2    0    0  0.20221715659E+02  0.18881810097E+01 -0.21129974137E+03  0.24639033494E+03  0.12509249954E+03 0.  0.
          5    1    3    3  502    0  0.48925522066E+01 -0.62105293532E+01 -0.22420097983E+03  0.22437927600E+03  0.41800000000E+01 0. -1.
         -5    1    3    3    0  502  0.15329163452E+02  0.80987103629E+01  0.12901238466E+02  0.22011058940E+02  0.41800000000E+01 0. -1.
        -11    1    1    2    0    0 -0.31258533367E+02  0.29989831009E+02 -0.50871792899E+02  0.66816354173E+02  0.00000000000E+00 0. -1.
         11    1    1    2    0    0  0.11036817708E+02 -0.31878012019E+02 -0.15353936603E+03  0.15720164095E+03  0.00000000000E+00 0.  1.
</event>
<event>
 7    1  0.2719869E-009  0.5881537E+02  0.7561462E-02  0.1402871E+00
          1   -1    0    0  501    0  0.00000000000E+00  0.00000000000E+00  0.48224980903E+02  0.48224980903E+02  0.00000000000E+00 0. -1.
         -1   -1    0    0    0  501 -0.00000000000E+00 -0.00000000000E+00 -0.29543251548E+03  0.29543251548E+03  0.00000000000E+00 0.  1.
         25    2    1    2    0    0 -0.30799477250E+02  0.10550891796E+02 -0.88011498413E+02  0.15637257945E+03  0.12508569316E+03 0.  0.
          5    1    3    3  502    0  0.18953331848E+01  0.16270139047E+02  0.29604689509E+02  0.34091344259E+02  0.41800000000E+01 0.  1.
         -5    1    3    3    0  502 -0.32694810434E+02 -0.57192472508E+01 -0.11761618792E+03  0.12228123519E+03  0.41800000000E+01 0.  1.
        -11    1    1    2    0    0  0.36512621215E+02 -0.29839854340E+02 -0.16034487889E+03  0.16713488146E+03  0.00000000000E+00 0.  1.
         11    1    1    2    0    0 -0.57131439659E+01  0.19288962544E+02  0.11488427235E+01  0.20150035474E+02  0.00000000000E+00 0. -1.
</event>
<event>
 7    1  0.2719869E-009  0.8574866E+02  0.7561462E-02  0.1313486E+00
         -2   -1    0    0    0  501 -0.00000000000E+00  0.00000000000E+00  0.56595133675E+02  0.56595133675E+02  0.00000000000E+00 0.  1.
          2   -1    0    0  501    0  0.00000000000E+00 -0.00000000000E+00 -0.29387369794E+03  0.29387369794E+03  0.00000000000E+00 0. -1.
         25    2    1    2    0    0 -0.14019847602E+02 -0.29153745495E+02 -0.49847737623E+02  0.13848659504E+03  0.12508894058E+03 0.  0.
          5    1    3    3  502    0 -0.11444827215E+02  0.33377918840E+02  0.23022527703E+02  0.42338855888E+02  0.41800000000E+01 0. -1.
         -5    1    3    3    0  502 -0.25750203865E+01 -0.62531664335E+02 -0.72870265326E+02  0.96147739148E+02  0.41800000000E+01 0. -1.
        -11    1    1    2    0    0  0.40602115974E+02  0.17221089894E+02 -0.33674454214E+02  0.55489337942E+02  0.00000000000E+00 0.  1.
         11    1    1    2    0    0 -0.26582268372E+02  0.11932655601E+02 -0.15375637243E+03  0.15649289864E+03  0.00000000000E+00 0. -1.
</event>
<event>
 7    1  0.2719869E-009  0.1377335E+03  0.7561462E-02  0.1216412E+00
         -3   -1    0    0    0  501 -0.00000000000E+00  0.00000000000E+00  0.16054838502E+03  0.16054838502E+03  0.00000000000E+00 0.  1.
          3   -1    0    0  501    0  0.00000000000E+00 -0.00000000000E+00 -0.15050863777E+03  0.15050863777E+03  0.00000000000E+00 0. -1.
         25    2    1    2    0    0 -0.79678878878E+02 -0.60337334376E+02 -0.43209987934E+02  0.16584166913E+03  0.12508812295E+03 0.  0.
          5    1    3    3  502    0 -0.62254782831E+02 -0.99247554045E+02 -0.33368677408E+02  0.12188796496E+03  0.41800000000E+01 0.  1.
         -5    1    3    3    0  502 -0.17424096047E+02  0.38910219669E+02 -0.98413105257E+01  0.43953704174E+02  0.41800000000E+01 0.  1.
        -11    1    1    2    0    0  0.82396305539E+02  0.34351463265E+02  0.70632421120E+02  0.11383370814E+03  0.00000000000E+00 0.  1.
         11    1    1    2    0    0 -0.27174266615E+01  0.25985871111E+02 -0.17382685946E+02  0.31381645523E+02  0.00000000000E+00 0. -1.
</event>
<event>
 7    1  0.2719869E-009  0.9675585E+02  0.7561462E-02  0.1287270E+00
         -2   -1    0    0    0  501 -0.00000000000E+00  0.00000000000E+00  0.10155138425E+03  0.10155138425E+03  0.00000000000E+00 0.  1.
          2   -1    0    0  501    0  0.00000000000E+00 -0.00000000000E+00 -0.15564359532E+03  0.15564359532E+03  0.00000000000E+00 0. -1.
         25    2    1    2    0    0  0.31394949320E+02 -0.29409541821E+02  0.22089883479E+02  0.13411138472E+03  0.12508931436E+03 0.  0.
          5    1    3    3  502    0 -0.97188746975E+01 -0.71860429705E+02  0.17344975843E+02  0.74677295544E+02  0.41800000000E+01 0.  1.
         -5    1    3    3    0  502  0.41113824018E+02  0.42450887884E+02  0.47449076359E+01  0.59434089174E+02  0.41800000000E+01 0.  1.
        -11    1    1    2    0    0 -0.68085925342E+01  0.35627159616E+02  0.62785689288E+01  0.36811300743E+02  0.00000000000E+00 0.  1.
         11    1    1    2    0    0 -0.24586356786E+02 -0.62176177946E+01 -0.82460663473E+02  0.86272294113E+02  0.00000000000E+00 0. -1.
</event>
<event>
 7    1  0.2719869E-009  0.1603855E+03  0.7561462E-02  0.1188262E+00
          2   -1    0    0  501    0  0.00000000000E+00  0.00000000000E+00  0.83470089463E+03  0.83470089463E+03  0.00000000000E+00 0. -1.
         -2   -1    0    0    0  501 -0.00000000000E+00 -0.00000000000E+00 -0.38142326979E+02  0.38142326979E+02  0.00000000000E+00 0.  1.
         25    2    1    2    0    0  0.11429564237E+02  0.13866315788E+03  0.47173645231E+03  0.50748536026E+03  0.12509198275E+03 0.  0.
          5    1    3    3  502    0 -0.37948347949E+02  0.68208429683E+01  0.17182334206E+03  0.17614577568E+03  0.41800000000E+01 0.  1.
         -5    1    3    3    0  502  0.49377912187E+02  0.13184231492E+03  0.29991311025E+03  0.33133958459E+03  0.41800000000E+01 0.  1.
        -11    1    1    2    0    0  0.54968127167E+01 -0.77029201604E+02  0.27103361387E+03  0.28182074568E+03  0.00000000000E+00 0. -1.
         11    1    1    2    0    0 -0.16926376954E+02 -0.61633956280E+02  0.53788501473E+02  0.83537115669E+02  0.00000000000E+00 0.  1.
</event>
<event>
 7    1  0.2719869E-009  0.1426137E+03  0.7561462E-02  0.1209855E+00
          1   -1    0    0  501    0  0.00000000000E+00  0.00000000000E+00  0.17290212765E+02  0.17290212765E+02  0.00000000000E+00 0. -1.
         -1   -1    0    0    0  501 -0.00000000000E+00 -0.00000000000E+00 -0.18313951831E+04  0.18313951831E+04  0.00000000000E+00 0.  1.
         25    2    1    2    0    0 -0.11906935793E+03  0.61532799587E+02 -0.11753601211E+04  0.11895726586E+04  0.12509155941E+03 0.  0.
          5    1    3    3  502    0 -0.11786931675E+03  0.61314491135E+02 -0.61528169675E+03  0.62947730810E+03  0.41800000000E+01 0. -1.
         -5    1    3    3    0  502 -0.12000411772E+01  0.21830845251E+00 -0.56007842439E+03  0.56009535048E+03  0.41800000000E+01 0. -1.
        -11    1    1    2    0    0  0.54905766931E+02 -0.63250845414E+02 -0.49004244445E+03  0.49714878060E+03  0.00000000000E+00 0.  1.
         11    1    1    2    0    0  0.64163590994E+02  0.17180458268E+01 -0.14870240473E+03  0.16196395668E+03  0.00000000000E+00 0. -1.
</event>
<event>
 7    1  0.2719869E-009  0.1464849E+03  0.7561462E-02  0.1204860E+00
         -1   -1    0    0    0  501 -0.00000000000E+00  0.00000000000E+00  0.35736763669E+02  0.35736763669E+02  0.00000000000E+00 0.  1.
          1   -1    0    0  501    0  0.00000000000E+00 -0.00000000000E+00 -0.65249784184E+03  0.65249784184E+03  0.00000000000E+00 0. -1.
         25    2    1    2    0    0 -0.60168908064E+02  0.88986075590E+02 -0.36641622860E+03  0.40180456428E+03  0.12508891296E+03 0.  0.
          5    1    3    3  502    0 -0.50193795120E+02 -0.12801643975E+02 -0.19813237375E+03  0.20483458957E+03  0.41800000000E+01 0. -1.
         -5    1    3    3    0  502 -0.99751129446E+01  0.10178771956E+03 -0.16828385485E+03  0.19696997471E+03  0.41800000000E+01 0. -1.
        -11    1    1    2    0    0 -0.19532788893E+02 -0.48303342027E+00 -0.27207981865E+02  0.33496827318E+02  0.00000000000E+00 0.  1.
         11    1    1    2    0    0  0.79701696957E+02 -0.88503042170E+02 -0.22313686771E+03  0.25293321391E+03  0.00000000000E+00 0. -1.
</event>
<event>
 7    1  0.2719869E-009  0.1663521E+03  0.7561462E-02  0.1181706E+00
         -2   -1    0    0    0  501 -0.00000000000E+00  0.00000000000E+00  0.31773991256E+02  0.31773991256E+02  0.00000000000E+00 0.  1.
          2   -1    0    0  501    0  0.00000000000E+00 -0.00000000000E+00 -0.11348358483E+04  0.11348358483E+04  0.00000000000E+00 0. -1.
         25    2    1    2    0    0  0.13662194090E+03 -0.27984232000E+01 -0.35143790207E+03  0.39727881369E+03  0.12509384833E+03 0.  0.
          5    1    3    3  502    0  0.57424578866E+01 -0.35569036414E+02 -0.25053864910E+02  0.44082884671E+02  0.41800000000E+01 0.  1.
         -5    1    3    3    0  502  0.13087948301E+03  0.32770613215E+02 -0.32638403716E+03  0.35319592902E+03  0.41800000000E+01 0.  1.
        -11    1    1    2    0    0 -0.39032092010E+02  0.41036334389E+02 -0.20132816577E+03  0.20914233259E+03  0.00000000000E+00 0. -1.
         11    1    1    2    0    0 -0.97589848891E+02 -0.38237911189E+02 -0.55029578916E+03  0.56018869323E+03  0.00000000000E+00 0.  1.
</event>
<event>
 7    1  0.2719869E-009  0.2212837E+03  0.7561462E-02  0.1132930E+00
          1   -1    0    0  501    0  0.00000000000E+00  0.00000000000E+00  0.12048852038E+04  0.12048852038E+04  0.00000000000E+00 0. -1.
         -1   -1    0    0    0  501 -0.00000000000E+00 -0.00000000000E+00 -0.45693282731E+02  0.45693282731E+02  0.00000000000E+00 0.  1.
         25    2    1    2    0    0  0.20389353326E+03  0.78705834055E+01  0.52426851880E+03  0.57631140669E+03  0.12507133438E+03 0.  0.
          5    1    3    3  502    0  0.21414582832E+03  0.26850954153E+02  0.49200068896E+03  0.53727233306E+03  0.41800000000E+01 0. -1.
         -5    1    3    3    0  502 -0.10252295059E+02 -0.18980370747E+02  0.32267829837E+02  0.39039073632E+02  0.41800000000E+01 0. -1.
        -11    1    1    2    0    0 -0.10383600126E+03  0.43655455998E+01  0.46688868632E+03  0.47831581466E+03  0.00000000000E+00 0.  1.
         11    1    1    2    0    0 -0.10005753200E+03 -0.12236129005E+02  0.16803471598E+03  0.19595126521E+03  0.00000000000E+00 0. -1.
</event>
<event>
 7    1  0.2719869E-009  0.1319794E+03  0.7561462E-02  0.1224548E+00
          2   -1    0    0  501    0  0.00000000000E+00  0.00000000000E+00  0.66301340412E+03  0.66301340412E+03  0.00000000000E+00 0. -1.
         -2   -1    0    0    0  501 -0.00000000000E+00 -0.00000000000E+00 -0.32319761685E+02  0.32319761685E+02  0.00000000000E+00 0.  1.
         25    2    1    2    0    0  0.56866323458E+02 -0.78673235381E+02  0.31764169085E+03  0.35491843828E+03  0.12509035679E+03 0.  0.
          5    1    3    3  502    0  0.89186724795E+02 -0.59731187980E+02  0.28665637286E+03  0.30612323531E+03  0.41800000000E+01 0.  1.
         -5    1    3    3    0  502 -0.32320401337E+02 -0.18942047401E+02  0.30985317992E+02  0.48795202975E+02  0.41800000000E+01 0.  1.
        -11    1    1    2    0    0  0.15011350419E+02  0.24903020709E+02  0.16291658508E+03  0.16549113202E+03  0.00000000000E+00 0. -1.
         11    1    1    2    0    0 -0.71877673877E+02  0.53770214672E+02  0.15013536651E+03  0.17492359550E+03  0.00000000000E+00 0.  1.
</event>
<event>
 7    1  0.2719869E-009  0.1433831E+03  0.7561462E-02  0.1208848E+00
         -1   -1    0    0    0  501 -0.00000000000E+00  0.00000000000E+00  0.29258430419E+02  0.29258430419E+02  0.00000000000E+00 0.  1.
          1   -1    0    0  501    0  0.00000000000E+00 -0.00000000000E+00 -0.12021414428E+04  0.12021414428E+04  0.00000000000E+00 0. -1.
         25    2    1    2    0    0 -0.25236731310E+02  0.12552406777E+03 -0.90712441050E+03  0.92461624065E+03  0.12508921680E+03 0.  0.
          5    1    3    3  502    0  0.19696584211E+02  0.24958708206E+02 -0.43804761076E+02  0.54288323218E+02  0.41800000000E+01 0. -1.
         -5    1    3    3    0  502 -0.44933315521E+02  0.10056535957E+03 -0.86331964942E+03  0.87032791744E+03  0.41800000000E+01 0. -1.
        -11    1    1    2    0    0 -0.20250926821E+02 -0.69039800562E+02 -0.18360521976E+03  0.19719906395E+03  0.00000000000E+00 0. -1.
         11    1    1    2    0    0  0.45487658131E+02 -0.56484267211E+02 -0.82153382116E+02  0.10958456861E+03  0.00000000000E+00 0.  1.
</event>
<event>
 7    1  0.2719869E-009  0.1092688E+03  0.7561462E-02  0.1261930E+00
         -1   -1    0    0    0  501 -0.00000000000E+00  0.00000000000E+00  0.39996704720E+03  0.39996704720E+03  0.00000000000E+00 0.  1.
          1   -1    0    0  501    0  0.00000000000E+00 -0.00000000000E+00 -0.36602563780E+02  0.36602563780E+02  0.00000000000E+00 0. -1.
         25    2    1    2    0    0  0.29675890516E+02 -0.36709473523E+02  0.15917612830E+03  0.20787633830E+03  0.12508912134E+03 0.  0.
          5    1    3    3  502    0 -0.47550568022E+02 -0.27426503496E+02  0.55216119491E+02  0.77971545226E+02  0.41800000000E+01 0.  1.
         -5    1    3    3    0  502  0.77226458538E+02 -0.92829700274E+01  0.10396000881E+03  0.12990479307E+03  0.41800000000E+01 0.  1.
        -11    1    1    2    0    0 -0.42200026459E+02  0.51257712398E+02  0.19750589714E+03  0.20836692328E+03  0.00000000000E+00 0.  1.
         11    1    1    2    0    0  0.12524135943E+02 -0.14548238875E+02  0.66824579848E+01  0.20326349406E+02  0.00000000000E+00 0. -1.
</event>
<event>
 7    1  0.2719869E-009  0.1435522E+03  0.7561462E-02  0.1208628E+00
         -2   -1    0    0    0  501 -0.00000000000E+00  0.00000000000E+00  0.51315606395E+02  0.51315606395E+02  0.00000000000E+00 0.  1.
          2   -1    0    0  501    0  0.00000000000E+00 -0.00000000000E+00 -0.58116550024E+03  0.58116550024E+03  0.00000000000E+00 0. -1.
         25    2    1    2    0    0  0.96490572488E+02  0.44204167184E+02 -0.13260058378E+03  0.21094000028E+03  0.12509328489E+03 0.  0.
          5    1    3    3  502    0 -0.29311371702E+02  0.13090833874E+02 -0.14185098312E+02  0.35344247858E+02  0.41800000000E+01 0. -1.
         -5    1    3    3    0  502  0.12580194419E+03  0.31113333311E+02 -0.11841548546E+03  0.17559575242E+03  0.41800000000E+01 0. -1.
        -11    1    1    2    0    0 -0.18066543544E+02  0.17599573739E+02 -0.22773993162E+02  0.33982344769E+02  0.00000000000E+00 0.  1.
         11    1    1    2    0    0 -0.78424028944E+02 -0.61803740924E+02 -0.37447531691E+03  0.38755876158E+03  0.00000000000E+00 0. -1.
</event>
<event>
 7    1  0.2719869E-009  0.7190986E+02  0.7561462E-02  0.1353716E+00
         -2   -1    0    0    0  501 -0.00000000000E+00  0.00000000000E+00  0.32789722808E+02  0.32789722808E+02  0.00000000000E+00 0.  1.
          2   -1    0    0  501    0  0.00000000000E+00 -0.00000000000E+00 -0.42034930108E+03  0.42034930108E+03  0.00000000000E+00 0. -1.
         25    2    1    2    0    0  0.38637808172E+02 -0.15958298907E+02 -0.25877215333E+03  0.29044149212E+03  0.12508271456E+03 0.  0.
          5    1    3    3  502    0  0.96883415184E+01 -0.11276989227E+02  0.11055391666E+02  0.18992854769E+02  0.41800000000E+01 0.  1.
         -5    1    3    3    0  502  0.28949466654E+02 -0.46813096803E+01 -0.26982754500E+03  0.27144863735E+03  0.41800000000E+01 0.  1.
        -11    1    1    2    0    0 -0.25776900172E+02  0.53329175428E+02 -0.67863434767E+02  0.90077163102E+02  0.00000000000E+00 0.  1.
         11    1    1    2    0    0 -0.12860908000E+02 -0.37370876521E+02 -0.60923990172E+02  0.72620368664E+02  0.00000000000E+00 0. -1.
</event>
<event>
 7    1  0.2719869E-009  0.1072459E+03  0.7561462E-02  0.1265757E+00
         -2   -1    0    0    0  501 -0.00000000000E+00  0.00000000000E+00  0.44800691640E+02  0.44800691640E+02  0.00000000000E+00 0.  1.
          2   -1    0    0  501    0  0.00000000000E+00 -0.00000000000E+00 -0.11382282336E+04  0.11382282336E+04  0.00000000000E+00 0. -1.
         25    2    1    2    0    0  0.62566139317E+01 -0.50918437172E+02 -0.10641193307E+04  0.10726746160E+04  0.12509616058E+03 0.  0.
          5    1    3    3  502    0 -0.46049199642E+02 -0.42997529476E+02 -0.83952560179E+03  0.84189668297E+03  0.41800000000E+01 0. -1.
         -5    1    3    3    0  502  0.52305813574E+02 -0.79209076960E+01 -0.22459372890E+03  0.23077793303E+03  0.41800000000E+01 0. -1.
        -11    1    1    2    0    0  0.28426972915E+02  0.56410272044E+02  0.21553704345E+01  0.63204882746E+02  0.00000000000E+00 0.  1.
         11    1    1    2    0    0 -0.34683586847E+02 -0.54918348726E+01 -0.31463581750E+02  0.47149426543E+02  0.00000000000E+00 0. -1.
</event>
<event>
 7    1  0.2719869E-009  0.1180992E+03  0.7561462E-02  0.1246266E+00
         -1   -1    0    0    0  501 -0.00000000000E+00  0.00000000000E+00  0.74011718819E+02  0.74011718819E+02  0.00000000000E+00 0.  1.
          1   -1    0    0  501    0  0.00000000000E+00 -0.00000000000E+00 -0.19646780332E+03  0.19646780332E+03  0.00000000000E+00 0. -1.
         25    2    1    2    0    0 -0.39370497568E+02  0.37039114348E+02 -0.80562805668E+02  0.15830484733E+03  0.12509247364E+03 0.  0.
          5    1    3    3  502    0  0.40392965580E+02  0.32742982230E+02 -0.13399037519E+02  0.53858157786E+02  0.41800000000E+01 0. -1.
         -5    1    3    3    0  502 -0.79763463148E+02  0.42961321181E+01 -0.67163768149E+02  0.10444668954E+03  0.41800000000E+01 0. -1.
        -11    1    1    2    0    0  0.45118553597E+02  0.18095268550E+02 -0.18687603567E+02  0.52080218411E+02  0.00000000000E+00 0. -1.
         11    1    1    2    0    0 -0.57480560291E+01 -0.55134382898E+02 -0.23205675271E+02  0.60094456404E+02  0.00000000000E+00 0.  1.
</event>
<event>
 7    1  0.2719869E-009  0.9363744E+02  0.7561462E-02  0.1294275E+00
         -1   -1    0    0    0  501 -0.00000000000E+00  0.00000000000E+00  0.21333792623E+03  0.21333792623E+03  0.00000000000E+00 0.  1.
          1   -1    0    0  501    0  0.00000000000E+00 -0.00000000000E+00 -0.56711975361E+02  0.56711975361E+02  0.00000000000E+00 0. -1.
         25    2    1    2    0    0  0.16843109383E+02  0.91864769371E+01  0.10050865342E+03  0.16158996931E+03  0.12506497142E+03 0.  0.
          5    1    3    3  502    0 -0.18935516328E+00 -0.41689000247E+02  0.99283861934E+02  0.10776254561E+03  0.41800000000E+01 0. -1.
         -5    1    3    3    0  502  0.17032464546E+02  0.50875477184E+02  0.12247914818E+01  0.53827423692E+02  0.41800000000E+01 0. -1.
        -11    1    1    2    0    0  0.30829343583E+02 -0.26691231267E+02  0.16252756101E+02  0.43897862513E+02  0.00000000000E+00 0.  1.
         11    1    1    2    0    0 -0.47672452965E+02  0.17504754330E+02  0.39864541354E+02  0.64562069772E+02  0.00000000000E+00 0. -1.
</event>
<event>
 7    1  0.2719869E-009  0.9974499E+02  0.7561462E-02  0.1280833E+00
          1   -1    0    0  501    0  0.00000000000E+00  0.00000000000E+00  0.11603709659E+03  0.11603709659E+03  0.00000000000E+00 0. -1.
         -1   -1    0    0    0  501 -0.00000000000E+00 -0.00000000000E+00 -0.11180687071E+03  0.11180687071E+03  0.00000000000E+00 0.  1.
         25    2    1    2    0    0 -0.18031794501E+02 -0.15791335205E+02  0.27175600581E+02  0.13023050713E+03  0.12508780852E+03 0.  0.
          5    1    3    3  502    0 -0.30356757617E+02 -0.66323364145E+02  0.41008440176E+01  0.73175205406E+02  0.41800000000E+01 0.  1.
         -5    1    3    3    0  502  0.12324963116E+02  0.50532028940E+02  0.23074756563E+02  0.57055301727E+02  0.41800000000E+01 0.  1.
        -11    1    1    2    0    0 -0.53392488083E+01  0.40143011509E+02 -0.42419415170E+02  0.58646191131E+02  0.00000000000E+00 0.  1.
         11    1    1    2    0    0  0.23371043309E+02 -0.24351676304E+02  0.19474040467E+02  0.38967269038E+02  0.00000000000E+00 0. -1.
</event>
<event>
 7    1  0.2719869E-009  0.6078188E+02  0.7561462E-02  0.1394580E+00
         -2   -1    0    0    0  501 -0.00000000000E+00  0.00000000000E+00  0.67296362414E+02  0.67296362414E+02  0.00000000000E+00 0. -1.
          2   -1    0    0  501    0  0.00000000000E+00 -0.00000000000E+00 -0.18918704633E+03  0.18918704633E+03  0.00000000000E+00 0.  1.
         25    2    1    2    0    0  0.36462773532E+01 -0.20675993333E+02 -0.96044030521E+02  0.15912261745E+03  0.12511898156E+03 0.  0.
          5    1    3    3  502    0 -0.11728087521E+02  0.12962851326E+02 -0.11566041862E+03  0.11704865820E+03  0.41800000000E+01 0. -1.
         -5    1    3    3    0  502  0.15374364874E+02 -0.33638844659E+02  0.19616388097E+02  0.42073959254E+02  0.41800000000E+01 0. -1.
        -11    1    1    2    0    0 -0.23694672526E+02  0.34617085699E+02  0.19189515689E+02  0.46130441585E+02  0.00000000000E+00 0. -1.
         11    1    1    2    0    0  0.20048395173E+02 -0.13941092366E+02 -0.45036169085E+02  0.51230349708E+02  0.00000000000E+00 0.  1.
</event>
<event>
 6    1  0.2719869E-009  0.1244600E+03  0.7561462E-02  0.1235916E+00
          2   -1    0    0  501    0  0.00000000000E+00  0.00000000000E+00  0.54785841790E+03  0.54785841790E+03  0.00000000000E+00 0. -1.
         -2   -1    0    0    0  501 -0.00000000000E+00 -0.00000000000E+00 -0.39615825066E+02  0.39615825066E+02  0.00000000000E+00 0.  1.
          5    1    1    2  502    0 -0.42672120139E+02 -0.16592823318E+02  0.41658140695E+02  0.62041153349E+02  0.41800000000E+01 0.  1.
         -5    1    1    2    0  502  0.83979247108E+02 -0.62141582541E+02  0.16668523703E+03  0.19676262569E+03  0.41800000000E+01 0.  1.
        -11    1    1    2    0    0 -0.49773960587E+02  0.60932055425E+02  0.29873605927E+03  0.30892296069E+03  0.00000000000E+00 0. -1.
         11    1    1    2    0    0  0.84668336178E+01  0.17802350434E+02  0.11631558358E+01  0.19747503234E+02  0.00000000000E+00 0.  1.
</event>
<event>
 7    1  0.2719869E-009  0.1199562E+03  0.7561462E-02  0.1243169E+00
         -2   -1    0    0    0  501 -0.00000000000E+00  0.00000000000E+00  0.84499017125E+02  0.84499017125E+02  0.00000000000E+00 0.  1.
          2   -1    0    0  501    0  0.00000000000E+00 -0.00000000000E+00 -0.28309521359E+03  0.28309521359E+03  0.00000000000E+00 0. -1.
         25    2    1    2    0    0  0.43261552205E+02 -0.95954823650E+02 -0.58981939612E+02  0.17379985125E+03  0.12509448035E+03 0.  0.
          5    1    3    3  502    0  0.58034399508E+02 -0.31432029400E+02  0.21473649654E+02  0.69530957335E+02  0.41800000000E+01 0.  1.
         -5    1    3    3    0  502 -0.14772847303E+02 -0.64522794250E+02 -0.80455589266E+02  0.10426889392E+03  0.41800000000E+01 0.  1.
        -11    1    1    2    0    0 -0.30426115313E+02  0.41199526774E+02 -0.12588237977E+03  0.13590262336E+03  0.00000000000E+00 0. -1.
         11    1    1    2    0    0 -0.12835436892E+02  0.54755296876E+02 -0.13731877084E+02  0.57891756100E+02  0.00000000000E+00 0.  1.
</event>
<event>
 7    1  0.2719869E-009  0.2063614E+03  0.7561462E-02  0.1144480E+00
         -1   -1    0    0    0  501 -0.00000000000E+00  0.00000000000E+00  0.24197430948E+03  0.24197430948E+03  0.00000000000E+00 0.  1.
          1   -1    0    0  501    0  0.00000000000E+00 -0.00000000000E+00 -0.21453484995E+03  0.21453484995E+03  0.00000000000E+00 0. -1.
         25    2    1    2    0    0  0.13682582432E+03  0.14303275951E+03 -0.14937034122E+02  0.23462991724E+03  0.12509359128E+03 0.  0.
          5    1    3    3  502    0  0.12337828450E+03  0.14190948721E+03 -0.51849925470E+02  0.19510610143E+03  0.41800000000E+01 0.  1.
         -5    1    3    3    0  502  0.13447539823E+02  0.11232722991E+01  0.36912891347E+02  0.39523815802E+02  0.41800000000E+01 0.  1.
        -11    1    1    2    0    0 -0.55286094671E+02 -0.10886012055E+03 -0.37637048020E+01  0.12215254227E+03  0.00000000000E+00 0. -1.
         11    1    1    2    0    0 -0.81539729649E+02 -0.34172638960E+02  0.46140198453E+02  0.99726699925E+02  0.00000000000E+00 0.  1.
</event>
<event>
 7    1  0.2719869E-009  0.7882450E+02  0.7561462E-02  0.1332421E+00
         -1   -1    0    0    0  501 -0.00000000000E+00  0.00000000000E+00  0.12790866009E+03  0.12790866009E+03  0.00000000000E+00 0.  1.
          1   -1    0    0  501    0  0.00000000000E+00 -0.00000000000E+00 -0.17288830858E+03  0.17288830858E+03  0.00000000000E+00 0. -1.
         25    2    1    2    0    0  0.86885094818E+01 -0.45252896725E+02 -0.11527418818E+03  0.17623547344E+03  0.12508992277E+03 0.  0.
          5    1    3    3  502    0  0.16498977481E+02 -0.43963112531E+02  0.12000590827E+02  0.48646254754E+02  0.41800000000E+01 0.  1.
         -5    1    3    3    0  502 -0.78104679994E+01 -0.12897841940E+01 -0.12727477901E+03  0.12758921869E+03  0.41800000000E+01 0.  1.
        -11    1    1    2    0    0  0.28931224005E+02  0.55478874939E+02  0.33584321898E+02  0.71012871822E+02  0.00000000000E+00 0. -1.
         11    1    1    2    0    0 -0.37619733487E+02 -0.10225978214E+02  0.36710217798E+02  0.53548623408E+02  0.00000000000E+00 0.  1.
</event>
<event>
 7    1  0.2719869E-009  0.1044479E+03  0.7561462E-02  0.1271211E+00
         -2   -1    0    0    0  501 -0.00000000000E+00  0.00000000000E+00  0.54809331639E+02  0.54809331639E+02  0.00000000000E+00 0.  1.
          2   -1    0    0  501    0  0.00000000000E+00 -0.00000000000E+00 -0.32418278325E+03  0.32418278325E+03  0.00000000000E+00 0. -1.
         25    2    1    2    0    0  0.43031436488E+02  0.61444875481E+02 -0.17728864348E+03  0.22957751212E+03  0.12508954280E+03 0.  0.
          5    1    3    3  502    0  0.57579221954E+02  0.85834170008E+02 -0.17152104215E+03  0.20029930565E+03  0.41800000000E+01 0. -1.
         -5    1    3    3    0  502 -0.14547785466E+02 -0.24389294527E+02 -0.57676013285E+01  0.29278206478E+02  0.41800000000E+01 0. -1.
        -11    1    1    2    0    0 -0.27821846854E+02 -0.51625147659E+02 -0.10954986860E+03  0.12425934470E+03  0.00000000000E+00 0. -1.
         11    1    1    2    0    0 -0.15209589634E+02 -0.98197278221E+01  0.17465060471E+02  0.25155258070E+02  0.00000000000E+00 0.  1.
</event>
<event>
 7    1  0.2719869E-009  0.1589918E+03  0.7561462E-02  0.1189840E+00
         -2   -1    0    0    0  501 -0.00000000000E+00  0.00000000000E+00  0.24511004835E+02  0.24511004835E+02  0.00000000000E+00 0.  1.
          2   -1    0    0  501    0  0.00000000000E+00 -0.00000000000E+00 -0.11459267953E+04  0.11459267953E+04  0.00000000000E+00 0. -1.
         25    2    1    2    0    0 -0.10849232061E+03  0.41160965854E+02 -0.41430142964E+03  0.44805997630E+03  0.12508900439E+03 0.  0.
          5    1    3    3  502    0 -0.90983004565E+02  0.84154814426E+02 -0.29935584264E+03  0.32402366092E+03  0.41800000000E+01 0.  1.
         -5    1    3    3    0  502 -0.17509316045E+02 -0.42993848572E+02 -0.11494558700E+03  0.12403631538E+03  0.41800000000E+01 0.  1.
        -11    1    1    2    0    0 -0.23815745530E+01 -0.36309504970E+02 -0.19672985381E+03  0.20006670745E+03  0.00000000000E+00 0.  1.
         11    1    1    2    0    0  0.11087389516E+03 -0.48514608837E+01 -0.51038450702E+03  0.52231111640E+03  0.00000000000E+00 0. -1.
</event>
<event>
 7    1  0.2719869E-009  0.1025509E+03  0.7561462E-02  0.1275021E+00
         -2   -1    0    0    0  501 -0.00000000000E+00  0.00000000000E+00  0.29886726673E+02  0.29886726673E+02  0.00000000000E+00 0.  1.
          2   -1    0    0  501    0  0.00000000000E+00 -0.00000000000E+00 -0.10512571775E+04  0.10512571775E+04  0.00000000000E+00 0. -1.
         25    2    1    2    0    0 -0.17512501861E+02  0.42251903329E+02 -0.94190288368E+03  0.95127318320E+03  0.12509082992E+03 0.  0.
          5    1    3    3  502    0 -0.49288833261E+02  0.73142672825E+02 -0.59152767016E+03  0.59808168057E+03  0.41800000000E+01 0.  1.
         -5    1    3    3    0  502  0.31776331400E+02 -0.30890769496E+02 -0.35037521352E+03  0.35319150263E+03  0.41800000000E+01 0.  1.
        -11    1    1    2    0    0  0.34365211274E+02 -0.98209575241E+01  0.66174766615E+01  0.36348451823E+02  0.00000000000E+00 0.  1.
         11    1    1    2    0    0 -0.16852709412E+02 -0.32430945804E+02 -0.86085043851E+02  0.93522269193E+02  0.00000000000E+00 0. -1.
</event>
<event>
 7    1  0.2719869E-009  0.1037553E+03  0.7561462E-02  0.1272592E+00
         -3   -1    0    0    0  501 -0.00000000000E+00  0.00000000000E+00  0.28828127635E+02  0.28828127635E+02  0.00000000000E+00 0.  1.
          3   -1    0    0  501    0  0.00000000000E+00 -0.00000000000E+00 -0.42595343547E+03  0.42595343547E+03  0.00000000000E+00 0. -1.
         25    2    1    2    0    0 -0.89721595200E+01  0.41258363648E+01 -0.19030567195E+03  0.22794919003E+03  0.12508821802E+03 0.  0.
          5    1    3    3  502    0 -0.89899284274E+01  0.64180805199E+02 -0.10705759358E+03  0.12521499636E+03  0.41800000000E+01 0. -1.
         -5    1    3    3    0  502  0.17768907483E-01 -0.60054968834E+02 -0.83248078362E+02  0.10273419367E+03  0.41800000000E+01 0. -1.
        -11    1    1    2    0    0 -0.25182615309E+02 -0.30255677132E+02 -0.15278173182E+03  0.15777144130E+03  0.00000000000E+00 0. -1.
         11    1    1    2    0    0  0.34154774829E+02  0.26129840768E+02 -0.54037904076E+02  0.69060931786E+02  0.00000000000E+00 0.  1.
</event>
<event>
 7    1  0.2719869E-009  0.6244580E+02  0.7561462E-02  0.1387845E+00
          2   -1    0    0  501    0  0.00000000000E+00  0.00000000000E+00  0.10095559466E+03  0.10095559466E+03  0.00000000000E+00 0. -1.
         -2   -1    0    0    0  501 -0.00000000000E+00 -0.00000000000E+00 -0.19131192786E+03  0.19131192786E+03  0.00000000000E+00 0.  1.
         25    2    1    2    0    0 -0.53723316656E+01  0.11586428965E+02  0.40785411483E+02  0.13219046209E+03  0.12509101164E+03 0.  0.
          5    1    3    3  502    0 -0.23518951864E+02  0.67452621001E+00  0.82138259812E+02  0.85543919756E+02  0.41800000000E+01 0.  1.
         -5    1    3    3    0  502  0.18146620198E+02  0.10911902755E+02 -0.41352848329E+02  0.46646542329E+02  0.41800000000E+01 0.  1.
        -11    1    1    2    0    0  0.23169838819E+02 -0.39800094066E+02 -0.11317939542E+03  0.12219027975E+03  0.00000000000E+00 0.  1.
         11    1    1    2    0    0 -0.17797507153E+02  0.28213665101E+02 -0.17962349269E+02  0.37886780683E+02  0.00000000000E+00 0. -1.
</event>
<event>
 7    1  0.2719869E-009  0.1010610E+03  0.7561462E-02  0.1278081E+00
         -2   -1    0    0    0  501 -0.00000000000E+00  0.00000000000E+00  0.98000105082E+03  0.98000105082E+03  0.00000000000E+00 0.  1.
          2   -1    0    0  501    0  0.00000000000E+00 -0.00000000000E+00 -0.21861563116E+02  0.21861563116E+02  0.00000000000E+00 0. -1.
         25    2    1    2    0    0 -0.30975122350E+02  0.56305394843E+01  0.83978141472E+03  0.84963085110E+03  0.12509435422E+03 0.  0.
          5    1    3    3  502    0 -0.18973762347E+02 -0.59328282339E+02  0.44009601690E+03  0.44450177191E+03  0.41800000000E+01 0. -1.
         -5    1    3    3    0  502 -0.12001360003E+02  0.64958821824E+02  0.39968539783E+03  0.40512907919E+03  0.41800000000E+01 0. -1.
        -11    1    1    2    0    0 -0.97875858830E+01  0.22121539727E+02  0.94318682888E+02  0.97371316613E+02  0.00000000000E+00 0.  1.
         11    1    1    2    0    0  0.40762708233E+02 -0.27752079211E+02  0.24039390094E+02  0.54860446217E+02  0.00000000000E+00 0. -1.
</event>
<event>
 7    1  0.2719869E-009  0.1950539E+03  0.7561462E-02  0.1153980E+00
          1   -1    0    0  501    0  0.00000000000E+00  0.00000000000E+00  0.82860368972E+02  0.82860368972E+02  0.00000000000E+00 0. -1.
         -1   -1    0    0    0  501 -0.00000000000E+00 -0.00000000000E+00 -0.59510615443E+03  0.59510615443E+03  0.00000000000E+00 0.  1.
         25    2    1    2    0    0 -0.12656353857E+03  0.11767901008E+03 -0.40038146833E+03  0.45367143570E+03  0.12508306313E+03 0.  0.
          5    1    3    3  502    0 -0.15080987887E+03  0.94763183269E+02 -0.31473867353E+03  0.36166501833E+03  0.41800000000E+01 0. -1.
         -5    1    3    3    0  502  0.24246340300E+02  0.22915826814E+02 -0.85642794803E+02  0.92006417375E+02  0.41800000000E+01 0. -1.
        -11    1    1    2    0    0  0.85836851685E+02 -0.50003281514E+02 -0.10572343808E+03  0.14507149488E+03  0.00000000000E+00 0.  1.
         11    1    1    2    0    0  0.40726686888E+02 -0.67675728569E+02 -0.61408790478E+01  0.79223592810E+02  0.00000000000E+00 0. -1.
</event>
<event>
 7    1  0.2719869E-009  0.1015856E+03  0.7561462E-02  0.1276997E+00
          1   -1    0    0  501    0  0.00000000000E+00  0.00000000000E+00  0.82028173493E+02  0.82028173493E+02  0.00000000000E+00 0. -1.
         -1   -1    0    0    0  501 -0.00000000000E+00 -0.00000000000E+00 -0.17023224818E+03  0.17023224818E+03  0.00000000000E+00 0.  1.
         25    2    1    2    0    0 -0.30001021568E+02 -0.24705348073E+02 -0.16376990479E+02  0.13200833077E+03  0.12509027962E+03 0.  0.
          5    1    3    3  502    0  0.15254690851E+02  0.44465012481E+02  0.19636757088E+01  0.47235276544E+02  0.41800000000E+01 0. -1.
         -5    1    3    3    0  502 -0.45255712419E+02 -0.69170360554E+02 -0.18340666188E+02  0.84773054221E+02  0.41800000000E+01 0. -1.
        -11    1    1    2    0    0  0.45012027027E+02  0.84255696473E+00 -0.21310634026E+01  0.45070321837E+02  0.00000000000E+00 0. -1.
         11    1    1    2    0    0 -0.15011005459E+02  0.23862791108E+02 -0.69696020806E+02  0.75181769071E+02  0.00000000000E+00 0.  1.
</event>
<event>
 7    1  0.2719869E-009  0.1439553E+03  0.7561462E-02  0.1208104E+00
         -3   -1    0    0    0  501 -0.00000000000E+00  0.00000000000E+00  0.13336835449E+03  0.13336835449E+03  0.00000000000E+00 0.  1.
          3   -1    0    0  501    0  0.00000000000E+00 -0.00000000000E+00 -0.41391423222E+03  0.41391423222E+03  0.00000000000E+00 0. -1.
         25    2    1    2    0    0  0.10294690381E+03 -0.27285000957E+02  0.63309223330E+02  0.17606299038E+03  0.12509029755E+03 0.  0.
          5    1    3    3  502    0  0.12088114697E+02 -0.55148863260E+02 -0.80007869418E+01  0.57175209903E+02  0.41800000000E+01 0. -1.
         -5    1    3    3    0  502  0.90858789111E+02  0.27863862303E+02  0.71310010272E+02  0.11888778047E+03  0.41800000000E+01 0. -1.
        -11    1    1    2    0    0 -0.29277581625E+02 -0.30697291708E+02 -0.15003544377E+03  0.15591707697E+03  0.00000000000E+00 0. -1.
         11    1    1    2    0    0 -0.73669322183E+02  0.57982292665E+02 -0.19381965729E+03  0.21530251937E+03  0.00000000000E+00 0.  1.
</event>
<event>
 7    1  0.2719869E-009  0.7084512E+02  0.7561462E-02  0.1357243E+00
         -2   -1    0    0    0  501 -0.00000000000E+00  0.00000000000E+00  0.46766803804E+02  0.46766803804E+02  0.00000000000E+00 0.  1.
          2   -1    0    0  501    0  0.00000000000E+00 -0.00000000000E+00 -0.32539240672E+03  0.32539240672E+03  0.00000000000E+00 0. -1.
         25    2    1    2    0    0  0.24498583952E+02  0.36710884524E+02 -0.21278835907E+03  0.25074696275E+03  0.12508910389E+03 0.  0.
          5    1    3    3  502    0 -0.83999237068E+01  0.31827929466E+02 -0.21462617717E+03  0.21717606714E+03  0.41800000000E+01 0.  1.
         -5    1    3    3    0  502  0.32898507659E+02  0.48829550587E+01  0.18378180981E+01  0.33570895604E+02  0.41800000000E+01 0.  1.
        -11    1    1    2    0    0 -0.30912591345E+02 -0.50823267698E+02 -0.62174083416E+01  0.59810107922E+02  0.00000000000E+00 0.  1.
         11    1    1    2    0    0  0.64140073930E+01  0.14112383173E+02 -0.59619835502E+02  0.61602139857E+02  0.00000000000E+00 0. -1.
</event>
<event>
 7    1  0.2719869E-009  0.1739420E+03  0.7561462E-02  0.1173798E+00
         -1   -1    0    0    0  501 -0.00000000000E+00  0.00000000000E+00  0.44216863672E+02  0.44216863672E+02  0.00000000000E+00 0.  1.
          1   -1    0    0  501    0  0.00000000000E+00 -0.00000000000E+00 -0.75683443338E+03  0.75683443338E+03  0.00000000000E+00 0. -1.
         25    2    1    2    0    0  0.14256499604E+03  0.65677262838E+01 -0.45465964204E+03  0.49267731220E+03  0.12509049016E+03 0.  0.
          5    1    3    3  502    0  0.14620944743E+03  0.43366931000E+02 -0.36519834757E+03  0.39578428302E+03  0.41800000000E+01 0. -1.
         -5    1    3    3    0  502 -0.36444513884E+01 -0.36799204716E+02 -0.89461294472E+02  0.96893029172E+02  0.41800000000E+01 0. -1.
        -11    1    1    2    0    0  0.21440333243E+00 -0.15072654318E+02 -0.20586833271E+01  0.15214107073E+02  0.00000000000E+00 0.  1.
         11    1    1    2    0    0 -0.14277939937E+03  0.85049280344E+01 -0.25589924434E+03  0.29315987778E+03  0.00000000000E+00 0. -1.
</event>
<event>
 7    1  0.2719869E-009  0.2053875E+03  0.7561462E-02  0.1145272E+00
          1   -1    0    0  501    0  0.00000000000E+00  0.00000000000E+00  0.62460331794E+03  0.62460331794E+03  0.00000000000E+00 0. -1.
         -1   -1    0    0    0  501 -0.00000000000E+00 -0.00000000000E+00 -0.75550916875E+02  0.75550916875E+02  0.00000000000E+00 0.  1.
         25    2    1    2    0    0  0.14867767931E+03 -0.11246971422E+03  0.35216544668E+03  0.41763845718E+03  0.12508752991E+03 0.  0.
          5    1    3    3  502    0  0.12312089917E+03 -0.17102023866E+02  0.17364393510E+03  0.21359055135E+03  0.41800000000E+01 0. -1.
         -5    1    3    3    0  502  0.25556780146E+02 -0.95367690358E+02  0.17852151158E+03  0.20404790583E+03  0.41800000000E+01 0. -1.
        -11    1    1    2    0    0 -0.72626753170E+02  0.41982820316E+02  0.14266871090E+03  0.16550396837E+03  0.00000000000E+00 0. -1.
         11    1    1    2    0    0 -0.76050926141E+02  0.70486893908E+02  0.54218243493E+02  0.11701180926E+03  0.00000000000E+00 0.  1.
</event>
<event>
 7    1  0.2719869E-009  0.9872536E+02  0.7561462E-02  0.1282999E+00
          1   -1    0    0  501    0  0.00000000000E+00  0.00000000000E+00  0.16120519451E+03  0.16120519451E+03  0.00000000000E+00 0. -1.
         -1   -1    0    0    0  501 -0.00000000000E+00 -0.00000000000E+00 -0.11678297649E+03  0.11678297649E+03  0.00000000000E+00 0.  1.
         25    2    1    2    0    0 -0.25838305946E+02  0.23717157640E+02  0.33840869362E+02  0.13425427930E+03  0.12509550532E+03 0.  0.
          5    1    3    3  502    0 -0.22581897619E+02 -0.22278654299E+02 -0.37444306105E+02  0.49252705480E+02  0.41800000000E+01 0.  1.
         -5    1    3    3    0  502 -0.32564083269E+01  0.45995811939E+02  0.71285175467E+02  0.85001573824E+02  0.41800000000E+01 0.  1.
        -11    1    1    2    0    0  0.57409960607E+02  0.23764850792E+02 -0.34477758783E+02  0.71059042780E+02  0.00000000000E+00 0.  1.
         11    1    1    2    0    0 -0.31571654662E+02 -0.47482008432E+02  0.45059107436E+02  0.72674848921E+02  0.00000000000E+00 0. -1.
</event>
<event>
 7    1  0.2719869E-009  0.8257684E+02  0.7561462E-02  0.1321894E+00
          2   -1    0    0  501    0  0.00000000000E+00  0.00000000000E+00  0.53182485626E+02  0.53182485626E+02  0.00000000000E+00 0. -1.
         -2   -1    0    0    0  501 -0.00000000000E+00 -0.00000000000E+00 -0.29995673756E+03  0.29995673756E+03  0.00000000000E+00 0.  1.
         25    2    1    2    0    0  0.42509159208E+02  0.38689126054E+02 -0.97086414846E+02  0.16845568735E+03  0.12509064538E+03 0.  0.
          5    1    3    3  502    0 -0.14082823251E+02 -0.93734718705E+01  0.21995095282E+02  0.28061441554E+02  0.41800000000E+01 0.  1.
         -5    1    3    3    0  502  0.56591982460E+02  0.48062597925E+02 -0.11908151013E+03  0.14039424580E+03  0.41800000000E+01 0.  1.
        -11    1    1    2    0    0 -0.50152751006E+02 -0.21530750864E+02 -0.15567754386E+03  0.16496778270E+03  0.00000000000E+00 0.  1.
         11    1    1    2    0    0  0.76435917971E+01 -0.17158375190E+02  0.59897067696E+01  0.19715753141E+02  0.00000000000E+00 0. -1.
</event>
<event>
 7    1  0.2719869E-009  0.8705246E+02  0.7561462E-02  0.1310151E+00
         -1   -1    0    0    0  501 -0.00000000000E+00  0.00000000000E+00  0.87028031612E+01  0.87028031612E+01  0.00000000000E+00 0.  1.
          1   -1    0    0  501    0  0.00000000000E+00 -0.00000000000E+00 -0.24614184859E+04  0.24614184859E+04  0.00000000000E+00 0. -1.
         25    2    1    2    0    0 -0.60964046590E+01 -0.34024100840E+02 -0.21027075523E+04  0.21067087363E+04  0.12509134169E+03 0.  0.
          5    1    3    3  502    0  0.28107402835E+01  0.24232468660E+02 -0.96243660682E+02  0.99375185131E+02  0.41800000000E+01 0.  1.
         -5    1    3    3    0  502 -0.89071449425E+01 -0.58256569500E+02 -0.20064638916E+04  0.20073335512E+04  0.41800000000E+01 0.  1.
        -11    1    1    2    0    0 -0.24935427655E+02  0.49626932741E+02 -0.27764183452E+03  0.28314236045E+03  0.00000000000E+00 0.  1.
         11    1    1    2    0    0  0.31031832314E+02 -0.15602831901E+02 -0.72366295980E+02  0.80270192313E+02  0.00000000000E+00 0. -1.
</event>
<event>
 7    1  0.2719869E-009  0.7484169E+02  0.7561462E-02  0.1344362E+00
         -2   -1    0    0    0  501 -0.00000000000E+00  0.00000000000E+00  0.49197026623E+02  0.49197026623E+02  0.00000000000E+00 0. -1.
          2   -1    0    0  501    0  0.00000000000E+00 -0.00000000000E+00 -0.24547968121E+03  0.24547968121E+03  0.00000000000E+00 0.  1.
         25    2    1    2    0    0  0.72088729675E+01  0.19148246061E+02 -0.12522333121E+03  0.17817850702E+03  0.12509226399E+03 0.  0.
          5    1    3    3  502    0 -0.37560175237E+02 -0.12411321143E+02  0.17654423559E+01  0.39817042118E+02  0.41800000000E+01 0. -1.
         -5    1    3    3    0  502  0.44769048204E+02  0.31559567204E+02 -0.12698877357E+03  0.13836146491E+03  0.41800000000E+01 0. -1.
        -11    1    1    2    0    0  0.50179791872E+01 -0.34771980406E+02  0.71152634134E+01  0.35845469866E+02  0.00000000000E+00 0. -1.
         11    1    1    2    0    0 -0.12226852155E+02  0.15623734345E+02 -0.78174586796E+02  0.80652730947E+02  0.00000000000E+00 0.  1.
</event>
<event>
 7    1  0.2719869E-009  0.1056596E+03  0.7561462E-02  0.1268825E+00
         -1   -1    0    0    0  501 -0.00000000000E+00  0.00000000000E+00  0.47308887108E+02  0.47308887108E+02  0.00000000000E+00 0.  1.
          1   -1    0    0  501    0  0.00000000000E+00 -0.00000000000E+00 -0.31573052644E+03  0.31573052644E+03  0.00000000000E+00 0. -1.
         25    2    1    2    0    0 -0.34509543190E+02  0.80935509649E+01 -0.83289766915E+02  0.15441384107E+03  0.12510009953E+03 0.  0.
          5    1    3    3  502    0 -0.71664672545E+02  0.22258188940E+02 -0.86153046359E+02  0.11432878930E+03  0.41800000000E+01 0.  1.
         -5    1    3    3    0  502  0.37155129355E+02 -0.14164637975E+02  0.28632794433E+01  0.40085051772E+02  0.41800000000E+01 0.  1.
        -11    1    1    2    0    0  0.45116121553E+02  0.31606714684E+02 -0.10526797237E+03  0.11880991055E+03  0.00000000000E+00 0.  1.
         11    1    1    2    0    0 -0.10606578363E+02 -0.39700265649E+02 -0.79863900043E+02  0.89815661926E+02  0.00000000000E+00 0. -1.
</event>
<event>
 7    1  0.2719869E-009  0.1586939E+03  0.7561462E-02  0.1190179E+00
         -1   -1    0    0    0  501 -0.00000000000E+00  0.00000000000E+00  0.33023443635E+02  0.33023443635E+02  0.00000000000E+00 0.  1.
          1   -1    0    0  501    0  0.00000000000E+00 -0.00000000000E+00 -0.88287618253E+03  0.88287618253E+03  0.00000000000E+00 0. -1.
         25    2    1    2    0    0  0.54683387493E+01 -0.13146948386E+03 -0.47338262389E+03  0.50700390416E+03  0.12509085626E+03 0.  0.
          5    1    3    3  502    0  0.18863393403E+02 -0.14012493830E+03 -0.28771804034E+03  0.32060874767E+03  0.41800000000E+01 0. -1.
         -5    1    3    3    0  502 -0.13395054653E+02  0.86554544330E+01 -0.18566458355E+03  0.18639515650E+03  0.41800000000E+01 0. -1.
        -11    1    1    2    0    0 -0.32123584521E+02  0.79571548788E+01 -0.71613928531E+02  0.78891037234E+02  0.00000000000E+00 0. -1.
         11    1    1    2    0    0  0.26655245772E+02  0.12351232898E+03 -0.30485618648E+03  0.33000468477E+03  0.00000000000E+00 0.  1.
</event>
<event>
 7    1  0.2719869E-009  0.1286353E+03  0.7561462E-02  0.1229495E+00
          2   -1    0    0  501    0  0.00000000000E+00  0.00000000000E+00  0.72348969814E+03  0.72348969814E+03  0.00000000000E+00 0. -1.
         -2   -1    0    0    0  501 -0.00000000000E+00 -0.00000000000E+00 -0.27011950743E+02  0.27011950743E+02  0.00000000000E+00 0.  1.
         25    2    1    2    0    0  0.77688760300E+02 -0.18930300069E+02  0.48151329617E+03  0.50388591855E+03  0.12510821229E+03 0.  0.
          5    1    3    3  502    0  0.95577754612E+02  0.18806897261E+02  0.24518810334E+03  0.26386262521E+03  0.41800000000E+01 0. -1.
         -5    1    3    3    0  502 -0.17888994313E+02 -0.37737197330E+02  0.23632519283E+03  0.24002329334E+03  0.41800000000E+01 0. -1.
        -11    1    1    2    0    0 -0.69918807059E+02  0.49881015518E+02  0.17897331542E+03  0.19851499420E+03  0.00000000000E+00 0. -1.
         11    1    1    2    0    0 -0.77699532410E+01 -0.30950715449E+02  0.35991135801E+02  0.48100736132E+02  0.00000000000E+00 0.  1.
</event>
<event>
 7    1  0.2719869E-009  0.9221741E+02  0.7561462E-02  0.1297569E+00
          1   -1    0    0  501    0  0.00000000000E+00  0.00000000000E+00  0.12902074869E+03  0.12902074869E+03  0.00000000000E+00 0. -1.
         -1   -1    0    0    0  501 -0.00000000000E+00 -0.00000000000E+00 -0.13201259775E+03  0.13201259775E+03  0.00000000000E+00 0.  1.
         25    2    1    2    0    0  0.16773944546E+02  0.15119508481E+01 -0.72810580660E+02  0.14569584473E+03  0.12506897019E+03 0.  0.
          5    1    3    3  502    0  0.26044980753E+02 -0.43581726489E+02 -0.83902891097E+02  0.98157401354E+02  0.41800000000E+01 0.  1.
         -5    1    3    3    0  502 -0.92710362071E+01  0.45093677337E+02  0.11092310437E+02  0.47538443380E+02  0.41800000000E+01 0.  1.
        -11    1    1    2    0    0  0.32265560145E+02  0.14917608561E+02  0.11435448168E+02  0.37341275975E+02  0.00000000000E+00 0.  1.
         11    1    1    2    0    0 -0.49039504692E+02 -0.16429559409E+02  0.58383283435E+02  0.77996225726E+02  0.00000000000E+00 0. -1.
</event>
<event>
 7    1  0.2719869E-009  0.1113167E+03  0.7561462E-02  0.1258151E+00
          1   -1    0    0  501    0  0.00000000000E+00  0.00000000000E+00  0.33002558927E+03  0.33002558927E+03  0.00000000000E+00 0. -1.
         -1   -1    0    0    0  501 -0.00000000000E+00 -0.00000000000E+00 -0.54332374970E+02  0.54332374970E+02  0.00000000000E+00 0.  1.
         25    2    1    2    0    0 -0.13045938240E+02 -0.64545283298E+02  0.21025216903E+03  0.25335289929E+03  0.12508168089E+03 0.  0.
          5    1    3    3  502    0  0.40811288865E+02 -0.13633879063E+02  0.15472992199E+03  0.16065573478E+03  0.41800000000E+01 0. -1.
         -5    1    3    3    0  502 -0.53857227105E+02 -0.50911404234E+02  0.55522247044E+02  0.92697164516E+02  0.41800000000E+01 0. -1.
        -11    1    1    2    0    0 -0.34186298220E+02  0.37505651844E+02  0.56338141896E+02  0.75824554984E+02  0.00000000000E+00 0. -1.
         11    1    1    2    0    0  0.47232236460E+02  0.27039631453E+02  0.91029033695E+01  0.55180509964E+02  0.00000000000E+00 0.  1.
</event>
<event>
 6    1  0.2719869E-009  0.1419183E+03  0.7561462E-02  0.1210771E+00
         -2   -1    0    0    0  501 -0.00000000000E+00  0.00000000000E+00  0.48247600645E+02  0.48247600645E+02  0.00000000000E+00 0.  1.
          2   -1    0    0  501    0  0.00000000000E+00 -0.00000000000E+00 -0.52833594977E+03  0.52833594977E+03  0.00000000000E+00 0. -1.
          5    1    1    2  502    0  0.55444103565E+02  0.18698694124E+02 -0.17120487835E+02  0.61108700573E+02  0.41800000000E+01 0. -1.
         -5    1    1    2    0  502 -0.21092027880E+02  0.82843547942E+02 -0.15587536143E+03  0.17782724138E+03  0.41800000000E+01 0. -1.
        -11    1    1    2    0    0  0.26025711311E+02 -0.62455861557E+02 -0.13125051154E+03  0.14766437983E+03  0.00000000000E+00 0. -1.
         11    1    1    2    0    0 -0.60377786995E+02 -0.39086380510E+02 -0.17584198831E+03  0.18998322862E+03  0.00000000000E+00 0.  1.
</event>
<event>
 7    1  0.2719869E-009  0.9627133E+02  0.7561462E-02  0.1288338E+00
          4   -1    0    0  501    0  0.00000000000E+00  0.00000000000E+00  0.35345083134E+02  0.35345083134E+02  0.00000000000E+00 0. -1.
         -4   -1    0    0    0  501 -0.00000000000E+00 -0.00000000000E+00 -0.36624110635E+03  0.36624110635E+03  0.00000000000E+00 0.  1.
         25    2    1    2    0    0 -0.32284999710E+02  0.16096612352E+02 -0.20035143600E+03  0.23893333525E+03  0.12508804360E+03 0.  0.
          5    1    3    3  502    0 -0.59872958054E+02 -0.21612132442E+02 -0.48882661023E+02  0.80366923069E+02  0.41800000000E+01 0.  1.
         -5    1    3    3    0  502  0.27587958344E+02  0.37708744794E+02 -0.15146877497E+03  0.15856641218E+03  0.41800000000E+01 0.  1.
        -11    1    1    2    0    0  0.25045660203E+02  0.27761776072E+02 -0.10483166363E+03  0.11129995061E+03  0.00000000000E+00 0.  1.
         11    1    1    2    0    0  0.72393395070E+01 -0.43858388424E+02 -0.25712923590E+02  0.51352903629E+02  0.00000000000E+00 0. -1.
</event>
<event>
 7    1  0.2719869E-009  0.1170551E+03  0.7561462E-02  0.1248036E+00
          2   -1    0    0  501    0  0.00000000000E+00  0.00000000000E+00  0.90965566291E+03  0.90965566291E+03  0.00000000000E+00 0. -1.
         -2   -1    0    0    0  501 -0.00000000000E+00 -0.00000000000E+00 -0.28266081337E+02  0.28266081337E+02  0.00000000000E+00 0.  1.
         25    2    1    2    0    0  0.59047662235E+02  0.80343457879E+02  0.28614478050E+03  0.32782443362E+03  0.12509327013E+03 0.  0.
          5    1    3    3  502    0  0.17588326813E+02  0.60249083783E+02  0.27239377171E+03  0.27956240914E+03  0.41800000000E+01 0. -1.
         -5    1    3    3    0  502  0.41459335422E+02  0.20094374096E+02  0.13751008784E+02  0.48262024476E+02  0.41800000000E+01 0. -1.
        -11    1    1    2    0    0 -0.32154248525E+02 -0.90620232924E+02  0.53183716918E+03  0.54045970880E+03  0.00000000000E+00 0. -1.
         11    1    1    2    0    0 -0.26893413710E+02  0.10276775045E+02  0.63407631902E+02  0.69637601838E+02  0.00000000000E+00 0.  1.
</event>
<event>
 7    1  0.2719869E-009  0.1797681E+03  0.7561462E-02  0.1168028E+00
          2   -1    0    0  501    0  0.00000000000E+00  0.00000000000E+00  0.68409451695E+03  0.68409451695E+03  0.00000000000E+00 0. -1.
         -2   -1    0    0    0  501 -0.00000000000E+00 -0.00000000000E+00 -0.75227709499E+02  0.75227709499E+02  0.00000000000E+00 0.  1.
         25    2    1    2    0    0  0.14435273528E+03  0.44981658659E+02  0.53107876958E+03  0.56617186334E+03  0.12507940493E+03 0.  0.
          5    1    3    3  502    0  0.49345882595E+02 -0.38104195378E+02  0.25561717219E+03  0.26314360519E+03  0.41800000000E+01 0. -1.
         -5    1    3    3    0  502  0.95006852683E+02  0.83085854037E+02  0.27546159739E+03  0.30302825815E+03  0.41800000000E+01 0. -1.
        -11    1    1    2    0    0 -0.28814028777E+02  0.22864021667E+02 -0.26409640391E+01  0.36877993875E+02  0.00000000000E+00 0.  1.
         11    1    1    2    0    0 -0.11553870650E+03 -0.67845680327E+02  0.80429001909E+02  0.15627236924E+03  0.00000000000E+00 0. -1.
</event>
<event>
 7    1  0.2719869E-009  0.8161144E+02  0.7561462E-02  0.1324540E+00
          2   -1    0    0  501    0  0.00000000000E+00  0.00000000000E+00  0.24895188079E+03  0.24895188079E+03  0.00000000000E+00 0. -1.
         -2   -1    0    0    0  501 -0.00000000000E+00 -0.00000000000E+00 -0.55832831462E+02  0.55832831462E+02  0.00000000000E+00 0.  1.
         25    2    1    2    0    0  0.42364408013E+00 -0.33665253950E+02  0.14113273282E+03  0.19157610128E+03  0.12509766388E+03 0.  0.
          5    1    3    3  502    0  0.24833482543E+02  0.12367974206E-01 -0.15426365525E+02  0.29532137774E+02  0.41800000000E+01 0.  1.
         -5    1    3    3    0  502 -0.24409838462E+02 -0.33677621924E+02  0.15655909835E+03  0.16204396350E+03  0.41800000000E+01 0.  1.
        -11    1    1    2    0    0 -0.26484464237E+02  0.55979375272E+02  0.17026713911E+02  0.64226367548E+02  0.00000000000E+00 0.  1.
         11    1    1    2    0    0  0.26060820157E+02 -0.22314121322E+02  0.34959602593E+02  0.48982243426E+02  0.00000000000E+00 0. -1.
</event>
<event>
 7    1  0.2719869E-009  0.1160106E+03  0.7561462E-02  0.1249827E+00
         -2   -1    0    0    0  501 -0.00000000000E+00  0.00000000000E+00  0.15234332196E+02  0.15234332196E+02  0.00000000000E+00 0.  1.
          2   -1    0    0  501    0  0.00000000000E+00 -0.00000000000E+00 -0.94202811400E+03  0.94202811400E+03  0.00000000000E+00 0. -1.
         25    2    1    2    0    0  0.25196679826E+02  0.42001940617E+02 -0.48980476659E+03  0.50788954499E+03  0.12507615618E+03 0.  0.
          5    1    3    3  502    0 -0.23489263942E+02  0.72536268091E+02 -0.29698199033E+03  0.30664153452E+03  0.41800000000E+01 0.  1.
         -5    1    3    3    0  502  0.48685943768E+02 -0.30534327474E+02 -0.19282277626E+03  0.20124801047E+03  0.41800000000E+01 0.  1.
        -11    1    1    2    0    0 -0.12390745905E+02 -0.67968556919E+02 -0.36999761041E+03  0.37639272977E+03  0.00000000000E+00 0. -1.
         11    1    1    2    0    0 -0.12805933921E+02  0.25966616301E+02 -0.66991404807E+02  0.72980171442E+02  0.00000000000E+00 0.  1.
</event>
<event>
 7    1  0.2719869E-009  0.1052274E+03  0.7561462E-02  0.1269672E+00
         -1   -1    0    0    0  501 -0.00000000000E+00  0.00000000000E+00  0.22679944969E+03  0.22679944969E+03  0.00000000000E+00 0.  1.
          1   -1    0    0  501    0  0.00000000000E+00 -0.00000000000E+00 -0.61605990932E+02  0.61605990932E+02  0.00000000000E+00 0. -1.
         25    2    1    2    0    0  0.37401120156E+02  0.33876043246E+02  0.91800080847E+02  0.16315664025E+03  0.12508558798E+03 0.  0.
          5    1    3    3  502    0 -0.34592102869E+02 -0.90324077969E+01 -0.35143715197E+01  0.36166575435E+02  0.41800000000E+01 0.  1.
         -5    1    3    3    0  502  0.71993223026E+02  0.42908451043E+02  0.95314452367E+02  0.12699006482E+03  0.41800000000E+01 0.  1.
        -11    1    1    2    0    0 -0.23081715866E+02  0.22586900608E+02  0.55674845673E+02  0.64363204761E+02  0.00000000000E+00 0.  1.
         11    1    1    2    0    0 -0.14319404290E+02 -0.56462943854E+02  0.17718532240E+02  0.60885595609E+02  0.00000000000E+00 0. -1.
</event>
<event>
 7    1  0.2719869E-009  0.1125095E+03  0.7561462E-02  0.1255992E+00
         -1   -1    0    0    0  501 -0.00000000000E+00  0.00000000000E+00  0.11084109177E+02  0.11084109177E+02  0.00000000000E+00 0.  1.
          1   -1    0    0  501    0  0.00000000000E+00 -0.00000000000E+00 -0.12754600152E+04  0.12754600152E+04  0.00000000000E+00 0. -1.
         25    2    1    2    0    0  0.19372851328E+02 -0.28445194698E+02 -0.89363426291E+03  0.90300273591E+03  0.12508920320E+03 0.  0.
          5    1    3    3  502    0  0.48716230524E+02  0.32720224855E+02 -0.32080336675E+03  0.32615357847E+03  0.41800000000E+01 0.  1.
         -5    1    3    3    0  502 -0.29343379197E+02 -0.61165419553E+02 -0.57283089616E+03  0.57684915744E+03  0.41800000000E+01 0.  1.
        -11    1    1    2    0    0 -0.37878377729E+01 -0.33819853835E+02 -0.13376316709E+03  0.13802432792E+03  0.00000000000E+00 0.  1.
         11    1    1    2    0    0 -0.15585013555E+02  0.62265048533E+02 -0.23697847604E+03  0.24551706055E+03  0.00000000000E+00 0. -1.
</event>
<event>
 7    1  0.2719869E-009  0.1360118E+03  0.7561462E-02  0.1218798E+00
         -2   -1    0    0    0  501 -0.00000000000E+00  0.00000000000E+00  0.86787739243E+02  0.86787739243E+02  0.00000000000E+00 0.  1.
          2   -1    0    0  501    0  0.00000000000E+00 -0.00000000000E+00 -0.32600393649E+03  0.32600393649E+03  0.00000000000E+00 0. -1.
         25    2    1    2    0    0  0.15864850509E+02 -0.10480695841E+03 -0.39814748056E+02  0.16872718816E+03  0.12508979914E+03 0.  0.
          5    1    3    3  502    0  0.28114782390E+02 -0.23551580479E+01 -0.57286145255E+02  0.63993457450E+02  0.41800000000E+01 0.  1.
         -5    1    3    3    0  502 -0.12249931881E+02 -0.10245180036E+03  0.17471397199E+02  0.10473373071E+03  0.41800000000E+01 0.  1.
        -11    1    1    2    0    0  0.38310643952E+02  0.51936747816E+02 -0.10206234002E+03  0.12075534135E+03  0.00000000000E+00 0. -1.
         11    1    1    2    0    0 -0.54175494461E+02  0.52870210595E+02 -0.97339109177E+02  0.12330914623E+03  0.00000000000E+00 0.  1.
</event>
<event>
 7    1  0.2719869E-009  0.1340373E+03  0.7561462E-02  0.1221585E+00
          2   -1    0    0  501    0  0.00000000000E+00  0.00000000000E+00  0.20533256340E+03  0.20533256340E+03  0.00000000000E+00 0.  1.
         -2   -1    0    0    0  501 -0.00000000000E+00 -0.00000000000E+00 -0.11185931187E+03  0.11185931187E+03  0.00000000000E+00 0. -1.
         25    2    1    2    0    0  0.20166757244E+02 -0.67986503231E+02  0.98886034261E+02  0.17451443263E+03  0.12509187306E+03 0.  0.
          5    1    3    3  502    0  0.58416806091E+02  0.43344050029E+01  0.59563957272E+02  0.83645966469E+02  0.41800000000E+01 0.  1.
         -5    1    3    3    0  502 -0.38250048846E+02 -0.72320908234E+02  0.39322076989E+02  0.90868466166E+02  0.41800000000E+01 0.  1.
        -11    1    1    2    0    0  0.19196126038E+02  0.83081657866E+02  0.27061979425E+02  0.89461745227E+02  0.00000000000E+00 0.  1.
         11    1    1    2    0    0 -0.39362883283E+02 -0.15095154635E+02 -0.32474762158E+02  0.53215697412E+02  0.00000000000E+00 0. -1.
</event>
<event>
 7    1  0.2780261E-009  0.9489990E+02  0.7561462E-02  0.1291402E+00
         -1   -1    0    0    0  501 -0.00000000000E+00  0.00000000000E+00  0.24713335826E+03  0.24713335826E+03  0.00000000000E+00 0.  1.
          1   -1    0    0  501    0  0.00000000000E+00 -0.00000000000E+00 -0.80031374244E+02  0.80031374244E+02  0.00000000000E+00 0. -1.
         25    2    1    2    0    0  0.54116757145E+02 -0.16748661841E+01  0.17421752965E+03  0.22120351511E+03  0.12509124223E+03 0.  0.
          5    1    3    3  502    0  0.59938595765E+02 -0.54000235956E+02  0.83161458167E+02  0.11593947244E+03  0.41800000000E+01 0. -1.
         -5    1    3    3    0  502 -0.58218386201E+01  0.52325369772E+02  0.91056071479E+02  0.10526404267E+03  0.41800000000E+01 0. -1.
        -11    1    1    2    0    0 -0.17509266438E+02  0.76534962782E+01  0.40984435633E+02  0.45220287269E+02  0.00000000000E+00 0.  1.
         11    1    1    2    0    0 -0.36607490707E+02 -0.59786300942E+01 -0.48099981267E+02  0.60740930118E+02  0.00000000000E+00 0. -1.
</event>
<event>
 7    1  0.2719869E-009  0.2058362E+03  0.7561462E-02  0.1144906E+00
          1   -1    0    0  501    0  0.00000000000E+00  0.00000000000E+00  0.24389066638E+03  0.24389066638E+03  0.00000000000E+00 0. -1.
         -1   -1    0    0    0  501 -0.00000000000E+00 -0.00000000000E+00 -0.20211094647E+03  0.20211094647E+03  0.00000000000E+00 0.  1.
         25    2    1    2    0    0 -0.16579754433E+03  0.93847945484E+02  0.29760913425E+02  0.22984625889E+03  0.12508928084E+03 0.  0.
          5    1    3    3  502    0 -0.17270883844E+03  0.10701375887E+03  0.45007592354E+02  0.20814284334E+03  0.41800000000E+01 0. -1.
         -5    1    3    3    0  502  0.69112941114E+01 -0.13165813383E+02 -0.15246678930E+02  0.21703415554E+02  0.41800000000E+01 0. -1.
        -11    1    1    2    0    0  0.10298197389E+03 -0.40728841888E+02  0.54657698434E+02  0.12349732590E+03  0.00000000000E+00 0.  1.
         11    1    1    2    0    0  0.62815570442E+02 -0.53119103595E+02 -0.42638891947E+02  0.92658028056E+02  0.00000000000E+00 0. -1.
</event>
<event>
 7    1  0.2719869E-009  0.8605087E+02  0.7561462E-02  0.1312707E+00
          2   -1    0    0  501    0  0.00000000000E+00  0.00000000000E+00  0.23216909322E+03  0.23216909322E+03  0.00000000000E+00 0. -1.
         -2   -1    0    0    0  501 -0.00000000000E+00 -0.00000000000E+00 -0.55048048883E+02  0.55048048883E+02  0.00000000000E+00 0.  1.
         25    2    1    2    0    0  0.26850414609E+02 -0.19846292483E+02  0.12071657735E+03  0.17701317050E+03  0.12508537242E+03 0.  0.
          5    1    3    3  502    0 -0.17670724012E+02 -0.63058231045E+02  0.76063003984E+02  0.10045719469E+03  0.41800000000E+01 0. -1.
         -5    1    3    3    0  502  0.44521138622E+02  0.43211938562E+02  0.44653573366E+02  0.76555975814E+02  0.41800000000E+01 0. -1.
        -11    1    1    2    0    0 -0.16832177893E+02 -0.49568978886E+01  0.75387585349E+02  0.77402720068E+02  0.00000000000E+00 0. -1.
         11    1    1    2    0    0 -0.10018236716E+02  0.24803190371E+02 -0.18983118360E+02  0.32801251534E+02  0.00000000000E+00 0.  1.
</event>
<event>
 7    1  0.2719869E-009  0.1810991E+03  0.7561462E-02  0.1166744E+00
          2   -1    0    0  501    0  0.00000000000E+00  0.00000000000E+00  0.31099916032E+03  0.31099916032E+03  0.00000000000E+00 0. -1.
         -2   -1    0    0    0  501 -0.00000000000E+00 -0.00000000000E+00 -0.15844054798E+03  0.15844054798E+03  0.00000000000E+00 0.  1.
         25    2    1    2    0    0  0.50965725201E+02  0.14826483934E+03 -0.40046861637E+02  0.20455451176E+03  0.12513524454E+03 0.  0.
          5    1    3    3  502    0  0.59820832983E+02  0.16775955898E+03 -0.40635659390E+02  0.18273076069E+03  0.41800000000E+01 0. -1.
         -5    1    3    3    0  502 -0.88551077817E+01 -0.19494719646E+02  0.58879775335E+00  0.21823751068E+02  0.41800000000E+01 0. -1.
        -11    1    1    2    0    0 -0.57502555265E+02 -0.11800941926E+03  0.19360703020E+03  0.23391547414E+03  0.00000000000E+00 0. -1.
         11    1    1    2    0    0  0.65368300638E+01 -0.30255420076E+02 -0.10015562250E+01  0.30969722409E+02  0.00000000000E+00 0.  1.
</event>
<event>
 7    1  0.2719869E-009  0.1043445E+03  0.7561462E-02  0.1271417E+00
         -1   -1    0    0    0  501 -0.00000000000E+00  0.00000000000E+00  0.30317936538E+03  0.30317936538E+03  0.00000000000E+00 0.  1.
          1   -1    0    0  501    0  0.00000000000E+00 -0.00000000000E+00 -0.87073317248E+02  0.87073317248E+02  0.00000000000E+00 0. -1.
         25    2    1    2    0    0  0.95314734013E+02  0.66821369092E+01  0.20290119638E+03  0.25679870668E+03  0.12508849182E+03 0.  0.
          5    1    3    3  502    0  0.40492201190E+02  0.30151590940E+02  0.18866244388E+03  0.19534514819E+03  0.41800000000E+01 0. -1.
         -5    1    3    3    0  502  0.54822532823E+02 -0.23469454031E+02  0.14238752501E+02  0.61453558485E+02  0.41800000000E+01 0. -1.
        -11    1    1    2    0    0 -0.36243300684E+02  0.85669272400E+01 -0.38439837499E+02  0.53521866501E+02  0.00000000000E+00 0. -1.
         11    1    1    2    0    0 -0.59071433330E+02 -0.15249064149E+02  0.51644689259E+02  0.79932109454E+02  0.00000000000E+00 0.  1.
</event>
<event>
 7    1  0.2719869E-009  0.1014252E+03  0.7561462E-02  0.1277327E+00
         -1   -1    0    0    0  501 -0.00000000000E+00  0.00000000000E+00  0.80346099010E+02  0.80346099010E+02  0.00000000000E+00 0.  1.
          1   -1    0    0  501    0  0.00000000000E+00 -0.00000000000E+00 -0.47079881328E+03  0.47079881328E+03  0.00000000000E+00 0. -1.
         25    2    1    2    0    0  0.54874031680E+02  0.61354780254E+02 -0.91644334950E+01  0.15002387778E+03  0.12509040191E+03 0.  0.
          5    1    3    3  502    0  0.17557462419E+02  0.28621916347E+02 -0.66170187637E+02  0.74319881014E+02  0.41800000000E+01 0.  1.
         -5    1    3    3    0  502  0.37316569261E+02  0.32732863907E+02  0.57005754142E+02  0.75703996766E+02  0.41800000000E+01 0.  1.
        -11    1    1    2    0    0 -0.60321026726E+02 -0.27940289948E+01 -0.13470251283E+03  0.14761842644E+03  0.00000000000E+00 0.  1.
         11    1    1    2    0    0  0.54469950461E+01 -0.58560751259E+02 -0.24658576795E+03  0.25350260807E+03  0.00000000000E+00 0. -1.
</event>
<event>
 7    1  0.2719869E-009  0.1012414E+03  0.7561462E-02  0.1277707E+00
         -2   -1    0    0    0  501 -0.00000000000E+00  0.00000000000E+00  0.40897633350E+03  0.40897633350E+03  0.00000000000E+00 0.  1.
          2   -1    0    0  501    0  0.00000000000E+00 -0.00000000000E+00 -0.30112582166E+02  0.30112582166E+02  0.00000000000E+00 0. -1.
         25    2    1    2    0    0  0.34792037146E+02  0.78127549399E+01  0.25631852331E+03  0.28743366837E+03  0.12508958124E+03 0.  0.
          5    1    3    3  502    0 -0.34276490855E+02 -0.34624885897E+02  0.95944949458E+02  0.10768781860E+03  0.41800000000E+01 0. -1.
         -5    1    3    3    0  502  0.69068528001E+02  0.42437640837E+02  0.16037357385E+03  0.17974584977E+03  0.41800000000E+01 0. -1.
        -11    1    1    2    0    0  0.17827713137E+02  0.44629309608E+01  0.82180009086E+02  0.84209850979E+02  0.00000000000E+00 0.  1.
         11    1    1    2    0    0 -0.52619750283E+02 -0.12275685901E+02  0.40365218937E+02  0.67445396314E+02  0.00000000000E+00 0. -1.
</event>
<event>
 7    1  0.2719869E-009  0.3290630E+03  0.7561462E-02  0.1071552E+00
          2   -1    0    0  501    0  0.00000000000E+00  0.00000000000E+00  0.20760614459E+03  0.20760614459E+03  0.00000000000E+00 0. -1.
         -2   -1    0    0    0  501 -0.00000000000E+00 -0.00000000000E+00 -0.55905723484E+03  0.55905723484E+03  0.00000000000E+00 0.  1.
         25    2    1    2    0    0 -0.89539470407E+02 -0.30840468097E+03 -0.21420628933E+03  0.40578641127E+03  0.12509002029E+03 0.  0.
          5    1    3    3  502    0 -0.76393943258E+02 -0.29804802444E+03 -0.15583789929E+03  0.34492257493E+03  0.41800000000E+01 0.  1.
         -5    1    3    3    0  502 -0.13145527149E+02 -0.10356656534E+02 -0.58368390039E+02  0.60863836342E+02  0.41800000000E+01 0.  1.
        -11    1    1    2    0    0  0.10524744471E+03  0.22636907884E+03 -0.93375647110E+02  0.26653141644E+03  0.00000000000E+00 0. -1.
         11    1    1    2    0    0 -0.15707974305E+02  0.82035602129E+02 -0.43869153805E+02  0.94345551719E+02  0.00000000000E+00 0.  1.
</event>
<event>
 7    1  0.2719869E-009  0.5726920E+02  0.7561462E-02  0.1409663E+00
          1   -1    0    0  501    0  0.00000000000E+00  0.00000000000E+00  0.70190251204E+02  0.70190251204E+02  0.00000000000E+00 0. -1.
         -1   -1    0    0    0  501 -0.00000000000E+00 -0.00000000000E+00 -0.18963402525E+03  0.18963402525E+03  0.00000000000E+00 0.  1.
         25    2    1    2    0    0  0.17179714284E+02 -0.22793456859E+02 -0.46070476607E+02  0.13633052142E+03  0.12509531565E+03 0.  0.
          5    1    3    3  502    0  0.29191688660E+02 -0.16228356993E+01  0.38331294069E+02  0.48389552462E+02  0.41800000000E+01 0. -1.
         -5    1    3    3    0  502 -0.12011974376E+02 -0.21170621160E+02 -0.84401770676E+02  0.87940968962E+02  0.41800000000E+01 0. -1.
        -11    1    1    2    0    0  0.18323676753E+02  0.39346294517E+00 -0.79037036250E+02  0.81134240873E+02  0.00000000000E+00 0.  1.
         11    1    1    2    0    0 -0.35503391037E+02  0.22399993914E+02  0.56637388093E+01  0.42359514159E+02  0.00000000000E+00 0. -1.
</event>
<event>
 7    1  0.2719869E-009  0.1023675E+03  0.7561462E-02  0.1275395E+00
          1   -1    0    0  501    0  0.00000000000E+00  0.00000000000E+00  0.42895999257E+03  0.42895999257E+03  0.00000000000E+00 0. -1.
         -1   -1    0    0    0  501 -0.00000000000E+00 -0.00000000000E+00 -0.42399300818E+02  0.42399300818E+02  0.00000000000E+00 0.  1.
         25    2    1    2    0    0  0.34650105013E+02 -0.36340501147E+01  0.34424099635E+03  0.36792028846E+03  0.12509851717E+03 0.  0.
          5    1    3    3  502    0 -0.33239620786E+02 -0.30729251204E+02  0.21145657687E+03  0.21628803844E+03  0.41800000000E+01 0. -1.
         -5    1    3    3    0  502  0.67889725799E+02  0.27095201089E+02  0.13278441947E+03  0.15163225002E+03  0.41800000000E+01 0. -1.
        -11    1    1    2    0    0 -0.40032513239E+00 -0.34671587850E+02 -0.31612183215E+01  0.34817704771E+02  0.00000000000E+00 0.  1.
         11    1    1    2    0    0 -0.34249779881E+02  0.38305637965E+02  0.45480913729E+02  0.68621300158E+02  0.00000000000E+00 0. -1.
</event>
<event>
 7    1  0.2719869E-009  0.1510761E+03  0.7561462E-02  0.1199157E+00
         -1   -1    0    0    0  501 -0.00000000000E+00  0.00000000000E+00  0.12951326354E+03  0.12951326354E+03  0.00000000000E+00 0.  1.
          1   -1    0    0  501    0  0.00000000000E+00 -0.00000000000E+00 -0.19268240584E+03  0.19268240584E+03  0.00000000000E+00 0. -1.
         25    2    1    2    0    0  0.90189072026E+02  0.60217688480E+02 -0.74083586682E+02  0.18137218246E+03  0.12508897648E+03 0.  0.
          5    1    3    3  502    0 -0.19043902952E+02 -0.19152874385E+02 -0.26716372761E+02  0.38219625984E+02  0.41800000000E+01 0.  1.
         -5    1    3    3    0  502  0.10923297498E+03  0.79370562865E+02 -0.47367213921E+02  0.14315255648E+03  0.41800000000E+01 0.  1.
        -11    1    1    2    0    0  0.11766373903E+01 -0.47466656531E+02  0.10224968704E+02  0.48569722490E+02  0.00000000000E+00 0.  1.
         11    1    1    2    0    0 -0.91365709416E+02 -0.12751031949E+02  0.68947567400E+00  0.92253764420E+02  0.00000000000E+00 0. -1.
</event>
<event>
 7    1  0.2753384E-009  0.1538510E+03  0.7561462E-02  0.1195819E+00
          3   -1    0    0  501    0  0.00000000000E+00  0.00000000000E+00  0.87615280333E+03  0.87615280333E+03  0.00000000000E+00 0. -1.
         -3   -1    0    0    0  501 -0.00000000000E+00 -0.00000000000E+00 -0.47622182710E+02  0.47622182710E+02  0.00000000000E+00 0.  1.
         25    2    1    2    0    0 -0.10230776823E+03  0.63738062963E+02  0.71141628113E+03  0.73231773435E+03  0.12508684534E+03 0.  0.
          5    1    3    3  502    0 -0.10978971214E+03  0.18573312770E+02  0.33365620893E+03  0.35177078758E+03  0.41800000000E+01 0.  1.
         -5    1    3    3    0  502  0.74819439169E+01  0.45164750192E+02  0.37776007220E+03  0.38054694677E+03  0.41800000000E+01 0.  1.
        -11    1    1    2    0    0  0.29369579480E+02 -0.71165709371E+02  0.71770805185E+02  0.10525292806E+03  0.00000000000E+00 0. -1.
         11    1    1    2    0    0  0.72938188747E+02  0.74276464088E+01  0.45343534312E+02  0.86204323632E+02  0.00000000000E+00 0.  1.
</event>
<event>
 7    1  0.2719869E-009  0.7480142E+02  0.7561462E-02  0.1344487E+00
          2   -1    0    0  501    0  0.00000000000E+00  0.00000000000E+00  0.16732648720E+03  0.16732648720E+03  0.00000000000E+00 0. -1.
         -2   -1    0    0    0  501 -0.00000000000E+00 -0.00000000000E+00 -0.71855540221E+02  0.71855540221E+02  0.00000000000E+00 0.  1.
         25    2    1    2    0    0 -0.11148480659E+02  0.20795705029E+02  0.48188116199E+02  0.13611157560E+03  0.12509003358E+03 0.  0.
          5    1    3    3  502    0 -0.23498946514E+02 -0.20565617901E+02  0.77572493766E+02  0.83726395575E+02  0.41800000000E+01 0. -1.
         -5    1    3    3    0  502  0.12350465855E+02  0.41361322930E+02 -0.29384377567E+02  0.52385180026E+02  0.41800000000E+01 0. -1.
        -11    1    1    2    0    0  0.33239429608E+02 -0.35155335593E+02  0.57200674919E+02  0.74917785021E+02  0.00000000000E+00 0. -1.
         11    1    1    2    0    0 -0.22090948949E+02  0.14359630564E+02 -0.99178441409E+01  0.28152666797E+02  0.00000000000E+00 0.  1.
</event>
<event>
 7    1  0.2719869E-009  0.1103549E+03  0.7561462E-02  0.1259914E+00
         -1   -1    0    0    0  501 -0.00000000000E+00  0.00000000000E+00  0.97985137134E+01  0.97985137134E+01  0.00000000000E+00 0.  1.
          1   -1    0    0  501    0  0.00000000000E+00 -0.00000000000E+00 -0.21011591442E+04  0.21011591442E+04  0.00000000000E+00 0. -1.
         25    2    1    2    0    0 -0.66521875840E+02 -0.21190993723E+01 -0.17192487759E+04  0.17250775726E+04  0.12508648051E+03 0.  0.
          5    1    3    3  502    0 -0.88586703592E+02 -0.19267238016E+02 -0.15982029247E+04  0.16007775896E+04  0.41800000000E+01 0. -1.
         -5    1    3    3    0  502  0.22064827752E+02  0.17148138644E+02 -0.12104585117E+03  0.12429998297E+03  0.41800000000E+01 0. -1.
        -11    1    1    2    0    0  0.81530323817E+02 -0.10353855295E+02 -0.31409231311E+03  0.32466656307E+03  0.00000000000E+00 0. -1.
         11    1    1    2    0    0 -0.15008447977E+02  0.12472954667E+02 -0.58019541493E+02  0.61213522231E+02  0.00000000000E+00 0.  1.
</event>
<event>
 7    1  0.2719869E-009  0.1910116E+03  0.7561462E-02  0.1157552E+00
          3   -1    0    0  501    0  0.00000000000E+00  0.00000000000E+00  0.25037700715E+02  0.25037700715E+02  0.00000000000E+00 0. -1.
         -3   -1    0    0    0  501 -0.00000000000E+00 -0.00000000000E+00 -0.15591127415E+04  0.15591127415E+04  0.00000000000E+00 0.  1.
         25    2    1    2    0    0 -0.15519445708E+03 -0.59647815305E+02 -0.81053978108E+03  0.83681884259E+03  0.12509139549E+03 0.  0.
          5    1    3    3  502    0 -0.37274035739E+01 -0.52289355771E+02 -0.28545900028E+03  0.29026261127E+03  0.41800000000E+01 0. -1.
         -5    1    3    3    0  502 -0.15146705350E+03 -0.73584595337E+01 -0.52508078080E+03  0.54655623131E+03  0.41800000000E+01 0. -1.
        -11    1    1    2    0    0  0.45720356982E+02  0.50124187930E+02 -0.17083749081E+03  0.18381575972E+03  0.00000000000E+00 0. -1.
         11    1    1    2    0    0  0.10947410009E+03  0.95236273750E+01 -0.55269776887E+03  0.56351583987E+03  0.00000000000E+00 0.  1.
</event>
<event>
 7    1  0.2719869E-009  0.1012591E+03  0.7561462E-02  0.1277670E+00
         -1   -1    0    0    0  501 -0.00000000000E+00  0.00000000000E+00  0.43429671558E+02  0.43429671558E+02  0.00000000000E+00 0.  1.
          1   -1    0    0  501    0  0.00000000000E+00 -0.00000000000E+00 -0.36347737688E+03  0.36347737688E+03  0.00000000000E+00 0. -1.
         25    2    1    2    0    0  0.18268255417E+02  0.29848993348E+02 -0.10487099751E+03  0.16694250958E+03  0.12508870383E+03 0.  0.
          5    1    3    3  502    0 -0.23185477129E+02  0.53261614158E+02 -0.10393715287E+03  0.11914180643E+03  0.41800000000E+01 0. -1.
         -5    1    3    3    0  502  0.41453732546E+02 -0.23412620810E+02 -0.93384463225E+00  0.47800703143E+02  0.41800000000E+01 0. -1.
        -11    1    1    2    0    0 -0.44310293534E+02  0.13146892457E+02 -0.53735100388E+02  0.70878091877E+02  0.00000000000E+00 0.  1.
         11    1    1    2    0    0  0.26042038118E+02 -0.42995885805E+02 -0.16144160743E+03  0.16908644699E+03  0.00000000000E+00 0. -1.
</event>
<event>
 7    1  0.2719869E-009  0.1007663E+03  0.7561462E-02  0.1278693E+00
         -3   -1    0    0    0  501 -0.00000000000E+00  0.00000000000E+00  0.17511560834E+03  0.17511560834E+03  0.00000000000E+00 0.  1.
          3   -1    0    0  501    0  0.00000000000E+00 -0.00000000000E+00 -0.10196538613E+03  0.10196538613E+03  0.00000000000E+00 0. -1.
         25    2    1    2    0    0  0.27326431779E+02  0.71868793842E+02  0.29461407143E+02  0.14975822671E+03  0.12509074528E+03 0.  0.
          5    1    3    3  502    0  0.31671444597E+02  0.17010450487E+02 -0.44573349614E+02  0.57416824402E+02  0.41800000000E+01 0.  1.
         -5    1    3    3    0  502 -0.43450128182E+01  0.54858343356E+02  0.74034756757E+02  0.92341402308E+02  0.41800000000E+01 0.  1.
        -11    1    1    2    0    0 -0.40878649024E+02 -0.41488635904E+01  0.41242167580E+02  0.58216779384E+02  0.00000000000E+00 0.  1.
         11    1    1    2    0    0  0.13552217246E+02 -0.67719930252E+02  0.24466474806E+01  0.69105988376E+02  0.00000000000E+00 0. -1.
</event>
<event>
 7    1  0.2719869E-009  0.1450180E+03  0.7561462E-02  0.1206732E+00
          2   -1    0    0  501    0  0.00000000000E+00  0.00000000000E+00  0.70880677240E+02  0.70880677240E+02  0.00000000000E+00 0. -1.
         -2   -1    0    0    0  501 -0.00000000000E+00 -0.00000000000E+00 -0.32820115386E+03  0.32820115386E+03  0.00000000000E+00 0.  1.
         25    2    1    2    0    0 -0.92497052731E+02 -0.27835096452E+02 -0.79655933874E+02  0.17698175794E+03  0.12508787904E+03 0.  0.
          5    1    3    3  502    0  0.25332710889E+01  0.40524397940E+02 -0.18037815083E+02  0.44625995381E+02  0.41800000000E+01 0. -1.
         -5    1    3    3    0  502 -0.95030323820E+02 -0.68359494392E+02 -0.61618118791E+02  0.13235576256E+03  0.41800000000E+01 0. -1.
        -11    1    1    2    0    0 -0.60585880453E+01 -0.21165265799E+02 -0.19510805994E+02  0.29416772698E+02  0.00000000000E+00 0.  1.
         11    1    1    2    0    0  0.98555640776E+02  0.49000362251E+02 -0.15815373676E+03  0.19268330047E+03  0.00000000000E+00 0. -1.
</event>
<event>
 7    1  0.2719869E-009  0.1609355E+03  0.7561462E-02  0.1187645E+00
          1   -1    0    0  501    0  0.00000000000E+00  0.00000000000E+00  0.10204398383E+03  0.10204398383E+03  0.00000000000E+00 0. -1.
         -1   -1    0    0    0  501 -0.00000000000E+00 -0.00000000000E+00 -0.27845648069E+03  0.27845648069E+03  0.00000000000E+00 0.  1.
         25    2    1    2    0    0 -0.12206383952E+03 -0.39596048981E+02 -0.10894442840E+03  0.20972223111E+03  0.12508835969E+03 0.  0.
          5    1    3    3  502    0 -0.95251742457E+02  0.26971358440E+02 -0.31302585598E+02  0.10391185150E+03  0.41800000000E+01 0.  1.
         -5    1    3    3    0  502 -0.26812097062E+02 -0.66567407422E+02 -0.77641842798E+02  0.10581037961E+03  0.41800000000E+01 0.  1.
        -11    1    1    2    0    0  0.33100935031E+02 -0.24559842426E+02  0.14457639794E+01  0.41242550763E+02  0.00000000000E+00 0.  1.
         11    1    1    2    0    0  0.88962904487E+02  0.64155891408E+02 -0.68913832444E+02  0.12953568265E+03  0.00000000000E+00 0. -1.
</event>
<event>
 7    1  0.2719869E-009  0.9991214E+02  0.7561462E-02  0.1280481E+00
         -3   -1    0    0    0  501 -0.00000000000E+00  0.00000000000E+00  0.20113741353E+03  0.20113741353E+03  0.00000000000E+00 0.  1.
          3   -1    0    0  501    0  0.00000000000E+00 -0.00000000000E+00 -0.66325369257E+02  0.66325369257E+02  0.00000000000E+00 0. -1.
         25    2    1    2    0    0  0.26418664680E+02 -0.21431253035E+02  0.52261976779E+02  0.13977125587E+03  0.12508974898E+03 0.  0.
          5    1    3    3  502    0 -0.79903833248E+01  0.49453486070E+02  0.14652500374E+02  0.52360879265E+02  0.41800000000E+01 0. -1.
         -5    1    3    3    0  502  0.34409048005E+02 -0.70884739106E+02  0.37609476404E+02  0.87410376604E+02  0.41800000000E+01 0. -1.
        -11    1    1    2    0    0  0.19126391948E+02 -0.23491909544E+01  0.72912356621E+02  0.75415842601E+02  0.00000000000E+00 0.  1.
         11    1    1    2    0    0 -0.45545056628E+02  0.23780443990E+02  0.96377108690E+01  0.52275684313E+02  0.00000000000E+00 0. -1.
</event>
<event>
 7    1  0.2719869E-009  0.1313244E+03  0.7561462E-02  0.1225504E+00
          2   -1    0    0  501    0  0.00000000000E+00  0.00000000000E+00  0.45454121367E+03  0.45454121367E+03  0.00000000000E+00 0. -1.
         -2   -1    0    0    0  501 -0.00000000000E+00 -0.00000000000E+00 -0.41428407872E+02  0.41428407872E+02  0.00000000000E+00 0.  1.
         25    2    1    2    0    0  0.78076430923E+02 -0.27111684239E+02  0.22691775621E+03  0.27197368848E+03  0.12508815554E+03 0.  0.
          5    1    3    3  502    0  0.12092806579E+02  0.41718443108E+02  0.12475437330E+03  0.13216576911E+03  0.41800000000E+01 0.  1.
         -5    1    3    3    0  502  0.65983624344E+02 -0.68830127347E+02  0.10216338291E+03  0.13980791937E+03  0.41800000000E+01 0.  1.
        -11    1    1    2    0    0 -0.86005884810E+02  0.49906863826E+02  0.15996151617E+03  0.18834912778E+03  0.00000000000E+00 0.  1.
         11    1    1    2    0    0  0.79294538867E+01 -0.22795179587E+02  0.26233533419E+02  0.35646805285E+02  0.00000000000E+00 0. -1.
</event>
<event>
 7    1  0.2719869E-009  0.5695445E+02  0.7561462E-02  0.1411076E+00
         -2   -1    0    0    0  501 -0.00000000000E+00  0.00000000000E+00  0.11348958789E+03  0.11348958789E+03  0.00000000000E+00 0.  1.
          2   -1    0    0  501    0  0.00000000000E+00 -0.00000000000E+00 -0.94345393055E+02  0.94345393055E+02  0.00000000000E+00 0. -1.
         25    2    1    2    0    0  0.11817346810E+02 -0.23922591281E+02  0.27031226939E+02  0.13072763159E+03  0.12508831429E+03 0.  0.
          5    1    3    3  502    0  0.12232730723E+02 -0.31822264082E+02  0.74704293562E+02  0.82222260178E+02  0.41800000000E+01 0.  1.
         -5    1    3    3    0  502 -0.41538391352E+00  0.78996728015E+01 -0.47673066623E+02  0.48505371408E+02  0.41800000000E+01 0.  1.
        -11    1    1    2    0    0 -0.36108621268E+02 -0.57724745869E+00  0.11030694814E+02  0.37760322729E+02  0.00000000000E+00 0.  1.
         11    1    1    2    0    0  0.24291274458E+02  0.24499838740E+02 -0.18917726916E+02  0.39347026631E+02  0.00000000000E+00 0. -1.
</event>
<event>
 7    1  0.2719869E-009  0.1679098E+03  0.7561462E-02  0.1180045E+00
          4   -1    0    0  501    0  0.00000000000E+00  0.00000000000E+00  0.12375207954E+03  0.12375207954E+03  0.00000000000E+00 0. -1.
         -4   -1    0    0    0  501 -0.00000000000E+00 -0.00000000000E+00 -0.27239176025E+03  0.27239176025E+03  0.00000000000E+00 0.  1.
         25    2    1    2    0    0  0.11170943326E+03  0.92933107018E+02 -0.10732430900E+03  0.21973192171E+03  0.12509216705E+03 0.  0.
          5    1    3    3  502    0  0.12146493600E+03  0.42447030236E+02 -0.10815110362E+03  0.16813570313E+03  0.41800000000E+01 0. -1.
         -5    1    3    3    0  502 -0.97555027426E+01  0.50486076782E+02  0.82679461784E+00  0.51596218582E+02  0.41800000000E+01 0. -1.
        -11    1    1    2    0    0 -0.67445556640E+02 -0.20296897110E+02 -0.56139155234E+02  0.90069261645E+02  0.00000000000E+00 0.  1.
         11    1    1    2    0    0 -0.44263876621E+02 -0.72636209908E+02  0.14823783524E+02  0.86342656441E+02  0.00000000000E+00 0. -1.
</event>
<event>
 7    1  0.2719869E-009  0.7876443E+02  0.7561462E-02  0.1332595E+00
          2   -1    0    0  501    0  0.00000000000E+00  0.00000000000E+00  0.11429901213E+03  0.11429901213E+03  0.00000000000E+00 0. -1.
         -2   -1    0    0    0  501 -0.00000000000E+00 -0.00000000000E+00 -0.21141108576E+03  0.21141108576E+03  0.00000000000E+00 0.  1.
         25    2    1    2    0    0 -0.56528455011E+02  0.11646661656E+02  0.33976565256E+02  0.14189128915E+03  0.12509044726E+03 0.  0.
          5    1    3    3  502    0 -0.73205254977E+02 -0.68541993880E+01  0.67513756396E+02  0.99907803039E+02  0.41800000000E+01 0. -1.
         -5    1    3    3    0  502  0.16676799966E+02  0.18500861044E+02 -0.33537191140E+02  0.41983486111E+02  0.41800000000E+01 0. -1.
        -11    1    1    2    0    0  0.38454948088E+02 -0.12771114125E+02 -0.15132914513E+03  0.15666012433E+03  0.00000000000E+00 0.  1.
         11    1    1    2    0    0  0.18073506924E+02  0.11244524690E+01  0.20240506250E+02  0.27158684415E+02  0.00000000000E+00 0. -1.
</event>
<event>
 7    1  0.2719869E-009  0.1544198E+03  0.7561462E-02  0.1195145E+00
         -2   -1    0    0    0  501 -0.00000000000E+00  0.00000000000E+00  0.17119435674E+04  0.17119435674E+04  0.00000000000E+00 0.  1.
          2   -1    0    0  501    0  0.00000000000E+00 -0.00000000000E+00 -0.20579678051E+02  0.20579678051E+02  0.00000000000E+00 0. -1.
         25    2    1    2    0    0  0.95446180556E+02 -0.11578950909E+03  0.10303861891E+04  0.10487426349E+04  0.12509289222E+03 0.  0.
          5    1    3    3  502    0  0.67049448687E+02 -0.83239271325E+02  0.32766764666E+03  0.34468531144E+03  0.41800000000E+01 0. -1.
         -5    1    3    3    0  502  0.28396731869E+02 -0.32550237762E+02  0.70271854246E+03  0.70405732343E+03  0.41800000000E+01 0. -1.
        -11    1    1    2    0    0  0.34266436343E+01  0.21764737238E+02  0.24964497661E+02  0.33296723820E+02  0.00000000000E+00 0. -1.
         11    1    1    2    0    0 -0.98872824190E+02  0.94024771849E+02  0.63601320260E+03  0.65048388678E+03  0.00000000000E+00 0.  1.
</event>
<event>
 7    1  0.2719869E-009  0.1239433E+03  0.7561462E-02  0.1236730E+00
         -2   -1    0    0    0  501 -0.00000000000E+00  0.00000000000E+00  0.25123823506E+02  0.25123823506E+02  0.00000000000E+00 0.  1.
          2   -1    0    0  501    0  0.00000000000E+00 -0.00000000000E+00 -0.73343412610E+03  0.73343412610E+03  0.00000000000E+00 0. -1.
         25    2    1    2    0    0 -0.76083911848E+02  0.31734021718E+02 -0.36575872077E+03  0.39524858496E+03  0.12508474053E+03 0.  0.
          5    1    3    3  502    0 -0.10884152636E+03  0.29752011119E+02 -0.24036916925E+03  0.26556820208E+03  0.41800000000E+01 0. -1.
         -5    1    3    3    0  502  0.32757614512E+02  0.19820105986E+01 -0.12538955152E+03  0.12968038288E+03  0.41800000000E+01 0. -1.
        -11    1    1    2    0    0  0.49603052043E+01 -0.30352281890E+02 -0.30730343831E+02  0.43476656675E+02  0.00000000000E+00 0.  1.
         11    1    1    2    0    0  0.71123606644E+02 -0.13817398272E+01 -0.31182123799E+03  0.31983270797E+03  0.00000000000E+00 0. -1.
</event>
<event>
 7    1  0.2719869E-009  0.8614049E+02  0.7561462E-02  0.1312477E+00
         -1   -1    0    0    0  501 -0.00000000000E+00  0.00000000000E+00  0.38224812561E+02  0.38224812561E+02  0.00000000000E+00 0.  1.
          1   -1    0    0  501    0  0.00000000000E+00 -0.00000000000E+00 -0.40829004510E+03  0.40829004510E+03  0.00000000000E+00 0. -1.
         25    2    1    2    0    0  0.33640008934E+02 -0.21186809194E+02 -0.29644008022E+03  0.32419839271E+03  0.12508935044E+03 0.  0.
          5    1    3    3  502    0 -0.22827785893E+02  0.12712320111E+02 -0.70572682652E+01  0.27385914751E+02  0.41800000000E+01 0. -1.
         -5    1    3    3    0  502  0.56467794827E+02 -0.33899129305E+02 -0.28938281195E+03  0.29681247796E+03  0.41800000000E+01 0. -1.
        -11    1    1    2    0    0  0.20362098633E+02 -0.31301575037E+01  0.74558286638E+01  0.21908955425E+02  0.00000000000E+00 0.  1.
         11    1    1    2    0    0 -0.54002107567E+02  0.24316966698E+02 -0.81080980981E+02  0.10040750952E+03  0.00000000000E+00 0. -1.
</event>
<event>
 7    1  0.2719869E-009  0.7843548E+02  0.7561462E-02  0.1333551E+00
         -1   -1    0    0    0  501 -0.00000000000E+00  0.00000000000E+00  0.25826472042E+03  0.25826472042E+03  0.00000000000E+00 0.  1.
          1   -1    0    0  501    0  0.00000000000E+00 -0.00000000000E+00 -0.56140796859E+02  0.56140796859E+02  0.00000000000E+00 0. -1.
         25    2    1    2    0    0  0.21987064759E+02  0.47279640330E+02  0.10973577074E+03  0.17437858142E+03  0.12508858810E+03 0.  0.
          5    1    3    3  502    0  0.14591815462E+02  0.26226658746E+02  0.13618896763E+03  0.13951941087E+03  0.41800000000E+01 0.  1.
         -5    1    3    3    0  502  0.73952492973E+01  0.21052981584E+02 -0.26453196886E+02  0.34859170547E+02  0.41800000000E+01 0.  1.
        -11    1    1    2    0    0  0.30780436643E+02  0.30679641390E+01  0.38269684557E+02  0.49207890017E+02  0.00000000000E+00 0.  1.
         11    1    1    2    0    0 -0.52767501402E+02 -0.50347604469E+02  0.54118468262E+02  0.90819045839E+02  0.00000000000E+00 0. -1.
</event>
<event>
 7    1  0.2719869E-009  0.1222343E+03  0.7561462E-02  0.1239456E+00
          1   -1    0    0  501    0  0.00000000000E+00  0.00000000000E+00  0.38331196357E+02  0.38331196357E+02  0.00000000000E+00 0. -1.
         -1   -1    0    0    0  501 -0.00000000000E+00 -0.00000000000E+00 -0.42131086171E+03  0.42131086171E+03  0.00000000000E+00 0.  1.
         25    2    1    2    0    0 -0.60584340517E+02 -0.27375262516E+02 -0.17982204412E+03  0.22892716959E+03  0.12510721047E+03 0.  0.
          5    1    3    3  502    0 -0.41565558111E+02  0.45248127542E+02 -0.11128717269E+03  0.12719039222E+03  0.41800000000E+01 0.  1.
         -5    1    3    3    0  502 -0.19018782406E+02 -0.72623390058E+02 -0.68534871429E+02  0.10173677737E+03  0.41800000000E+01 0.  1.
        -11    1    1    2    0    0  0.16998457069E+02 -0.30695480554E+02 -0.48502186032E+02  0.59863362076E+02  0.00000000000E+00 0.  1.
         11    1    1    2    0    0  0.43585883448E+02  0.58070743070E+02 -0.15465543520E+03  0.17085152640E+03  0.00000000000E+00 0. -1.
</event>
<event>
 7    1  0.2719869E-009  0.1139123E+03  0.7561462E-02  0.1253492E+00
         -2   -1    0    0    0  501 -0.00000000000E+00  0.00000000000E+00  0.66019451298E+02  0.66019451298E+02  0.00000000000E+00 0.  1.
          2   -1    0    0  501    0  0.00000000000E+00 -0.00000000000E+00 -0.29878452675E+03  0.29878452675E+03  0.00000000000E+00 0. -1.
         25    2    1    2    0    0 -0.35886947210E+02 -0.78232983419E+02 -0.16276130260E+03  0.22259059805E+03  0.12508820904E+03 0.  0.
          5    1    3    3  502    0 -0.14386670413E+02 -0.10090483563E+03 -0.16152733109E+03  0.19104270001E+03  0.41800000000E+01 0. -1.
         -5    1    3    3    0  502 -0.21500276798E+02  0.22671852209E+02 -0.12339715146E+01  0.31547898039E+02  0.41800000000E+01 0. -1.
        -11    1    1    2    0    0 -0.58960313965E+01  0.29561664890E+02  0.16622061353E+02  0.34423075704E+02  0.00000000000E+00 0.  1.
         11    1    1    2    0    0  0.41782978607E+02  0.48671318528E+02 -0.86625834197E+02  0.10779030429E+03  0.00000000000E+00 0. -1.
</event>
<event>
 7    1  0.2719869E-009  0.1133861E+03  0.7561462E-02  0.1254425E+00
          4   -1    0    0  501    0  0.00000000000E+00  0.00000000000E+00  0.15953610639E+03  0.15953610639E+03  0.00000000000E+00 0. -1.
         -4   -1    0    0    0  501 -0.00000000000E+00 -0.00000000000E+00 -0.12364326728E+03  0.12364326728E+03  0.00000000000E+00 0.  1.
         25    2    1    2    0    0 -0.94217066115E+01 -0.56061450432E+02 -0.49642629535E+02  0.14609445469E+03  0.12509014448E+03 0.  0.
          5    1    3    3  502    0 -0.54689167294E+02 -0.68913401982E+02 -0.44186172680E+02  0.98538582536E+02  0.41800000000E+01 0.  1.
         -5    1    3    3    0  502  0.45267460683E+02  0.12851951550E+02 -0.54564568550E+01  0.47555872158E+02  0.41800000000E+01 0.  1.
        -11    1    1    2    0    0  0.32806899978E+02  0.59374638351E+02  0.25326468761E+02  0.72409049058E+02  0.00000000000E+00 0.  1.
         11    1    1    2    0    0 -0.23385193367E+02 -0.33131879189E+01  0.60208999888E+02  0.64675869924E+02  0.00000000000E+00 0. -1.
</event>
<event>
 7    1  0.2719869E-009  0.1604070E+03  0.7561462E-02  0.1188238E+00
          1   -1    0    0  501    0  0.00000000000E+00  0.00000000000E+00  0.56862236391E+03  0.56862236391E+03  0.00000000000E+00 0. -1.
         -1   -1    0    0    0  501 -0.00000000000E+00 -0.00000000000E+00 -0.57329365447E+02  0.57329365447E+02  0.00000000000E+00 0.  1.
         25    2    1    2    0    0 -0.10425588481E+03 -0.90859810173E+02  0.33937108377E+03  0.38722701923E+03  0.12508891757E+03 0.  0.
          5    1    3    3  502    0 -0.12144223346E+03 -0.87512170469E+02  0.21768950047E+03  0.26422109504E+03  0.41800000000E+01 0.  1.
         -5    1    3    3    0  502  0.17186348650E+02 -0.33476397033E+01  0.12168158330E+03  0.12300592419E+03  0.41800000000E+01 0.  1.
        -11    1    1    2    0    0  0.19754266291E+02  0.59896864335E+02  0.28055993808E+02  0.69029009716E+02  0.00000000000E+00 0.  1.
         11    1    1    2    0    0  0.84501618517E+02  0.30962945838E+02  0.14386592089E+03  0.16969570042E+03  0.00000000000E+00 0. -1.
</event>
<event>
 7    1  0.2719869E-009  0.1103202E+03  0.7561462E-02  0.1259978E+00
          1   -1    0    0  501    0  0.00000000000E+00  0.00000000000E+00  0.40352344478E+03  0.40352344478E+03  0.00000000000E+00 0. -1.
         -1   -1    0    0    0  501 -0.00000000000E+00 -0.00000000000E+00 -0.42441566439E+02  0.42441566439E+02  0.00000000000E+00 0.  1.
         25    2    1    2    0    0 -0.75633306317E+01 -0.26190978036E+02  0.86326783024E+02  0.15441183773E+03  0.12509009099E+03 0.  0.
          5    1    3    3  502    0 -0.27329178800E+02  0.44825335603E+02  0.24388646212E+02  0.58038549171E+02  0.41800000000E+01 0. -1.
         -5    1    3    3    0  502  0.19765848168E+02 -0.71016313639E+02  0.61938136811E+02  0.96373288562E+02  0.41800000000E+01 0. -1.
        -11    1    1    2    0    0  0.53461307010E+01 -0.33743894595E+02  0.65528081527E+02  0.73899668501E+02  0.00000000000E+00 0.  1.
         11    1    1    2    0    0  0.22171999307E+01  0.59934872631E+02  0.20922701379E+03  0.21765350498E+03  0.00000000000E+00 0. -1.
</event>
<event>
 7    1  0.2719869E-009  0.1245332E+03  0.7561462E-02  0.1235801E+00
         -1   -1    0    0    0  501 -0.00000000000E+00  0.00000000000E+00  0.24081251131E+02  0.24081251131E+02  0.00000000000E+00 0.  1.
          1   -1    0    0  501    0  0.00000000000E+00 -0.00000000000E+00 -0.94151752591E+03  0.94151752591E+03  0.00000000000E+00 0. -1.
         25    2    1    2    0    0  0.42887287620E+02  0.91066856183E+02 -0.56817983368E+03  0.59043039493E+03  0.12508891289E+03 0.  0.
          5    1    3    3  502    0  0.11843303415E+02  0.86620283136E+02 -0.17199864175E+03  0.19298793343E+03  0.41800000000E+01 0. -1.
         -5    1    3    3    0  502  0.31043984205E+02  0.44465730469E+01 -0.39618119192E+03  0.39744246150E+03  0.41800000000E+01 0. -1.
        -11    1    1    2    0    0  0.75359167788E+01 -0.77254913710E+02 -0.26385039009E+03  0.27503116203E+03  0.00000000000E+00 0. -1.
         11    1    1    2    0    0 -0.50423204398E+02 -0.13811942473E+02 -0.85406051008E+02  0.10013722008E+03  0.00000000000E+00 0.  1.
</event>
<event>
 7    1  0.2719869E-009  0.1778320E+03  0.7561462E-02  0.1169918E+00
          2   -1    0    0  501    0  0.00000000000E+00  0.00000000000E+00  0.17597114071E+03  0.17597114071E+03  0.00000000000E+00 0. -1.
         -2   -1    0    0    0  501 -0.00000000000E+00 -0.00000000000E+00 -0.22719156253E+03  0.22719156253E+03  0.00000000000E+00 0.  1.
         25    2    1    2    0    0 -0.12248236927E+03 -0.11413405035E+03 -0.45613853851E+02  0.21390435984E+03  0.12508372902E+03 0.  0.
          5    1    3    3  502    0 -0.11379174208E+03 -0.73806088231E+02 -0.82161797184E+02  0.15863143617E+03  0.41800000000E+01 0.  1.
         -5    1    3    3    0  502 -0.86906271927E+01 -0.40327962115E+02  0.36547943333E+02  0.55272923672E+02  0.41800000000E+01 0.  1.
        -11    1    1    2    0    0  0.71164649806E+02  0.24584467282E+02 -0.33404184745E+02  0.82368944221E+02  0.00000000000E+00 0.  1.
         11    1    1    2    0    0  0.51317719464E+02  0.89549583064E+02  0.27797616780E+02  0.10688939918E+03  0.00000000000E+00 0. -1.
</event>
<event>
 7    1  0.2719869E-009  0.1008402E+03  0.7561462E-02  0.1278539E+00
          2   -1    0    0  501    0  0.00000000000E+00  0.00000000000E+00  0.39301785729E+03  0.39301785729E+03  0.00000000000E+00 0. -1.
         -2   -1    0    0    0  501 -0.00000000000E+00 -0.00000000000E+00 -0.32258166649E+02  0.32258166649E+02  0.00000000000E+00 0.  1.
         25    2    1    2    0    0 -0.29353602279E+02 -0.13703601937E+02  0.22057601269E+03  0.25563769717E+03  0.12508969648E+03 0.  0.
          5    1    3    3  502    0 -0.19768240702E+02  0.46172729468E+02  0.37743257006E+02  0.62966103074E+02  0.41800000000E+01 0.  1.
         -5    1    3    3    0  502 -0.95853615778E+01 -0.59876331405E+02  0.18283275568E+03  0.19267159409E+03  0.41800000000E+01 0.  1.
        -11    1    1    2    0    0 -0.23888128520E+02  0.26563562022E+02  0.83468869939E+02  0.90792718653E+02  0.00000000000E+00 0. -1.
         11    1    1    2    0    0  0.53241730799E+02 -0.12859960085E+02  0.56714808015E+02  0.78845608122E+02  0.00000000000E+00 0.  1.
</event>
<event>
 7    1  0.2719869E-009  0.9923268E+02  0.7561462E-02  0.1281918E+00
          1   -1    0    0  501    0  0.00000000000E+00  0.00000000000E+00  0.96770607676E+02  0.96770607676E+02  0.00000000000E+00 0. -1.
         -1   -1    0    0    0  501 -0.00000000000E+00 -0.00000000000E+00 -0.11908675371E+03  0.11908675371E+03  0.00000000000E+00 0.  1.
         25    2    1    2    0    0 -0.55334015040E+01 -0.65895001142E+01 -0.17718691958E+02  0.12662983931E+03  0.12508846516E+03 0.  0.
          5    1    3    3  502    0  0.50265494683E+02  0.26688207918E+02  0.59142032776E+01  0.57370119383E+02  0.41800000000E+01 0. -1.
         -5    1    3    3    0  502 -0.55798896187E+02 -0.33277708032E+02 -0.23632895235E+02  0.69259719930E+02  0.41800000000E+01 0. -1.
        -11    1    1    2    0    0 -0.43189826546E-01  0.41220646263E+02 -0.25426709496E+02  0.48432025556E+02  0.00000000000E+00 0.  1.
         11    1    1    2    0    0  0.55765913305E+01 -0.34631146149E+02  0.20829255422E+02  0.40795496514E+02  0.00000000000E+00 0. -1.
</event>
<event>
 7    1  0.2719869E-009  0.1151125E+03  0.7561462E-02  0.1251385E+00
          2   -1    0    0  501    0  0.00000000000E+00  0.00000000000E+00  0.25561219214E+03  0.25561219214E+03  0.00000000000E+00 0. -1.
         -2   -1    0    0    0  501 -0.00000000000E+00 -0.00000000000E+00 -0.57014335898E+02  0.57014335898E+02  0.00000000000E+00 0.  1.
         25    2    1    2    0    0 -0.53408615812E+02 -0.14522832382E+01  0.11896700101E+03  0.18068906133E+03  0.12506318478E+03 0.  0.
          5    1    3    3  502    0 -0.86580788354E+02  0.27759800567E+02  0.87625441605E+02  0.12634290584E+03  0.41800000000E+01 0. -1.
         -5    1    3    3    0  502  0.33172172541E+02 -0.29212083805E+02  0.31341559400E+02  0.54346155494E+02  0.41800000000E+01 0. -1.
        -11    1    1    2    0    0 -0.37473746563E+00 -0.31651606020E+02  0.17972522879E+01  0.31704805750E+02  0.00000000000E+00 0.  1.
         11    1    1    2    0    0  0.53783353278E+02  0.33103889258E+02  0.77833602945E+02  0.10023266095E+03  0.00000000000E+00 0. -1.
</event>
<event>
 7    1  0.2719869E-009  0.8178783E+02  0.7561462E-02  0.1324053E+00
         -1   -1    0    0    0  501 -0.00000000000E+00  0.00000000000E+00  0.11326274296E+03  0.11326274296E+03  0.00000000000E+00 0.  1.
          1   -1    0    0  501    0  0.00000000000E+00 -0.00000000000E+00 -0.14820008208E+03  0.14820008208E+03  0.00000000000E+00 0. -1.
         25    2    1    2    0    0 -0.65980333226E+02  0.14116316263E+02 -0.41041596091E+02  0.14792949502E+03  0.12508416418E+03 0.  0.
          5    1    3    3  502    0 -0.69804344672E+02  0.22762488646E+02  0.27573524734E+02  0.78540111349E+02  0.41800000000E+01 0. -1.
         -5    1    3    3    0  502  0.38240114465E+01 -0.86461723830E+01 -0.68615120825E+02  0.69389383671E+02  0.41800000000E+01 0. -1.
        -11    1    1    2    0    0  0.13973610396E+02 -0.23025225265E+02  0.41873509192E+02  0.49787684803E+02  0.00000000000E+00 0.  1.
         11    1    1    2    0    0  0.52006722829E+02  0.89089090023E+01 -0.35769252224E+02  0.63745645214E+02  0.00000000000E+00 0. -1.
</event>
<event>
 7    1  0.2719869E-009  0.6126425E+02  0.7561462E-02  0.1392602E+00
          1   -1    0    0  501    0  0.00000000000E+00  0.00000000000E+00  0.93074782288E+02  0.93074782288E+02  0.00000000000E+00 0. -1.
         -1   -1    0    0    0  501 -0.00000000000E+00 -0.00000000000E+00 -0.18876726024E+03  0.18876726024E+03  0.00000000000E+00 0.  1.
         25    2    1    2    0    0  0.14934717500E+02  0.33300393166E+02  0.13650676839E+02  0.13106004540E+03  0.12513365874E+03 0.  0.
          5    1    3    3  502    0  0.10862173422E+02 -0.97845973203E+01  0.63278992071E+02  0.65080168974E+02  0.41800000000E+01 0.  1.
         -5    1    3    3    0  502  0.40725440779E+01  0.43084990486E+02 -0.49628315232E+02  0.65979876426E+02  0.41800000000E+01 0.  1.
        -11    1    1    2    0    0 -0.19860763832E+02  0.86094453865E+01 -0.10629167292E+03  0.10847346321E+03  0.00000000000E+00 0.  1.
         11    1    1    2    0    0  0.49260463319E+01 -0.41909838552E+02 -0.30514818681E+01  0.42308533909E+02  0.00000000000E+00 0. -1.
</event>
<event>
 7    1  0.2719869E-009  0.1019257E+03  0.7561462E-02  0.1276298E+00
          2   -1    0    0  501    0  0.00000000000E+00  0.00000000000E+00  0.31698402142E+03  0.31698402142E+03  0.00000000000E+00 0.  1.
         -2   -1    0    0    0  501 -0.00000000000E+00 -0.00000000000E+00 -0.51058487239E+02  0.51058487239E+02  0.00000000000E+00 0. -1.
         25    2    1    2    0    0  0.54978793402E+02 -0.37935084212E+01  0.19948825675E+03  0.24182680330E+03  0.12509028652E+03 0.  0.
          5    1    3    3  502    0 -0.29421489364E+02 -0.17052961043E+02  0.12979063394E+02  0.36638176856E+02  0.41800000000E+01 0.  1.
         -5    1    3    3    0  502  0.84400282766E+02  0.13259452621E+02  0.18650919336E+03  0.20518862645E+03  0.41800000000E+01 0.  1.
        -11    1    1    2    0    0 -0.41309667242E+02  0.32299308295E+02  0.76758162315E+02  0.92959934412E+02  0.00000000000E+00 0.  1.
         11    1    1    2    0    0 -0.13669126160E+02 -0.28505799874E+02 -0.10320884887E+02  0.33255770947E+02  0.00000000000E+00 0. -1.
</event>
<event>
 6    1  0.2719869E-009  0.1392196E+03  0.7561462E-02  0.1214383E+00
          2   -1    0    0  501    0  0.00000000000E+00  0.00000000000E+00  0.21751876582E+03  0.21751876582E+03  0.00000000000E+00 0. -1.
         -2   -1    0    0    0  501 -0.00000000000E+00 -0.00000000000E+00 -0.14292449513E+03  0.14292449513E+03  0.00000000000E+00 0.  1.
          5    1    1    2  502    0  0.67405466128E+02 -0.44634560833E+02  0.10392213533E+03  0.13173087526E+03  0.41800000000E+01 0.  1.
         -5    1    1    2    0  502  0.61941651663E+02  0.17797026725E+02 -0.21280741468E+02  0.67998858287E+02  0.41800000000E+01 0.  1.
        -11    1    1    2    0    0 -0.46197397639E+02  0.24957846216E+01  0.40423757183E+02  0.61437029829E+02  0.00000000000E+00 0. -1.
         11    1    1    2    0    0 -0.83149720152E+02  0.24341749486E+02 -0.48470880349E+02  0.99276497577E+02  0.00000000000E+00 0.  1.
</event>
<event>
 7    1  0.2719869E-009  0.1065765E+03  0.7561462E-02  0.1267044E+00
         -2   -1    0    0    0  501 -0.00000000000E+00  0.00000000000E+00  0.14609974974E+02  0.14609974974E+02  0.00000000000E+00 0. -1.
          2   -1    0    0  501    0  0.00000000000E+00 -0.00000000000E+00 -0.20534148331E+04  0.20534148331E+04  0.00000000000E+00 0.  1.
         25    2    1    2    0    0  0.15633844677E+02  0.40598119593E+02 -0.18438753886E+04  0.18486260782E+04  0.12509717749E+03 0.  0.
          5    1    3    3  502    0 -0.50590160090E+02 -0.62620900544E+01 -0.74071172605E+03  0.74247552927E+03  0.41800000000E+01 0. -1.
         -5    1    3    3    0  502  0.66224004767E+02  0.46860209647E+02 -0.11031636625E+04  0.11061505489E+04  0.41800000000E+01 0. -1.
        -11    1    1    2    0    0 -0.22317328972E+02  0.13618635579E+02 -0.12524696365E+02  0.28989626187E+02  0.00000000000E+00 0. -1.
         11    1    1    2    0    0  0.66834842945E+01 -0.54216755172E+02 -0.18240477316E+03  0.19040910371E+03  0.00000000000E+00 0.  1.
</event>
<event>
 7    1  0.2719869E-009  0.1505658E+03  0.7561462E-02  0.1199779E+00
         -1   -1    0    0    0  501 -0.00000000000E+00  0.00000000000E+00  0.16675731833E+02  0.16675731833E+02  0.00000000000E+00 0.  1.
          1   -1    0    0  501    0  0.00000000000E+00 -0.00000000000E+00 -0.22691639199E+04  0.22691639199E+04  0.00000000000E+00 0. -1.
         25    2    1    2    0    0 -0.95297731953E+02  0.63166169837E+02 -0.18457603912E+04  0.18535237417E+04  0.12508883550E+03 0.  0.
          5    1    3    3  502    0 -0.10896551906E+03  0.10465379053E+02 -0.14305464419E+04  0.14347346805E+04  0.41800000000E+01 0.  1.
         -5    1    3    3    0  502  0.13667787104E+02  0.52700790785E+02 -0.41521394922E+03  0.41878906120E+03  0.41800000000E+01 0.  1.
        -11    1    1    2    0    0  0.10672648957E+03 -0.65627358787E+02 -0.39922825862E+03  0.41842645265E+03  0.00000000000E+00 0. -1.
         11    1    1    2    0    0 -0.11428757620E+02  0.24611889491E+01 -0.74995382966E+01  0.13889457385E+02  0.00000000000E+00 0.  1.
</event>
<event>
 7    1  0.2719869E-009  0.1259302E+03  0.7561462E-02  0.1233623E+00
         -2   -1    0    0    0  501 -0.00000000000E+00  0.00000000000E+00  0.61535051958E+02  0.61535051958E+02  0.00000000000E+00 0. -1.
          2   -1    0    0  501    0  0.00000000000E+00 -0.00000000000E+00 -0.39245547553E+03  0.39245547553E+03  0.00000000000E+00 0.  1.
         25    2    1    2    0    0  0.94749365908E+02  0.23307810990E+02 -0.22541239350E+03  0.27563502248E+03  0.12507286709E+03 0.  0.
          5    1    3    3  502    0  0.23203468981E+02  0.28222521536E+02  0.23134348096E+01  0.36847470405E+02  0.41800000000E+01 0.  1.
         -5    1    3    3    0  502  0.71545896927E+02 -0.49147105462E+01 -0.22772582831E+03  0.23878755207E+03  0.41800000000E+01 0.  1.
        -11    1    1    2    0    0 -0.75727587937E+01 -0.51170965283E+02 -0.45710897606E+02  0.69031156181E+02  0.00000000000E+00 0. -1.
         11    1    1    2    0    0 -0.87176607114E+02  0.27863154293E+02 -0.59797132465E+02  0.10932434883E+03  0.00000000000E+00 0.  1.
</event>
<event>
 7    1  0.2719869E-009  0.1101251E+03  0.7561462E-02  0.1260338E+00
         -2   -1    0    0    0  501 -0.00000000000E+00  0.00000000000E+00  0.59641305549E+03  0.59641305549E+03  0.00000000000E+00 0.  1.
          2   -1    0    0  501    0  0.00000000000E+00 -0.00000000000E+00 -0.24286670995E+02  0.24286670995E+02  0.00000000000E+00 0. -1.
         25    2    1    2    0    0  0.45009400088E+02  0.65687470957E+01  0.25632265671E+03  0.28882234523E+03  0.12509215894E+03 0.  0.
          5    1    3    3  502    0  0.55442298016E+02 -0.45001856481E+02  0.93913660129E+02  0.11805195236E+03  0.41800000000E+01 0.  1.
         -5    1    3    3    0  502 -0.10432897929E+02  0.51570603577E+02  0.16240899658E+03  0.17077039287E+03  0.41800000000E+01 0.  1.
        -11    1    1    2    0    0  0.25275710414E+02 -0.41383846263E+01  0.14360608893E+03  0.14587219249E+03  0.00000000000E+00 0.  1.
         11    1    1    2    0    0 -0.70285110502E+02 -0.24303624693E+01  0.17219763886E+03  0.18600518877E+03  0.00000000000E+00 0. -1.
</event>
<event>
 7    1  0.2719869E-009  0.8930366E+02  0.7561462E-02  0.1304547E+00
          1   -1    0    0  501    0  0.00000000000E+00  0.00000000000E+00  0.10410005710E+03  0.10410005710E+03  0.00000000000E+00 0. -1.
         -1   -1    0    0    0  501 -0.00000000000E+00 -0.00000000000E+00 -0.13099826073E+03  0.13099826073E+03  0.00000000000E+00 0.  1.
         25    2    1    2    0    0 -0.37782058304E+02 -0.15695650847E+02 -0.30475532815E+02  0.13509792725E+03  0.12509538146E+03 0.  0.
          5    1    3    3  502    0  0.13192353294E+02 -0.23180774365E+02  0.39657206019E+02  0.47974502341E+02  0.41800000000E+01 0. -1.
         -5    1    3    3    0  502 -0.50974411599E+02  0.74851235180E+01 -0.70132738833E+02  0.87123424911E+02  0.41800000000E+01 0. -1.
        -11    1    1    2    0    0  0.54742044105E+02 -0.21677777318E+02  0.12063249697E+01  0.58890344219E+02  0.00000000000E+00 0.  1.
         11    1    1    2    0    0 -0.16959985801E+02  0.37373428164E+02  0.23710042183E+01  0.41110046365E+02  0.00000000000E+00 0. -1.
</event>
<event>
 7    1  0.2719869E-009  0.1560018E+03  0.7561462E-02  0.1193286E+00
         -1   -1    0    0    0  501 -0.00000000000E+00  0.00000000000E+00  0.58310685052E+02  0.58310685052E+02  0.00000000000E+00 0.  1.
          1   -1    0    0  501    0  0.00000000000E+00 -0.00000000000E+00 -0.56428731298E+03  0.56428731298E+03  0.00000000000E+00 0. -1.
         25    2    1    2    0    0  0.12871225930E+03  0.63215564681E+02 -0.30697356228E+03  0.36116944888E+03  0.12509016568E+03 0.  0.
          5    1    3    3  502    0  0.60154471439E+02  0.74475857608E+02 -0.83480866194E+02  0.12708950083E+03  0.41800000000E+01 0.  1.
         -5    1    3    3    0  502  0.68557787865E+02 -0.11260292927E+02 -0.22349269609E+03  0.23407994805E+03  0.41800000000E+01 0.  1.
        -11    1    1    2    0    0 -0.10067768614E+03 -0.34450921303E+02 -0.72648917611E+02  0.12884381124E+03  0.00000000000E+00 0.  1.
         11    1    1    2    0    0 -0.28034573161E+02 -0.28764643378E+02 -0.12635414803E+03  0.13258473791E+03  0.00000000000E+00 0. -1.
</event>
<event>
 7    1  0.3227963E-009  0.8567908E+02  0.7561462E-02  0.1313666E+00
         -1   -1    0    0    0  501 -0.00000000000E+00  0.00000000000E+00  0.29929888849E+03  0.29929888849E+03  0.00000000000E+00 0.  1.
          1   -1    0    0  501    0  0.00000000000E+00 -0.00000000000E+00 -0.52959356984E+02  0.52959356984E+02  0.00000000000E+00 0. -1.
         25    2    1    2    0    0  0.12055997684E+02 -0.81036048992E+01  0.22373485292E+03  0.25673992338E+03  0.12508832220E+03 0.  0.
          5    1    3    3  502    0 -0.28125904179E+01  0.50416949533E+02  0.44062341835E+02  0.67147165489E+02  0.41800000000E+01 0. -1.
         -5    1    3    3    0  502  0.14868588102E+02 -0.58520554433E+02  0.17967251109E+03  0.18959275789E+03  0.41800000000E+01 0. -1.
        -11    1    1    2    0    0  0.68582336324E+01  0.30263795132E+02  0.47807514020E+02  0.56995535449E+02  0.00000000000E+00 0.  1.
         11    1    1    2    0    0 -0.18914231316E+02 -0.22160190233E+02 -0.25202835434E+02  0.38522786651E+02  0.00000000000E+00 0. -1.
</event>
<event>
 7    1  0.2719869E-009  0.9114136E+02  0.7561462E-02  0.1300111E+00
          1   -1    0    0  501    0  0.00000000000E+00  0.00000000000E+00  0.43600631323E+03  0.43600631323E+03  0.00000000000E+00 0. -1.
         -1   -1    0    0    0  501 -0.00000000000E+00 -0.00000000000E+00 -0.44419700113E+02  0.44419700113E+02  0.00000000000E+00 0.  1.
         25    2    1    2    0    0 -0.66227515779E+02  0.33273694128E+02  0.19140687053E+03  0.24036835840E+03  0.12508850892E+03 0.  0.
          5    1    3    3  502    0  0.10058362995E+02  0.77037781640E+00 -0.14616110609E+02  0.18244649556E+02  0.41800000000E+01 0. -1.
         -5    1    3    3    0  502 -0.76285878774E+02  0.32503316311E+02  0.20602298114E+03  0.22212370884E+03  0.41800000000E+01 0. -1.
        -11    1    1    2    0    0  0.56466909276E+02 -0.30206920142E+01  0.24674158894E+02  0.61696438638E+02  0.00000000000E+00 0.  1.
         11    1    1    2    0    0  0.97606065035E+01 -0.30253002114E+02  0.17550558369E+03  0.17836121631E+03  0.00000000000E+00 0. -1.
</event>
<event>
 7    1  0.2719869E-009  0.1643984E+03  0.7561462E-02  0.1183819E+00
         -2   -1    0    0    0  501 -0.00000000000E+00  0.00000000000E+00  0.16263304833E+02  0.16263304833E+02  0.00000000000E+00 0.  1.
          2   -1    0    0  501    0  0.00000000000E+00 -0.00000000000E+00 -0.22251774550E+04  0.22251774550E+04  0.00000000000E+00 0. -1.
         25    2    1    2    0    0  0.13562423893E+03  0.48677976624E+02 -0.15343091092E+04  0.15461292457E+04  0.12509085584E+03 0.  0.
          5    1    3    3  502    0  0.55830242298E+02  0.59677567980E+02 -0.36584310370E+03  0.37488275100E+03  0.41800000000E+01 0. -1.
         -5    1    3    3    0  502  0.79793996627E+02 -0.10999591356E+02 -0.11684660055E+04  0.11712464947E+04  0.41800000000E+01 0. -1.
        -11    1    1    2    0    0 -0.22449467918E+02 -0.48159966873E+02 -0.16729651610E+03  0.17553200654E+03  0.00000000000E+00 0.  1.
         11    1    1    2    0    0 -0.11317477101E+03 -0.51800975166E+00 -0.50730852488E+03  0.51977950762E+03  0.00000000000E+00 0. -1.
</event>
<event>
 7    1  0.3106618E-009  0.9665135E+02  0.7561462E-02  0.1287500E+00
         -3   -1    0    0    0  501 -0.00000000000E+00  0.00000000000E+00  0.27511991970E+02  0.27511991970E+02  0.00000000000E+00 0.  1.
          3   -1    0    0  501    0  0.00000000000E+00 -0.00000000000E+00 -0.65460984468E+03  0.65460984468E+03  0.00000000000E+00 0. -1.
         25    2    1    2    0    0 -0.22155059400E+02  0.13361870818E+02 -0.15630013958E+03  0.20187772075E+03  0.12512191756E+03 0.  0.
          5    1    3    3  502    0 -0.16086322564E+02  0.54639938434E+02 -0.14866470989E+03  0.15925753047E+03  0.41800000000E+01 0. -1.
         -5    1    3    3    0  502 -0.60687368365E+01 -0.41278067616E+02 -0.76354296900E+01  0.42620190279E+02  0.41800000000E+01 0. -1.
        -11    1    1    2    0    0  0.23932171247E+02 -0.51128160822E+02 -0.25673874398E+03  0.26287187052E+03  0.00000000000E+00 0.  1.
         11    1    1    2    0    0 -0.17771118465E+01  0.37766290003E+02 -0.21405896914E+03  0.21737224537E+03  0.00000000000E+00 0. -1.
</event>
<event>
 7    1  0.2719869E-009  0.1833322E+03  0.7561462E-02  0.1164617E+00
          1   -1    0    0  501    0  0.00000000000E+00  0.00000000000E+00  0.73939008746E+03  0.73939008746E+03  0.00000000000E+00 0. -1.
         -1   -1    0    0    0  501 -0.00000000000E+00 -0.00000000000E+00 -0.56838749441E+02  0.56838749441E+02  0.00000000000E+00 0.  1.
         25    2    1    2    0    0  0.41716985689E+02  0.15363879035E+03  0.22320410746E+03  0.30135485458E+03  0.12509792163E+03 0.  0.
          5    1    3    3  502    0  0.86060963181E+02  0.90741356935E+02  0.14559498827E+03  0.19197879115E+03  0.41800000000E+01 0. -1.
         -5    1    3    3    0  502 -0.44343977491E+02  0.62897433419E+02  0.77609119188E+02  0.10937606343E+03  0.41800000000E+01 0. -1.
        -11    1    1    2    0    0 -0.39107474482E+02 -0.65516891279E+02  0.10544192159E+03  0.13015320370E+03  0.00000000000E+00 0.  1.
         11    1    1    2    0    0 -0.26095112076E+01 -0.88121899076E+02  0.35390530897E+03  0.36472077862E+03  0.00000000000E+00 0. -1.
</event>
<event>
 7    1  0.2719869E-009  0.1012608E+03  0.7561462E-02  0.1277667E+00
         -2   -1    0    0    0  501 -0.00000000000E+00  0.00000000000E+00  0.30639914186E+02  0.30639914186E+02  0.00000000000E+00 0.  1.
          2   -1    0    0  501    0  0.00000000000E+00 -0.00000000000E+00 -0.59455879259E+03  0.59455879259E+03  0.00000000000E+00 0. -1.
         25    2    1    2    0    0  0.13362532975E+02 -0.70785527130E+02 -0.35442250475E+03  0.38269165895E+03  0.12509374811E+03 0.  0.
          5    1    3    3  502    0  0.29872530384E+02 -0.41794875266E+02 -0.36889939695E+02  0.63383907427E+02  0.41800000000E+01 0. -1.
         -5    1    3    3    0  502 -0.16509997409E+02 -0.28990651864E+02 -0.31753256505E+03  0.31930775152E+03  0.41800000000E+01 0. -1.
        -11    1    1    2    0    0 -0.52097370222E+02  0.26266156568E+02 -0.70557495779E+02  0.91555486867E+02  0.00000000000E+00 0.  1.
         11    1    1    2    0    0  0.38734837247E+02  0.44519370562E+02 -0.13893887788E+03  0.15095156096E+03  0.00000000000E+00 0. -1.
</event>
<event>
 7    1  0.2791179E-009  0.7844260E+02  0.7561462E-02  0.1333530E+00
          3   -1    0    0  501    0  0.00000000000E+00  0.00000000000E+00  0.22989838353E+03  0.22989838353E+03  0.00000000000E+00 0. -1.
         -3   -1    0    0    0  501 -0.00000000000E+00 -0.00000000000E+00 -0.70768028356E+02  0.70768028356E+02  0.00000000000E+00 0.  1.
         25    2    1    2    0    0  0.23796233570E+02  0.22016381970E+02  0.19466751832E+02  0.13068443690E+03  0.12509390798E+03 0.  0.
          5    1    3    3  502    0 -0.17654766950E+02  0.16850402277E+01 -0.46565984122E+02  0.50003934184E+02  0.41800000000E+01 0.  1.
         -5    1    3    3    0  502  0.41451000520E+02  0.20331341742E+02  0.66032735954E+02  0.80680502717E+02  0.41800000000E+01 0.  1.
        -11    1    1    2    0    0  0.99044844963E+01  0.29291524255E+02  0.24389476994E+02  0.39381960266E+02  0.00000000000E+00 0.  1.
         11    1    1    2    0    0 -0.33700718067E+02 -0.51307906226E+02  0.11527412634E+03  0.13060001472E+03  0.00000000000E+00 0. -1.
</event>
<event>
 7    1  0.2719869E-009  0.6155834E+02  0.7561462E-02  0.1391406E+00
          2   -1    0    0  501    0  0.00000000000E+00  0.00000000000E+00  0.16739792104E+03  0.16739792104E+03  0.00000000000E+00 0. -1.
         -2   -1    0    0    0  501 -0.00000000000E+00 -0.00000000000E+00 -0.12900482857E+03  0.12900482857E+03  0.00000000000E+00 0.  1.
         25    2    1    2    0    0 -0.12120033534E+02  0.16770031876E+02 -0.76494835922E+02  0.14807684022E+03  0.12508861461E+03 0.  0.
          5    1    3    3  502    0 -0.20635480866E+01 -0.38818910652E+01 -0.10838440595E+03  0.10855403798E+03  0.41800000000E+01 0. -1.
         -5    1    3    3    0  502 -0.10056485448E+02  0.20651922941E+02  0.31889570025E+02  0.39522802242E+02  0.41800000000E+01 0. -1.
        -11    1    1    2    0    0 -0.30072301013E+02  0.21318029712E+02  0.48774118136E+02  0.61136865138E+02  0.00000000000E+00 0. -1.
         11    1    1    2    0    0  0.42192334547E+02 -0.38088061588E+02  0.66113810260E+02  0.87189044250E+02  0.00000000000E+00 0.  1.
</event>
<event>
 7    1  0.2719869E-009  0.1228949E+03  0.7561462E-02  0.1238396E+00
         -1   -1    0    0    0  501 -0.00000000000E+00  0.00000000000E+00  0.29657817487E+02  0.29657817487E+02  0.00000000000E+00 0.  1.
          1   -1    0    0  501    0  0.00000000000E+00 -0.00000000000E+00 -0.53170196985E+03  0.53170196985E+03  0.00000000000E+00 0. -1.
         25    2    1    2    0    0  0.21050809455E+02 -0.49977105288E+02 -0.32054835104E+03  0.34833679834E+03  0.12508569898E+03 0.  0.
          5    1    3    3  502    0 -0.38481474071E+02 -0.63005790335E+02 -0.19917922594E+03  0.21246267886E+03  0.41800000000E+01 0. -1.
         -5    1    3    3    0  502  0.59532283526E+02  0.13028685047E+02 -0.12136912510E+03  0.13587411948E+03  0.41800000000E+01 0. -1.
        -11    1    1    2    0    0  0.27520115871E+02  0.55427435287E+02 -0.88875074596E+02  0.10829744339E+03  0.00000000000E+00 0.  1.
         11    1    1    2    0    0 -0.48570925326E+02 -0.54503299992E+01 -0.92620726721E+02  0.10472554561E+03  0.00000000000E+00 0. -1.
</event>
<event>
 7    1  0.2719869E-009  0.1436024E+03  0.7561462E-02  0.1208562E+00
         -2   -1    0    0    0  501 -0.00000000000E+00  0.00000000000E+00  0.44405147342E+02  0.44405147342E+02  0.00000000000E+00 0.  1.
          2   -1    0    0  501    0  0.00000000000E+00 -0.00000000000E+00 -0.62698911496E+03  0.62698911496E+03  0.00000000000E+00 0. -1.
         25    2    1    2    0    0 -0.79644342309E+02  0.97141604574E+02 -0.27913922688E+03  0.33067358493E+03  0.12508636692E+03 0.  0.
          5    1    3    3  502    0 -0.85095571572E+02  0.82749774594E+02 -0.11354376832E+03  0.16431202397E+03  0.41800000000E+01 0.  1.
         -5    1    3    3    0  502  0.54512292633E+01  0.14391829980E+02 -0.16559545856E+03  0.16636156097E+03  0.41800000000E+01 0.  1.
        -11    1    1    2    0    0  0.40615050978E+01 -0.73043441677E+02 -0.11550114549E+03  0.13671998685E+03  0.00000000000E+00 0.  1.
         11    1    1    2    0    0  0.75582837211E+02 -0.24098162897E+02 -0.18794359525E+03  0.20400069052E+03  0.00000000000E+00 0. -1.
</event>
<event>
 7    1  0.2719869E-009  0.1297308E+03  0.7561462E-02  0.1227856E+00
         -4   -1    0    0    0  501 -0.00000000000E+00  0.00000000000E+00  0.38887526016E+02  0.38887526016E+02  0.00000000000E+00 0.  1.
          4   -1    0    0  501    0  0.00000000000E+00 -0.00000000000E+00 -0.57132555459E+03  0.57132555459E+03  0.00000000000E+00 0. -1.
         25    2    1    2    0    0 -0.10773719826E+02  0.98980929898E+02 -0.32979441577E+03  0.36650433539E+03  0.12509106148E+03 0.  0.
          5    1    3    3  502    0 -0.50113523316E+02  0.10814168486E+03 -0.24762404124E+03  0.27484746210E+03  0.41800000000E+01 0.  1.
         -5    1    3    3    0  502  0.39339803490E+02 -0.91607549663E+01 -0.82170374532E+02  0.91656873288E+02  0.41800000000E+01 0.  1.
        -11    1    1    2    0    0  0.10098294776E+02 -0.85617392254E+02 -0.21100030963E+03  0.22793298155E+03  0.00000000000E+00 0. -1.
         11    1    1    2    0    0  0.67542505036E+00 -0.13363537643E+02  0.83566968282E+01  0.15775763665E+02  0.00000000000E+00 0.  1.
</event>
<event>
 7    1  0.2719869E-009  0.8896955E+02  0.7561462E-02  0.1305366E+00
          4   -1    0    0  501    0  0.00000000000E+00  0.00000000000E+00  0.36205349239E+02  0.36205349239E+02  0.00000000000E+00 0. -1.
         -4   -1    0    0    0  501 -0.00000000000E+00 -0.00000000000E+00 -0.45703241393E+03  0.45703241393E+03  0.00000000000E+00 0.  1.
         25    2    1    2    0    0  0.60297904996E+02  0.24538377361E+02 -0.19068104608E+03  0.23716023774E+03  0.12509095779E+03 0.  0.
          5    1    3    3  502    0 -0.23771346156E+02  0.83743530416E+01 -0.12914296327E+03  0.13164567615E+03  0.41800000000E+01 0. -1.
         -5    1    3    3    0  502  0.84069251151E+02  0.16164024320E+02 -0.61538082811E+02  0.10551456159E+03  0.41800000000E+01 0. -1.
        -11    1    1    2    0    0 -0.37850962636E+02 -0.77158866545E+01 -0.22407066927E+03  0.22737610936E+03  0.00000000000E+00 0.  1.
         11    1    1    2    0    0 -0.22446942360E+02 -0.16822490707E+02 -0.60753493392E+01  0.28701416071E+02  0.00000000000E+00 0. -1.
</event>
<event>
 7    1  0.2719869E-009  0.1298624E+03  0.7561462E-02  0.1227660E+00
         -2   -1    0    0    0  501 -0.00000000000E+00  0.00000000000E+00  0.35732986875E+02  0.35732986875E+02  0.00000000000E+00 0.  1.
          2   -1    0    0  501    0  0.00000000000E+00 -0.00000000000E+00 -0.51181732731E+03  0.51181732731E+03  0.00000000000E+00 0. -1.
         25    2    1    2    0    0  0.35021761108E+01 -0.80654039103E+02 -0.24450369879E+03  0.28626192119E+03  0.12508592861E+03 0.  0.
          5    1    3    3  502    0  0.63403168930E+02 -0.48657589334E+02 -0.14685732522E+03  0.16724852526E+03  0.41800000000E+01 0. -1.
         -5    1    3    3    0  502 -0.59900992819E+02 -0.31996449769E+02 -0.97646373576E+02  0.11901339593E+03  0.41800000000E+01 0. -1.
        -11    1    1    2    0    0 -0.34882037526E+02  0.70524935505E+02 -0.20277360974E+03  0.21750324107E+03  0.00000000000E+00 0. -1.
         11    1    1    2    0    0  0.31379861416E+02  0.10129103598E+02 -0.28807031903E+02  0.43785151927E+02  0.00000000000E+00 0.  1.
</event>
<event>
 7    1  0.2719869E-009  0.1124262E+03  0.7561462E-02  0.1256142E+00
         -1   -1    0    0    0  501 -0.00000000000E+00  0.00000000000E+00  0.31237347921E+02  0.31237347921E+02  0.00000000000E+00 0.  1.
          1   -1    0    0  501    0  0.00000000000E+00 -0.00000000000E+00 -0.47387147625E+03  0.47387147625E+03  0.00000000000E+00 0. -1.
         25    2    1    2    0    0 -0.24518950665E+02 -0.41361985544E+02 -0.21091732282E+03  0.24988951247E+03  0.12508660435E+03 0.  0.
          5    1    3    3  502    0 -0.59607672534E+02  0.49347360517E+01 -0.16552100868E+03  0.17604574110E+03  0.41800000000E+01 0. -1.
         -5    1    3    3    0  502  0.35088721869E+02 -0.46296721595E+02 -0.45396314142E+02  0.73843771373E+02  0.41800000000E+01 0. -1.
        -11    1    1    2    0    0 -0.35495813002E+02  0.27897521743E+02 -0.10800673461E+03  0.11706271474E+03  0.00000000000E+00 0. -1.
         11    1    1    2    0    0  0.60014763666E+02  0.13464463800E+02 -0.12371007090E+03  0.13815659697E+03  0.00000000000E+00 0.  1.
</event>
<event>
 7    1  0.2719869E-009  0.1125055E+03  0.7561462E-02  0.1255999E+00
          1   -1    0    0  501    0  0.00000000000E+00  0.00000000000E+00  0.76011711018E+03  0.76011711018E+03  0.00000000000E+00 0. -1.
         -1   -1    0    0    0  501 -0.00000000000E+00 -0.00000000000E+00 -0.19209998425E+02  0.19209998425E+02  0.00000000000E+00 0.  1.
         25    2    1    2    0    0 -0.54625526087E+02  0.52379223425E+01  0.41057935893E+03  0.43270580719E+03  0.12509005420E+03 0.  0.
          5    1    3    3  502    0  0.18989778492E+02 -0.40475822835E+02  0.19954351057E+03  0.20453358876E+03  0.41800000000E+01 0. -1.
         -5    1    3    3    0  502 -0.73615304579E+02  0.45713745178E+02  0.21103584836E+03  0.22817221842E+03  0.41800000000E+01 0. -1.
        -11    1    1    2    0    0  0.35962483100E+02  0.34258300704E+02  0.94253848458E+02  0.10653975458E+03  0.00000000000E+00 0.  1.
         11    1    1    2    0    0  0.18663042987E+02 -0.39496223047E+02  0.23607390436E+03  0.24008154683E+03  0.00000000000E+00 0. -1.
</event>
<event>
 7    1  0.2719869E-009  0.1291695E+03  0.7561462E-02  0.1228693E+00
         -2   -1    0    0    0  501 -0.00000000000E+00  0.00000000000E+00  0.26148856369E+03  0.26148856369E+03  0.00000000000E+00 0.  1.
          2   -1    0    0  501    0  0.00000000000E+00 -0.00000000000E+00 -0.70639185283E+02  0.70639185283E+02  0.00000000000E+00 0. -1.
         25    2    1    2    0    0 -0.78804571584E+02  0.27856126777E+01  0.79114458794E+02  0.16770530352E+03  0.12509217041E+03 0.  0.
          5    1    3    3  502    0 -0.14682522974E+02  0.56504902817E+02  0.10569653152E+02  0.59477478855E+02  0.41800000000E+01 0. -1.
         -5    1    3    3    0  502 -0.64122048610E+02 -0.53719290139E+02  0.68544805642E+02  0.10822782466E+03  0.41800000000E+01 0. -1.
        -11    1    1    2    0    0  0.95921574945E+02  0.72776900851E+01  0.72530584297E+02  0.12047654947E+03  0.00000000000E+00 0.  1.
         11    1    1    2    0    0 -0.17117003361E+02 -0.10063302763E+02  0.39204335315E+02  0.43945895986E+02  0.00000000000E+00 0. -1.
</event>
<event>
 7    1  0.2719869E-009  0.1038139E+03  0.7561462E-02  0.1272474E+00
         -1   -1    0    0    0  501 -0.00000000000E+00  0.00000000000E+00  0.88818260544E+02  0.88818260544E+02  0.00000000000E+00 0.  1.
          1   -1    0    0  501    0  0.00000000000E+00 -0.00000000000E+00 -0.21603798138E+03  0.21603798138E+03  0.00000000000E+00 0. -1.
         25    2    1    2    0    0 -0.84294643015E+02  0.21016777334E+02 -0.93651990725E+02  0.17878969793E+03  0.12509104263E+03 0.  0.
          5    1    3    3  502    0 -0.98416171676E+02  0.86357718559E+01 -0.17719809478E+02  0.10045786903E+03  0.41800000000E+01 0.  1.
         -5    1    3    3    0  502  0.14121528661E+02  0.12381005478E+02 -0.75932181248E+02  0.78331828891E+02  0.41800000000E+01 0.  1.
        -11    1    1    2    0    0  0.49573313039E+02 -0.23162092913E+02  0.23244265216E+02  0.59449909834E+02  0.00000000000E+00 0.  1.
         11    1    1    2    0    0  0.34721329976E+02  0.21453155786E+01 -0.56811995323E+02  0.66616634160E+02  0.00000000000E+00 0. -1.
</event>
<event>
 7    1  0.2719869E-009  0.1120404E+03  0.7561462E-02  0.1256837E+00
          2   -1    0    0  501    0  0.00000000000E+00  0.00000000000E+00  0.13170939309E+03  0.13170939309E+03  0.00000000000E+00 0. -1.
         -2   -1    0    0    0  501 -0.00000000000E+00 -0.00000000000E+00 -0.17919753171E+03  0.17919753171E+03  0.00000000000E+00 0.  1.
         25    2    1    2    0    0 -0.22798823258E+02  0.10391216373E+03 -0.47740487413E+02  0.17101065021E+03  0.12509182321E+03 0.  0.
          5    1    3    3  502    0 -0.12391913813E+02  0.48972492047E+02 -0.88294362152E+02  0.10180977995E+03  0.41800000000E+01 0.  1.
         -5    1    3    3    0  502 -0.10406909446E+02  0.54939671680E+02  0.40553874739E+02  0.69200870261E+02  0.41800000000E+01 0.  1.
        -11    1    1    2    0    0 -0.13406608970E+02 -0.54119429556E+02 -0.37947416262E+02  0.67443726325E+02  0.00000000000E+00 0.  1.
         11    1    1    2    0    0  0.36205432229E+02 -0.49792734171E+02  0.38199765062E+02  0.72452548264E+02  0.00000000000E+00 0. -1.
</event>
<event>
 7    1  0.2719869E-009  0.1620664E+03  0.7561462E-02  0.1186383E+00
          1   -1    0    0  501    0  0.00000000000E+00  0.00000000000E+00  0.29190191625E+03  0.29190191625E+03  0.00000000000E+00 0. -1.
         -1   -1    0    0    0  501 -0.00000000000E+00 -0.00000000000E+00 -0.13057407832E+03  0.13057407832E+03  0.00000000000E+00 0.  1.
         25    2    1    2    0    0 -0.55122979418E+02 -0.13087619395E+03  0.16849464316E+03  0.25338746025E+03  0.12509052415E+03 0.  0.
          5    1    3    3  502    0 -0.76838427137E+02 -0.45544046940E+02  0.12859079219E+03  0.15662524807E+03  0.41800000000E+01 0. -1.
         -5    1    3    3    0  502  0.21715447720E+02 -0.85332147011E+02  0.39903850979E+02  0.96762212181E+02  0.41800000000E+01 0. -1.
        -11    1    1    2    0    0  0.32795861650E+02  0.11386219997E+03 -0.40764680290E+02  0.12530733531E+03  0.00000000000E+00 0.  1.
         11    1    1    2    0    0  0.22327117768E+02  0.17013993986E+02  0.33597875056E+02  0.43781199018E+02  0.00000000000E+00 0. -1.
</event>
<event>
 7    1  0.2719869E-009  0.2168238E+03  0.7561462E-02  0.1136273E+00
          2   -1    0    0  501    0  0.00000000000E+00  0.00000000000E+00  0.80309470875E+03  0.80309470875E+03  0.00000000000E+00 0.  1.
         -2   -1    0    0    0  501 -0.00000000000E+00 -0.00000000000E+00 -0.63807570953E+02  0.63807570953E+02  0.00000000000E+00 0. -1.
         25    2    1    2    0    0  0.14238680073E+03 -0.13390117808E+03  0.34579249015E+03  0.41644130137E+03  0.12508950688E+03 0.  0.
          5    1    3    3  502    0  0.57121689473E+02 -0.13457392591E+03  0.20590684103E+03  0.25256311791E+03  0.41800000000E+01 0. -1.
         -5    1    3    3    0  502  0.85265111256E+02  0.67274783106E+00  0.13988564912E+03  0.16387818346E+03  0.41800000000E+01 0. -1.
        -11    1    1    2    0    0 -0.11304308586E+03  0.73404331558E+02  0.33588120492E+03  0.36191590041E+03  0.00000000000E+00 0.  1.
         11    1    1    2    0    0 -0.29343714868E+02  0.60496846519E+02  0.57613442732E+02  0.88545077924E+02  0.00000000000E+00 0. -1.
</event>
<event>
 7    1  0.2719869E-009  0.1013527E+03  0.7561462E-02  0.1277477E+00
         -2   -1    0    0    0  501 -0.00000000000E+00  0.00000000000E+00  0.74736777043E+02  0.74736777043E+02  0.00000000000E+00 0.  1.
          2   -1    0    0  501    0  0.00000000000E+00 -0.00000000000E+00 -0.29760369525E+03  0.29760369525E+03  0.00000000000E+00 0. -1.
         25    2    1    2    0    0  0.52650721759E+02  0.30423564135E+02 -0.22256975880E+03  0.26245479867E+03  0.12509009576E+03 0.  0.
          5    1    3    3  502    0  0.65774680519E+02  0.39027674749E+02 -0.23155497601E+03  0.24389474637E+03  0.41800000000E+01 0. -1.
         -5    1    3    3    0  502 -0.13123958760E+02 -0.86041106141E+01  0.89852172112E+01  0.18560052299E+02  0.41800000000E+01 0. -1.
        -11    1    1    2    0    0 -0.35209332037E+02 -0.63424915686E+02  0.69014952260E+00  0.72545801385E+02  0.00000000000E+00 0.  1.
         11    1    1    2    0    0 -0.17441389722E+02  0.33001351551E+02 -0.98730893185E+00  0.37339872236E+02  0.00000000000E+00 0. -1.
</event>
<event>
 6    1  0.2719869E-009  0.8290125E+02  0.7561462E-02  0.1321014E+00
         -1   -1    0    0    0  501 -0.00000000000E+00  0.00000000000E+00  0.24949027942E+02  0.24949027942E+02  0.00000000000E+00 0.  1.
          1   -1    0    0  501    0  0.00000000000E+00 -0.00000000000E+00 -0.16144029624E+04  0.16144029624E+04  0.00000000000E+00 0. -1.
          5    1    1    2  502    0 -0.14939097261E+02 -0.51065892077E+02 -0.23262140388E+03  0.23866522977E+03  0.41800000000E+01 0.  1.
         -5    1    1    2    0  502 -0.35329972157E+01  0.53083347002E+01 -0.12531038810E+04  0.12531270764E+04  0.41800000000E+01 0.  1.
        -11    1    1    2    0    0  0.43479491826E+02  0.61455919680E+02 -0.77884326318E+02  0.10832019460E+03  0.00000000000E+00 0.  1.
         11    1    1    2    0    0 -0.25007397349E+02 -0.15698362303E+02 -0.25844323274E+02  0.39239489634E+02  0.00000000000E+00 0. -1.
</event>
<event>
 7    1  0.2719869E-009  0.1524913E+03  0.7561462E-02  0.1197445E+00
          2   -1    0    0  501    0  0.00000000000E+00  0.00000000000E+00  0.77739360750E+02  0.77739360750E+02  0.00000000000E+00 0. -1.
         -2   -1    0    0    0  501 -0.00000000000E+00 -0.00000000000E+00 -0.33917656447E+03  0.33917656447E+03  0.00000000000E+00 0.  1.
         25    2    1    2    0    0  0.58346648003E+02 -0.10535934327E+03 -0.14843956035E+03  0.22844369259E+03  0.12508914846E+03 0.  0.
          5    1    3    3  502    0 -0.26906033666E+02 -0.23539088747E+02 -0.89217272165E+02  0.96204040452E+02  0.41800000000E+01 0.  1.
         -5    1    3    3    0  502  0.85252681668E+02 -0.81820254518E+02 -0.59222288184E+02  0.13223965214E+03  0.41800000000E+01 0.  1.
        -11    1    1    2    0    0 -0.83021264600E+02  0.78083298811E+02 -0.88185684273E+02  0.14410498548E+03  0.00000000000E+00 0. -1.
         11    1    1    2    0    0  0.24674616597E+02  0.27276044455E+02 -0.24811959099E+02  0.44367247150E+02  0.00000000000E+00 0.  1.
</event>
<event>
 7    1  0.2719869E-009  0.2419630E+03  0.7561462E-02  0.1118492E+00
         -2   -1    0    0    0  501 -0.00000000000E+00  0.00000000000E+00  0.38123124588E+03  0.38123124588E+03  0.00000000000E+00 0. -1.
          2   -1    0    0  501    0  0.00000000000E+00 -0.00000000000E+00 -0.16828765494E+03  0.16828765494E+03  0.00000000000E+00 0.  1.
         25    2    1    2    0    0 -0.20843782184E+03  0.85580456897E+02  0.17167958400E+03  0.30966418853E+03  0.12509072675E+03 0.  0.
          5    1    3    3  502    0 -0.17256030313E+03  0.11182439027E+03  0.10916706785E+03  0.23284474136E+03  0.41800000000E+01 0. -1.
         -5    1    3    3    0  502 -0.35877518705E+02 -0.26243933374E+02  0.62512516155E+02  0.76819447169E+02  0.41800000000E+01 0. -1.
        -11    1    1    2    0    0  0.13653721292E+03 -0.86632542562E+02  0.45007631159E+02  0.16784902384E+03  0.00000000000E+00 0. -1.
         11    1    1    2    0    0  0.71900608920E+02  0.10520856654E+01 -0.37436242209E+01  0.72005688453E+02  0.00000000000E+00 0.  1.
</event>
<event>
 7    1  0.2719869E-009  0.1512377E+03  0.7561462E-02  0.1198960E+00
          2   -1    0    0  501    0  0.00000000000E+00  0.00000000000E+00  0.18926729894E+04  0.18926729894E+04  0.00000000000E+00 0. -1.
         -2   -1    0    0    0  501 -0.00000000000E+00 -0.00000000000E+00 -0.17178732007E+02  0.17178732007E+02  0.00000000000E+00 0.  1.
         25    2    1    2    0    0 -0.10194718769E+03 -0.94774006213E+02  0.11940359841E+04  0.12086127801E+04  0.12509028618E+03 0.  0.
          5    1    3    3  502    0 -0.91951658865E+02 -0.56888800838E+02  0.42469429388E+03  0.43826265970E+03  0.41800000000E+01 0. -1.
         -5    1    3    3    0  502 -0.99955288217E+01 -0.37885205375E+02  0.76934169019E+03  0.77035012043E+03  0.41800000000E+01 0. -1.
        -11    1    1    2    0    0  0.28596873594E+02  0.72920015423E+02  0.22115384245E+03  0.23461485856E+03  0.00000000000E+00 0.  1.
         11    1    1    2    0    0  0.73350314093E+02  0.21853990790E+02  0.46030443090E+03  0.46662408274E+03  0.00000000000E+00 0. -1.
</event>
<event>
 7    1  0.2719869E-009  0.1600338E+03  0.7561462E-02  0.1188659E+00
          2   -1    0    0  501    0  0.00000000000E+00  0.00000000000E+00  0.10303880335E+03  0.10303880335E+03  0.00000000000E+00 0. -1.
         -2   -1    0    0    0  501 -0.00000000000E+00 -0.00000000000E+00 -0.32863066501E+03  0.32863066501E+03  0.00000000000E+00 0.  1.
         25    2    1    2    0    0  0.11714925447E+03  0.56311248853E+02 -0.35844504398E+02  0.18392068296E+03  0.12508830703E+03 0.  0.
          5    1    3    3  502    0  0.11270849234E+03  0.91119624650E+02 -0.30707033207E+02  0.14821060869E+03  0.41800000000E+01 0. -1.
         -5    1    3    3    0  502  0.44407621344E+01 -0.34808375797E+02 -0.51374711913E+01  0.35710074267E+02  0.41800000000E+01 0. -1.
        -11    1    1    2    0    0 -0.21593552748E+02 -0.36098899802E+02 -0.12155787559E+03  0.12863020332E+03  0.00000000000E+00 0.  1.
         11    1    1    2    0    0 -0.95555701721E+02 -0.20212349051E+02 -0.68189481673E+02  0.11911858208E+03  0.00000000000E+00 0. -1.
</event>
<event>
 7    1  0.2719869E-009  0.1799523E+03  0.7561462E-02  0.1167849E+00
          4   -1    0    0  501    0  0.00000000000E+00  0.00000000000E+00  0.11539554652E+04  0.11539554652E+04  0.00000000000E+00 0. -1.
         -4   -1    0    0    0  501 -0.00000000000E+00 -0.00000000000E+00 -0.36447991930E+02  0.36447991930E+02  0.00000000000E+00 0.  1.
         25    2    1    2    0    0  0.12289704781E+03 -0.98993700679E+02  0.78081596570E+03  0.80636588928E+03  0.12509571517E+03 0.  0.
          5    1    3    3  502    0 -0.68941093214E+01  0.21934282885E+02  0.11191481445E+03  0.11432864734E+03  0.41800000000E+01 0. -1.
         -5    1    3    3    0  502  0.12979115713E+03 -0.12092798356E+03  0.66890115125E+03  0.69203724194E+03  0.41800000000E+01 0. -1.
        -11    1    1    2    0    0 -0.22172658837E+02  0.86983068558E+01  0.30449854691E+01  0.24011648810E+02  0.00000000000E+00 0. -1.
         11    1    1    2    0    0 -0.10072438897E+03  0.90295393823E+02  0.33364652213E+03  0.36002591908E+03  0.00000000000E+00 0.  1.
</event>
<event>
 7    1  0.2719869E-009  0.9152073E+02  0.7561462E-02  0.1299210E+00
          1   -1    0    0  501    0  0.00000000000E+00  0.00000000000E+00  0.64075988245E+03  0.64075988245E+03  0.00000000000E+00 0. -1.
         -1   -1    0    0    0  501 -0.00000000000E+00 -0.00000000000E+00 -0.35291620075E+02  0.35291620075E+02  0.00000000000E+00 0.  1.
         25    2    1    2    0    0  0.36751949215E+02 -0.27372929539E+02  0.40868968076E+03  0.42985385432E+03  0.12508836026E+03 0.  0.
          5    1    3    3  502    0 -0.12548983481E+02  0.17350636729E+02  0.30984642880E+03  0.31061359182E+03  0.41800000000E+01 0.  1.
         -5    1    3    3    0  502  0.49300932695E+02 -0.44723566267E+02  0.98843251958E+02  0.11924026250E+03  0.41800000000E+01 0.  1.
        -11    1    1    2    0    0 -0.53888065519E+02 -0.87064756537E+01  0.10376683454E+02  0.55564394023E+02  0.00000000000E+00 0.  1.
         11    1    1    2    0    0  0.17136116304E+02  0.36079405192E+02  0.18640189817E+03  0.19063325419E+03  0.00000000000E+00 0. -1.
</event>
<event>
 7    1  0.2719869E-009  0.1059255E+03  0.7561462E-02  0.1268307E+00
          2   -1    0    0  501    0  0.00000000000E+00  0.00000000000E+00  0.36685230528E+03  0.36685230528E+03  0.00000000000E+00 0. -1.
         -2   -1    0    0    0  501 -0.00000000000E+00 -0.00000000000E+00 -0.32433409279E+02  0.32433409279E+02  0.00000000000E+00 0.  1.
         25    2    1    2    0    0  0.14911965770E+02 -0.13038327993E+02  0.24459630003E+03  0.27544020969E+03  0.12509034498E+03 0.  0.
          5    1    3    3  502    0 -0.55268278129E+02 -0.95674305301E+01  0.11059524660E+03  0.12407618331E+03  0.41800000000E+01 0. -1.
         -5    1    3    3    0  502  0.70180243899E+02 -0.34708974625E+01  0.13400105343E+03  0.15136402638E+03  0.41800000000E+01 0. -1.
        -11    1    1    2    0    0 -0.46047324441E+02 -0.91948305932E+01  0.47445378467E+02  0.66753014432E+02  0.00000000000E+00 0.  1.
         11    1    1    2    0    0  0.31135358672E+02  0.22233158586E+02  0.42377217502E+02  0.57092490430E+02  0.00000000000E+00 0. -1.
</event>
<event>
 7    1  0.3286226E-009  0.1170554E+03  0.7561462E-02  0.1248035E+00
         -2   -1    0    0    0  501 -0.00000000000E+00  0.00000000000E+00  0.56676882009E+02  0.56676882009E+02  0.00000000000E+00 0.  1.
          2   -1    0    0  501    0  0.00000000000E+00 -0.00000000000E+00 -0.32256713021E+03  0.32256713021E+03  0.00000000000E+00 0. -1.
         25    2    1    2    0    0 -0.32868981973E+01 -0.59602871395E+02 -0.22169043453E+03  0.26145455634E+03  0.12509408574E+03 0.  0.
          5    1    3    3  502    0 -0.63849434914E+02 -0.32693002935E+02 -0.12445447090E+03  0.14370793474E+03  0.41800000000E+01 0. -1.
         -5    1    3    3    0  502  0.60562536716E+02 -0.26909868459E+02 -0.97235963631E+02  0.11774662160E+03  0.41800000000E+01 0. -1.
        -11    1    1    2    0    0  0.36845909562E+02  0.47638393599E+02 -0.53945378319E+02  0.80852590794E+02  0.00000000000E+00 0. -1.
         11    1    1    2    0    0 -0.33559011365E+02  0.11964477796E+02  0.97455646453E+01  0.36936865094E+02  0.00000000000E+00 0.  1.
</event>
<event>
 7    1  0.2719869E-009  0.8092185E+02  0.7561462E-02  0.1326456E+00
         -2   -1    0    0    0  501 -0.00000000000E+00  0.00000000000E+00  0.43554997370E+03  0.43554997370E+03  0.00000000000E+00 0.  1.
          2   -1    0    0  501    0  0.00000000000E+00 -0.00000000000E+00 -0.38718255369E+02  0.38718255369E+02  0.00000000000E+00 0. -1.
         25    2    1    2    0    0 -0.11427595367E+02  0.25435616206E+01  0.34943629550E+03  0.37133823167E+03  0.12509715441E+03 0.  0.
          5    1    3    3  502    0  0.24353893909E+02 -0.33185943266E+02  0.39252344161E+02  0.57031902485E+02  0.41800000000E+01 0. -1.
         -5    1    3    3    0  502 -0.35781489276E+02  0.35729504887E+02  0.31018395134E+03  0.31430632918E+03  0.41800000000E+01 0. -1.
        -11    1    1    2    0    0 -0.24029273205E+02  0.16819418485E+02  0.54518206154E+02  0.61907460061E+02  0.00000000000E+00 0.  1.
         11    1    1    2    0    0  0.35456868572E+02 -0.19362980106E+02 -0.71227833264E+01  0.41022537340E+02  0.00000000000E+00 0. -1.
</event>
<event>
 7    1  0.2719869E-009  0.9459087E+02  0.7561462E-02  0.1292100E+00
          2   -1    0    0  501    0  0.00000000000E+00  0.00000000000E+00  0.62913281107E+02  0.62913281107E+02  0.00000000000E+00 0. -1.
         -2   -1    0    0    0  501 -0.00000000000E+00 -0.00000000000E+00 -0.22450680984E+03  0.22450680984E+03  0.00000000000E+00 0.  1.
         25    2    1    2    0    0 -0.39290947970E+02  0.21414814986E+02 -0.10227871756E+03  0.16766520719E+03  0.12509321621E+03 0.  0.
          5    1    3    3  502    0 -0.64145519973E+01  0.48422332141E+02  0.77407403882E+01  0.49631242066E+02  0.41800000000E+01 0. -1.
         -5    1    3    3    0  502 -0.32876395973E+02 -0.27007517155E+02 -0.11001945795E+03  0.11803396513E+03  0.41800000000E+01 0. -1.
        -11    1    1    2    0    0 -0.24093099868E+02  0.10685992961E+02 -0.36719057147E+02  0.45199082563E+02  0.00000000000E+00 0.  1.
         11    1    1    2    0    0  0.63384047838E+02 -0.32100807946E+02 -0.22595754017E+02  0.74555801187E+02  0.00000000000E+00 0. -1.
</event>
<event>
 7    1  0.2719869E-009  0.2181150E+03  0.7561462E-02  0.1135296E+00
         -2   -1    0    0    0  501 -0.00000000000E+00  0.00000000000E+00  0.91627315977E+02  0.91627315977E+02  0.00000000000E+00 0. -1.
          2   -1    0    0  501    0  0.00000000000E+00 -0.00000000000E+00 -0.63460882351E+03  0.63460882351E+03  0.00000000000E+00 0.  1.
         25    2    1    2    0    0 -0.14248271620E+03 -0.13063127939E+03 -0.13772600524E+03  0.26828435750E+03  0.12506873466E+03 0.  0.
          5    1    3    3  502    0 -0.73281884021E+02  0.93815931926E+01 -0.44108915362E+02  0.86147069775E+02  0.41800000000E+01 0.  1.
         -5    1    3    3    0  502 -0.69200832176E+02 -0.14001287258E+03 -0.93617089878E+02  0.18213728773E+03  0.41800000000E+01 0.  1.
        -11    1    1    2    0    0  0.90739620638E+02  0.34985422721E+02 -0.25132101829E+03  0.26948082083E+03  0.00000000000E+00 0.  1.
         11    1    1    2    0    0  0.51743095559E+02  0.95645856670E+02 -0.15393448400E+03  0.18847096116E+03  0.00000000000E+00 0. -1.
</event>
<event>
 7    1  0.2719869E-009  0.2097831E+03  0.7561462E-02  0.1141738E+00
         -1   -1    0    0    0  501 -0.00000000000E+00  0.00000000000E+00  0.81956481870E+03  0.81956481870E+03  0.00000000000E+00 0.  1.
          1   -1    0    0  501    0  0.00000000000E+00 -0.00000000000E+00 -0.63247361873E+02  0.63247361873E+02  0.00000000000E+00 0. -1.
         25    2    1    2    0    0 -0.13101475597E+03 -0.14795059544E+03  0.33625718227E+03  0.40959923744E+03  0.12509355583E+03 0.  0.
          5    1    3    3  502    0  0.80486451139E+01  0.84235925694E+01 -0.12695507318E+01  0.12442739208E+02  0.41800000000E+01 0.  1.
         -5    1    3    3    0  502 -0.13906340109E+03 -0.15637418801E+03  0.33752673300E+03  0.39715649824E+03  0.41800000000E+01 0.  1.
        -11    1    1    2    0    0  0.11063397668E+03  0.13019017676E+03  0.41033745496E+03  0.44448417954E+03  0.00000000000E+00 0.  1.
         11    1    1    2    0    0  0.20380779293E+02  0.17760418679E+02  0.97228195925E+01  0.28728763584E+02  0.00000000000E+00 0. -1.
</event>
<event>
 7    1  0.2719869E-009  0.1400526E+03  0.7561462E-02  0.1213258E+00
         -2   -1    0    0    0  501 -0.00000000000E+00  0.00000000000E+00  0.29026344567E+02  0.29026344567E+02  0.00000000000E+00 0. -1.
          2   -1    0    0  501    0  0.00000000000E+00 -0.00000000000E+00 -0.10337169251E+04  0.10337169251E+04  0.00000000000E+00 0.  1.
         25    2    1    2    0    0 -0.47465624145E+02  0.96732619932E+02 -0.77764026209E+03  0.79497275589E+03  0.12508844926E+03 0.  0.
          5    1    3    3  502    0 -0.82761776897E+02  0.37994184962E+02 -0.53892783830E+03  0.54658371463E+03  0.41800000000E+01 0. -1.
         -5    1    3    3    0  502  0.35296152752E+02  0.58738434969E+02 -0.23871242379E+03  0.24838904125E+03  0.41800000000E+01 0. -1.
        -11    1    1    2    0    0  0.22731660617E+02 -0.25061475875E+01 -0.12349315237E+03  0.12559286545E+03  0.00000000000E+00 0.  1.
         11    1    1    2    0    0  0.24733963528E+02 -0.94226472344E+02 -0.10355716609E+03  0.14217764835E+03  0.00000000000E+00 0. -1.
</event>
<event>
 7    1  0.2719869E-009  0.1899718E+03  0.7561462E-02  0.1158487E+00
          2   -1    0    0  501    0  0.00000000000E+00  0.00000000000E+00  0.20340927325E+03  0.20340927325E+03  0.00000000000E+00 0. -1.
         -2   -1    0    0    0  501 -0.00000000000E+00 -0.00000000000E+00 -0.27780209612E+03  0.27780209612E+03  0.00000000000E+00 0.  1.
         25    2    1    2    0    0 -0.13955718508E+03 -0.71974765569E+02 -0.18279511296E+03  0.27151083893E+03  0.12508999779E+03 0.  0.
          5    1    3    3  502    0  0.37353232738E+01 -0.56058594269E+02 -0.56675369789E+02  0.79913006276E+02  0.41800000000E+01 0. -1.
         -5    1    3    3    0  502 -0.14329250836E+03 -0.15916171301E+02 -0.12611974318E+03  0.19159783266E+03  0.41800000000E+01 0. -1.
        -11    1    1    2    0    0  0.61426125138E+02  0.79962855905E+02  0.64996769892E+02  0.11996585877E+03  0.00000000000E+00 0. -1.
         11    1    1    2    0    0  0.78131059945E+02 -0.79880903357E+01  0.43405520197E+02  0.89734671666E+02  0.00000000000E+00 0.  1.
</event>
<event>
 7    1  0.2719869E-009  0.1299470E+03  0.7561462E-02  0.1227534E+00
         -2   -1    0    0    0  501 -0.00000000000E+00  0.00000000000E+00  0.86979180453E+02  0.86979180453E+02  0.00000000000E+00 0. -1.
          2   -1    0    0  501    0  0.00000000000E+00 -0.00000000000E+00 -0.26163647596E+03  0.26163647596E+03  0.00000000000E+00 0.  1.
         25    2    1    2    0    0 -0.21028291949E+02  0.10233008372E+03 -0.96923442469E+02  0.18961652950E+03  0.12508652790E+03 0.  0.
          5    1    3    3  502    0 -0.34779743600E+02  0.12382801865E+03 -0.10080220927E+03  0.16346732567E+03  0.41800000000E+01 0.  1.
         -5    1    3    3    0  502  0.13751451651E+02 -0.21497934932E+02  0.38787667997E+01  0.26149203826E+02  0.41800000000E+01 0.  1.
        -11    1    1    2    0    0  0.14003955068E+02 -0.35717332259E+02 -0.83376776020E+02  0.91779765530E+02  0.00000000000E+00 0.  1.
         11    1    1    2    0    0  0.70243368811E+01 -0.66612751461E+02  0.56429229796E+01  0.67219361389E+02  0.00000000000E+00 0. -1.
</event>
<event>
 7    1  0.2719869E-009  0.1231437E+03  0.7561462E-02  0.1237999E+00
          1   -1    0    0  501    0  0.00000000000E+00  0.00000000000E+00  0.14228273427E+04  0.14228273427E+04  0.00000000000E+00 0. -1.
         -1   -1    0    0    0  501 -0.00000000000E+00 -0.00000000000E+00 -0.14412096050E+02  0.14412096050E+02  0.00000000000E+00 0.  1.
         25    2    1    2    0    0 -0.87847644464E+02 -0.29987617291E+02  0.75727567187E+03  0.77313026297E+03  0.12508994561E+03 0.  0.
          5    1    3    3  502    0 -0.50975927632E+02 -0.51675209379E+02  0.68640353161E+03  0.69024354620E+03  0.41800000000E+01 0. -1.
         -5    1    3    3    0  502 -0.36871716832E+02  0.21687592088E+02  0.70872140252E+02  0.82886716768E+02  0.41800000000E+01 0. -1.
        -11    1    1    2    0    0  0.79412741536E+02  0.59931935219E+02  0.49910535420E+03  0.50892472426E+03  0.00000000000E+00 0. -1.
         11    1    1    2    0    0  0.84349029281E+01 -0.29944317928E+02  0.15203422062E+03  0.15518445155E+03  0.00000000000E+00 0.  1.
</event>
<event>
 7    1  0.2719869E-009  0.1193962E+03  0.7561462E-02  0.1244096E+00
          3   -1    0    0  501    0  0.00000000000E+00  0.00000000000E+00  0.16097555032E+02  0.16097555032E+02  0.00000000000E+00 0. -1.
         -3   -1    0    0    0  501 -0.00000000000E+00 -0.00000000000E+00 -0.10810064565E+04  0.10810064565E+04  0.00000000000E+00 0.  1.
         25    2    1    2    0    0  0.63202371396E+02 -0.40969396387E+02 -0.58023177453E+03  0.59832464670E+03  0.12510171656E+03 0.  0.
          5    1    3    3  502    0  0.73007900125E+02  0.55237943093E+01 -0.49709961132E+03  0.50248001130E+03  0.41800000000E+01 0.  1.
         -5    1    3    3    0  502 -0.98055287290E+01 -0.46493190696E+02 -0.83132163216E+02  0.95844635404E+02  0.41800000000E+01 0.  1.
        -11    1    1    2    0    0 -0.13215351174E+02 -0.28940350995E+02 -0.13374079126E+03  0.13747286521E+03  0.00000000000E+00 0.  1.
         11    1    1    2    0    0 -0.49987020222E+02  0.69909747382E+02 -0.35093633570E+03  0.36130649964E+03  0.00000000000E+00 0. -1.
</event>
<event>
 7    1  0.2719869E-009  0.9752250E+02  0.7561462E-02  0.1285594E+00
          3   -1    0    0  501    0  0.00000000000E+00  0.00000000000E+00  0.88701190666E+03  0.88701190666E+03  0.00000000000E+00 0. -1.
         -3   -1    0    0    0  501 -0.00000000000E+00 -0.00000000000E+00 -0.13551917623E+02  0.13551917623E+02  0.00000000000E+00 0.  1.
         25    2    1    2    0    0  0.86952904620E+01  0.17433652803E+02  0.54742944260E+03  0.56187794569E+03  0.12509312892E+03 0.  0.
          5    1    3    3  502    0  0.37363100574E+02  0.48923083866E+02  0.46430736733E+03  0.46838901906E+03  0.41800000000E+01 0.  1.
         -5    1    3    3    0  502 -0.28667810112E+02 -0.31489431062E+02  0.83122075266E+02  0.93488926627E+02  0.41800000000E+01 0.  1.
        -11    1    1    2    0    0 -0.39620786687E+02  0.18005583344E+02  0.18370360500E+03  0.18878830012E+03  0.00000000000E+00 0.  1.
         11    1    1    2    0    0  0.30925496225E+02 -0.35439236147E+02  0.14232694143E+03  0.14989757848E+03  0.00000000000E+00 0. -1.
</event>
<event>
 7    1  0.2719869E-009  0.1726790E+03  0.7561462E-02  0.1175082E+00
          1   -1    0    0  501    0  0.00000000000E+00  0.00000000000E+00  0.14687125275E+04  0.14687125275E+04  0.00000000000E+00 0. -1.
         -1   -1    0    0    0  501 -0.00000000000E+00 -0.00000000000E+00 -0.28671192002E+02  0.28671192002E+02  0.00000000000E+00 0.  1.
         25    2    1    2    0    0  0.13448366295E+03  0.50475813878E+02  0.11347425825E+04  0.11506184145E+04  0.12509334083E+03 0.  0.
          5    1    3    3  502    0  0.48265862429E+02 -0.39955264162E+02  0.47529757131E+03  0.47942806583E+03  0.41800000000E+01 0. -1.
         -5    1    3    3    0  502  0.86217800518E+02  0.90431078041E+02  0.65944501114E+03  0.67119034865E+03  0.41800000000E+01 0. -1.
        -11    1    1    2    0    0 -0.12588566640E+03 -0.21991452191E+02  0.27971645772E+03  0.30752580655E+03  0.00000000000E+00 0. -1.
         11    1    1    2    0    0 -0.85979965494E+01 -0.28484361687E+02  0.25582295290E+02  0.39239498438E+02  0.00000000000E+00 0.  1.
</event>
<event>
 7    1  0.2719869E-009  0.1097282E+03  0.7561462E-02  0.1261074E+00
         -2   -1    0    0    0  501 -0.00000000000E+00  0.00000000000E+00  0.43151128775E+03  0.43151128775E+03  0.00000000000E+00 0.  1.
          2   -1    0    0  501    0  0.00000000000E+00 -0.00000000000E+00 -0.51925218030E+02  0.51925218030E+02  0.00000000000E+00 0. -1.
         25    2    1    2    0    0 -0.50757962831E+02  0.39321812072E+02  0.32848945554E+03  0.35731662361E+03  0.12508905392E+03 0.  0.
          5    1    3    3  502    0  0.20559900071E+02 -0.36784863115E+01  0.21726790644E+03  0.21830954244E+03  0.41800000000E+01 0.  1.
         -5    1    3    3    0  502 -0.71317862902E+02  0.43000298384E+02  0.11122154910E+03  0.13900708117E+03  0.41800000000E+01 0.  1.
        -11    1    1    2    0    0 -0.28509979567E+02 -0.88881657034E+01  0.18728329416E+02  0.35250088612E+02  0.00000000000E+00 0.  1.
         11    1    1    2    0    0  0.79267942398E+02 -0.30433646369E+02  0.32368284765E+02  0.90869793562E+02  0.00000000000E+00 0. -1.
</event>
<event>
 7    1  0.2719869E-009  0.1491631E+03  0.7561462E-02  0.1201505E+00
         -1   -1    0    0    0  501 -0.00000000000E+00  0.00000000000E+00  0.33909949212E+03  0.33909949212E+03  0.00000000000E+00 0.  1.
          1   -1    0    0  501    0  0.00000000000E+00 -0.00000000000E+00 -0.72861345143E+02  0.72861345143E+02  0.00000000000E+00 0. -1.
         25    2    1    2    0    0 -0.65971995087E+02  0.92147102284E+02  0.13486701594E+03  0.21605358659E+03  0.12508656080E+03 0.  0.
          5    1    3    3  502    0 -0.85055979409E+02  0.10252168582E+03  0.14005396206E+03  0.19333339180E+03  0.41800000000E+01 0. -1.
         -5    1    3    3    0  502  0.19083984322E+02 -0.10374583532E+02 -0.51869461223E+01  0.22720194787E+02  0.41800000000E+01 0. -1.
        -11    1    1    2    0    0  0.51487931135E+01 -0.80913858542E+02  0.56650866441E+02  0.98908458906E+02  0.00000000000E+00 0.  1.
         11    1    1    2    0    0  0.60823201974E+02 -0.11233243742E+02  0.74720264596E+02  0.96998791769E+02  0.00000000000E+00 0. -1.
</event>
<event>
 7    1  0.2719869E-009  0.1356931E+03  0.7561462E-02  0.1219245E+00
         -2   -1    0    0    0  501 -0.00000000000E+00  0.00000000000E+00  0.15202529505E+03  0.15202529505E+03  0.00000000000E+00 0. -1.
          2   -1    0    0  501    0  0.00000000000E+00 -0.00000000000E+00 -0.15360853563E+03  0.15360853563E+03  0.00000000000E+00 0.  1.
         25    2    1    2    0    0  0.81838431204E+00  0.84793386242E+02 -0.63089668427E+02  0.16376343541E+03  0.12509024108E+03 0.  0.
          5    1    3    3  502    0  0.48359036688E+02  0.87702582746E+02 -0.26860917326E+02  0.10377533777E+03  0.41800000000E+01 0.  1.
         -5    1    3    3    0  502 -0.47540652376E+02 -0.29091965044E+01 -0.36228751101E+02  0.59988097644E+02  0.41800000000E+01 0.  1.
        -11    1    1    2    0    0  0.34212117713E+02 -0.29854322166E+01  0.34952624493E+02  0.49000691453E+02  0.00000000000E+00 0.  1.
         11    1    1    2    0    0 -0.35030502025E+02 -0.81807954025E+02  0.26553803351E+02  0.92869703813E+02  0.00000000000E+00 0. -1.
</event>
<event>
 7    1  0.2719869E-009  0.1204745E+03  0.7561462E-02  0.1242316E+00
         -2   -1    0    0    0  501 -0.00000000000E+00  0.00000000000E+00  0.64139629185E+02  0.64139629185E+02  0.00000000000E+00 0. -1.
          2   -1    0    0  501    0  0.00000000000E+00 -0.00000000000E+00 -0.28456002338E+03  0.28456002338E+03  0.00000000000E+00 0.  1.
         25    2    1    2    0    0  0.62087093942E+01  0.78367917939E+02 -0.14245986988E+03  0.20523621472E+03  0.12508801171E+03 0.  0.
          5    1    3    3  502    0 -0.50084952332E+02  0.62474660082E+02 -0.46254856454E+02  0.92566569279E+02  0.41800000000E+01 0.  1.
         -5    1    3    3    0  502  0.56293661727E+02  0.15893257857E+02 -0.96205013427E+02  0.11266964544E+03  0.41800000000E+01 0.  1.
        -11    1    1    2    0    0 -0.11554566630E+02 -0.89252708262E+02 -0.89355863541E+02  0.12682280667E+03  0.00000000000E+00 0.  1.
         11    1    1    2    0    0  0.53458572363E+01  0.10884790323E+02  0.11395339224E+02  0.16640631178E+02  0.00000000000E+00 0. -1.
</event>
<event>
 7    1  0.2719869E-009  0.1326423E+03  0.7561462E-02  0.1223587E+00
         -1   -1    0    0    0  501 -0.00000000000E+00  0.00000000000E+00  0.82153183382E+02  0.82153183382E+02  0.00000000000E+00 0.  1.
          1   -1    0    0  501    0  0.00000000000E+00 -0.00000000000E+00 -0.27980983802E+03  0.27980983802E+03  0.00000000000E+00 0. -1.
         25    2    1    2    0    0 -0.32419885491E+02  0.84360812709E+02 -0.16891638186E+03  0.22879783200E+03  0.12509159911E+03 0.  0.
          5    1    3    3  502    0  0.50981665343E+01  0.10863493888E+03 -0.12855003533E+03  0.16843433507E+03  0.41800000000E+01 0. -1.
         -5    1    3    3    0  502 -0.37518052026E+02 -0.24274126168E+02 -0.40366346533E+02  0.60363496929E+02  0.41800000000E+01 0. -1.
        -11    1    1    2    0    0 -0.20150815818E+02 -0.19066796692E+02  0.21798922960E+02  0.35281597986E+02  0.00000000000E+00 0.  1.
         11    1    1    2    0    0  0.52570701309E+02 -0.65294016016E+02 -0.50539195736E+02  0.97883591420E+02  0.00000000000E+00 0. -1.
</event>
<event>
 7    1  0.2719869E-009  0.1701761E+03  0.7561462E-02  0.1177664E+00
         -1   -1    0    0    0  501 -0.00000000000E+00  0.00000000000E+00  0.34232276790E+03  0.34232276790E+03  0.00000000000E+00 0.  1.
          1   -1    0    0  501    0  0.00000000000E+00 -0.00000000000E+00 -0.11320485699E+03  0.11320485699E+03  0.00000000000E+00 0. -1.
         25    2    1    2    0    0  0.13462751689E+01 -0.16035755277E+03  0.78541259227E+02  0.21802170566E+03  0.12509347525E+03 0.  0.
          5    1    3    3  502    0  0.24116688744E+02 -0.14684622657E+02  0.63666977965E+02  0.69772554072E+02  0.41800000000E+01 0. -1.
         -5    1    3    3    0  502 -0.22770413575E+02 -0.14567293012E+03  0.14874281262E+02  0.14824915159E+03  0.41800000000E+01 0. -1.
        -11    1    1    2    0    0  0.12678254704E+02  0.13263506673E+03  0.15685854407E+03  0.20580913954E+03  0.00000000000E+00 0.  1.
         11    1    1    2    0    0 -0.14024529873E+02  0.27722486044E+02 -0.62818923873E+01  0.31696779688E+02  0.00000000000E+00 0. -1.
</event>
<event>
 7    1  0.2947273E-009  0.1204262E+03  0.7561462E-02  0.1242396E+00
         -2   -1    0    0    0  501 -0.00000000000E+00  0.00000000000E+00  0.30331022732E+02  0.30331022732E+02  0.00000000000E+00 0.  1.
          2   -1    0    0  501    0  0.00000000000E+00 -0.00000000000E+00 -0.55380119579E+03  0.55380119579E+03  0.00000000000E+00 0. -1.
         25    2    1    2    0    0  0.26928970205E+02  0.59384507195E+02 -0.35293206627E+03  0.38008206566E+03  0.12509853758E+03 0.  0.
          5    1    3    3  502    0 -0.34311062805E+02 -0.15338906784E+02 -0.54200856546E+02  0.66088851877E+02  0.41800000000E+01 0. -1.
         -5    1    3    3    0  502  0.61240033010E+02  0.74723413978E+02 -0.29873120972E+03  0.31399321378E+03  0.41800000000E+01 0. -1.
        -11    1    1    2    0    0 -0.56621061824E+02 -0.28127487652E+02 -0.68170955624E+02  0.92975154716E+02  0.00000000000E+00 0.  1.
         11    1    1    2    0    0  0.29692091619E+02 -0.31257019542E+02 -0.10236715116E+03  0.11107499814E+03  0.00000000000E+00 0. -1.
</event>
<event>
 7    1  0.2719869E-009  0.1070421E+03  0.7561462E-02  0.1266148E+00
          2   -1    0    0  501    0  0.00000000000E+00  0.00000000000E+00  0.85415379280E+03  0.85415379280E+03  0.00000000000E+00 0. -1.
         -2   -1    0    0    0  501 -0.00000000000E+00 -0.00000000000E+00 -0.16762450285E+02  0.16762450285E+02  0.00000000000E+00 0.  1.
         25    2    1    2    0    0  0.21478670758E+02  0.17547584132E+02  0.61449468329E+03  0.62771028902E+03  0.12508892891E+03 0.  0.
          5    1    3    3  502    0  0.63989393346E+02 -0.23789180291E+02  0.34967188210E+03  0.35629828106E+03  0.41800000000E+01 0.  1.
         -5    1    3    3    0  502 -0.42510722588E+02  0.41336764423E+02  0.26482280119E+03  0.27141200795E+03  0.41800000000E+01 0.  1.
        -11    1    1    2    0    0  0.28485033973E+02 -0.22131851282E+02  0.15281835886E+03  0.15701804611E+03  0.00000000000E+00 0. -1.
         11    1    1    2    0    0 -0.49963704731E+02  0.45842671500E+01  0.70078300369E+02  0.86187907959E+02  0.00000000000E+00 0.  1.
</event>
<event>
 7    1  0.2719869E-009  0.1554450E+03  0.7561462E-02  0.1193937E+00
         -1   -1    0    0    0  501 -0.00000000000E+00  0.00000000000E+00  0.11295024309E+03  0.11295024309E+03  0.00000000000E+00 0.  1.
          1   -1    0    0  501    0  0.00000000000E+00 -0.00000000000E+00 -0.28766265934E+03  0.28766265934E+03  0.00000000000E+00 0. -1.
         25    2    1    2    0    0 -0.30649279992E+02  0.13521589633E+03 -0.13813388475E+03  0.23227436915E+03  0.12509074890E+03 0.  0.
          5    1    3    3  502    0  0.13305616088E+02  0.78151159967E+02 -0.13905120728E+03  0.16011668829E+03  0.41800000000E+01 0.  1.
         -5    1    3    3    0  502 -0.43954896080E+02  0.57064736364E+02  0.91732252941E+00  0.72157680854E+02  0.41800000000E+01 0.  1.
        -11    1    1    2    0    0  0.38334715672E+02 -0.18824247677E+02  0.80282275866E+01  0.43455208715E+02  0.00000000000E+00 0.  1.
         11    1    1    2    0    0 -0.76854356798E+01 -0.11639164865E+03 -0.44606759088E+02  0.12488332456E+03  0.00000000000E+00 0. -1.
</event>
<event>
 7    1  0.2719869E-009  0.1057701E+03  0.7561462E-02  0.1268610E+00
          1   -1    0    0  501    0  0.00000000000E+00  0.00000000000E+00  0.36200045419E+03  0.36200045419E+03  0.00000000000E+00 0. -1.
         -1   -1    0    0    0  501 -0.00000000000E+00 -0.00000000000E+00 -0.47782398946E+02  0.47782398946E+02  0.00000000000E+00 0.  1.
         25    2    1    2    0    0 -0.26368847749E+02  0.66435419080E+02  0.20924964465E+03  0.25405586099E+03  0.12509990279E+03 0.  0.
          5    1    3    3  502    0  0.19873946112E+02  0.59604446623E+01  0.16407387146E+03  0.16543339546E+03  0.41800000000E+01 0. -1.
         -5    1    3    3    0  502 -0.46242793861E+02  0.60474974417E+02  0.45175773182E+02  0.88622465535E+02  0.41800000000E+01 0. -1.
        -11    1    1    2    0    0 -0.24788002602E+02 -0.56938582906E+02  0.47350529171E+02  0.78093020873E+02  0.00000000000E+00 0.  1.
         11    1    1    2    0    0  0.51156850351E+02 -0.94968361737E+01  0.57617881423E+02  0.77633971268E+02  0.00000000000E+00 0. -1.
</event>
<event>
 7    1  0.2719869E-009  0.1026693E+03  0.7561462E-02  0.1274781E+00
          1   -1    0    0  501    0  0.00000000000E+00  0.00000000000E+00  0.20743930561E+03  0.20743930561E+03  0.00000000000E+00 0. -1.
         -1   -1    0    0    0  501 -0.00000000000E+00 -0.00000000000E+00 -0.53029604980E+02  0.53029604980E+02  0.00000000000E+00 0.  1.
         25    2    1    2    0    0  0.49486837649E+01 -0.14616243051E+02  0.10756348484E+03  0.16569712323E+03  0.12509000497E+03 0.  0.
          5    1    3    3  502    0 -0.15794435928E+02  0.51587741439E+02  0.63382558892E+02  0.83340149057E+02  0.41800000000E+01 0. -1.
         -5    1    3    3    0  502  0.20743119693E+02 -0.66203984490E+02  0.44180925946E+02  0.82356974170E+02  0.41800000000E+01 0. -1.
        -11    1    1    2    0    0 -0.20643440271E+02  0.43892285924E+02  0.21844028781E+02  0.53196296706E+02  0.00000000000E+00 0.  1.
         11    1    1    2    0    0  0.15694756507E+02 -0.29276042873E+02  0.25002187012E+02  0.41575490658E+02  0.00000000000E+00 0. -1.
</event>
<event>
 7    1  0.2719869E-009  0.1147365E+03  0.7561462E-02  0.1252042E+00
         -2   -1    0    0    0  501 -0.00000000000E+00  0.00000000000E+00  0.41674851116E+02  0.41674851116E+02  0.00000000000E+00 0.  1.
          2   -1    0    0  501    0  0.00000000000E+00 -0.00000000000E+00 -0.48559738254E+03  0.48559738254E+03  0.00000000000E+00 0. -1.
         25    2    1    2    0    0 -0.51913923246E+02  0.74457845432E+02 -0.21410847402E+03  0.26406185632E+03  0.12508876506E+03 0.  0.
          5    1    3    3  502    0 -0.98606962401E+01  0.75404433944E+02 -0.42279232813E+02  0.87109516793E+02  0.41800000000E+01 0.  1.
         -5    1    3    3    0  502 -0.42053227006E+02 -0.94658851221E+00 -0.17182924121E+03  0.17695233953E+03  0.41800000000E+01 0.  1.
        -11    1    1    2    0    0  0.41271127539E+02 -0.59343351404E+01 -0.15788456503E+03  0.16329745306E+03  0.00000000000E+00 0. -1.
         11    1    1    2    0    0  0.10642795707E+02 -0.68523510291E+02 -0.71929492373E+02  0.99912924269E+02  0.00000000000E+00 0.  1.
</event>
<event>
 7    1  0.2719869E-009  0.1056686E+03  0.7561462E-02  0.1268808E+00
          1   -1    0    0  501    0  0.00000000000E+00  0.00000000000E+00  0.97587382907E+03  0.97587382907E+03  0.00000000000E+00 0. -1.
         -1   -1    0    0    0  501 -0.00000000000E+00 -0.00000000000E+00 -0.16191941133E+02  0.16191941133E+02  0.00000000000E+00 0.  1.
         25    2    1    2    0    0  0.94890882387E+01 -0.47537137961E+02  0.70325287440E+03  0.71593992178E+03  0.12512211622E+03 0.  0.
          5    1    3    3  502    0 -0.39312456087E+02  0.35835158210E+01  0.48208826705E+03  0.48371983670E+03  0.41800000000E+01 0.  1.
         -5    1    3    3    0  502  0.48801544325E+02 -0.51120653782E+02  0.22116460735E+03  0.23222008508E+03  0.41800000000E+01 0.  1.
        -11    1    1    2    0    0 -0.20309192452E+02  0.71618471491E+02  0.20873954725E+03  0.22161648708E+03  0.00000000000E+00 0. -1.
         11    1    1    2    0    0  0.10820104213E+02 -0.24081333530E+02  0.47689466288E+02  0.54509361348E+02  0.00000000000E+00 0.  1.
</event>
<event>
 7    1  0.2719869E-009  0.1022164E+03  0.7561462E-02  0.1275703E+00
         -2   -1    0    0    0  501 -0.00000000000E+00  0.00000000000E+00  0.26229295046E+03  0.26229295046E+03  0.00000000000E+00 0.  1.
          2   -1    0    0  501    0  0.00000000000E+00 -0.00000000000E+00 -0.52329885196E+02  0.52329885196E+02  0.00000000000E+00 0. -1.
         25    2    1    2    0    0 -0.25160187054E+02  0.37057660890E+01  0.55501614389E+02  0.13919412048E+03  0.12509119178E+03 0.  0.
          5    1    3    3  502    0 -0.71868953915E+02  0.17151818873E+02  0.14379049465E+02  0.75389395083E+02  0.41800000000E+01 0. -1.
         -5    1    3    3    0  502  0.46708766861E+02 -0.13446052785E+02  0.41122564924E+02  0.63804725397E+02  0.41800000000E+01 0. -1.
        -11    1    1    2    0    0 -0.83983663157E+01  0.31739099162E+02  0.46253077877E+02  0.56720809105E+02  0.00000000000E+00 0. -1.
         11    1    1    2    0    0  0.33558553370E+02 -0.35444865251E+02  0.10820837300E+03  0.11870790607E+03  0.00000000000E+00 0.  1.
</event>
<event>
 7    1  0.2746657E-009  0.1650985E+03  0.7561462E-02  0.1183058E+00
          1   -1    0    0  501    0  0.00000000000E+00  0.00000000000E+00  0.49921047527E+03  0.49921047527E+03  0.00000000000E+00 0. -1.
         -1   -1    0    0    0  501 -0.00000000000E+00 -0.00000000000E+00 -0.57722962194E+02  0.57722962194E+02  0.00000000000E+00 0.  1.
         25    2    1    2    0    0 -0.24900960763E+02 -0.12605744535E+03  0.26754454796E+03  0.32208554699E+03  0.12509387300E+03 0.  0.
          5    1    3    3  502    0  0.48956847238E+02 -0.73815594798E+02  0.13754474334E+03  0.16365067598E+03  0.41800000000E+01 0. -1.
         -5    1    3    3    0  502 -0.73857808002E+02 -0.52241850553E+02  0.12999980461E+03  0.15843487101E+03  0.41800000000E+01 0. -1.
        -11    1    1    2    0    0  0.42987061559E+02  0.12572555166E+03  0.12405369613E+03  0.18178042063E+03  0.00000000000E+00 0.  1.
         11    1    1    2    0    0 -0.18086100796E+02  0.33189369037E+00  0.49889268991E+02  0.53067469847E+02  0.00000000000E+00 0. -1.
</event>
<event>
 7    1  0.2719869E-009  0.1854907E+03  0.7561462E-02  0.1162592E+00
         -1   -1    0    0    0  501 -0.00000000000E+00  0.00000000000E+00  0.78311325552E+03  0.78311325552E+03  0.00000000000E+00 0.  1.
          1   -1    0    0  501    0  0.00000000000E+00 -0.00000000000E+00 -0.55804759707E+02  0.55804759707E+02  0.00000000000E+00 0. -1.
         25    2    1    2    0    0  0.16538276259E+03  0.54855653096E+02  0.30185234241E+03  0.37030285118E+03  0.12509502043E+03 0.  0.
          5    1    3    3  502    0  0.74295904381E+02 -0.39252282579E+00  0.33615389998E+02  0.81654775284E+02  0.41800000000E+01 0. -1.
         -5    1    3    3    0  502  0.91086858207E+02  0.55248175922E+02  0.26823695241E+03  0.28864807590E+03  0.41800000000E+01 0. -1.
        -11    1    1    2    0    0 -0.12175043844E+03 -0.73814821288E+02  0.25971864981E+03  0.29618503365E+03  0.00000000000E+00 0. -1.
         11    1    1    2    0    0 -0.43632324148E+02  0.18959168192E+02  0.16573750359E+03  0.17243013039E+03  0.00000000000E+00 0.  1.
</event>
<event>
 7    1  0.2719869E-009  0.3856230E+03  0.7561462E-02  0.1048875E+00
          2   -1    0    0  501    0  0.00000000000E+00  0.00000000000E+00  0.59117648752E+03  0.59117648752E+03  0.00000000000E+00 0.  1.
         -2   -1    0    0    0  501 -0.00000000000E+00 -0.00000000000E+00 -0.28663381624E+03  0.28663381624E+03  0.00000000000E+00 0. -1.
         25    2    1    2    0    0 -0.36331505474E+03  0.91298525018E+02  0.13238543041E+02  0.39516342171E+03  0.12508245747E+03 0.  0.
          5    1    3    3  502    0 -0.22939336593E+03  0.11825453890E+03  0.13935377572E+02  0.25849007612E+03  0.41800000000E+01 0.  1.
         -5    1    3    3    0  502 -0.13392168881E+03 -0.26956013882E+02 -0.69683453133E+00  0.13667334559E+03  0.41800000000E+01 0.  1.
        -11    1    1    2    0    0  0.35580136120E+03 -0.83173265141E+02  0.29636977134E+03  0.47047576136E+03  0.00000000000E+00 0.  1.
         11    1    1    2    0    0  0.75136935381E+01 -0.81252598780E+01 -0.50656431112E+01  0.12171120688E+02  0.00000000000E+00 0. -1.
</event>
<event>
 6    1  0.2719869E-009  0.8430546E+02  0.7561462E-02  0.1317259E+00
         -1   -1    0    0    0  501 -0.00000000000E+00  0.00000000000E+00  0.50969814193E+02  0.50969814193E+02  0.00000000000E+00 0.  1.
          1   -1    0    0  501    0  0.00000000000E+00 -0.00000000000E+00 -0.23658689624E+03  0.23658689624E+03  0.00000000000E+00 0. -1.
          5    1    1    2  502    0 -0.36053919788E+02 -0.39651738705E+02 -0.11882186942E+03  0.13041569908E+03  0.41800000000E+01 0. -1.
         -5    1    1    2    0  502  0.19578822747E+02  0.39193553882E+02 -0.14636762898E+01  0.44034982847E+02  0.41800000000E+01 0. -1.
        -11    1    1    2    0    0  0.13873819942E+02  0.34250016737E+02 -0.69743297666E+02  0.78928284509E+02  0.00000000000E+00 0. -1.
         11    1    1    2    0    0  0.26012770994E+01 -0.33791831914E+02  0.44117613268E+01  0.34177743996E+02  0.00000000000E+00 0.  1.
</event>
<event>
 7    1  0.2719869E-009  0.8528608E+02  0.7561462E-02  0.1314686E+00
          1   -1    0    0  501    0  0.00000000000E+00  0.00000000000E+00  0.58033350519E+02  0.58033350519E+02  0.00000000000E+00 0. -1.
         -1   -1    0    0    0  501 -0.00000000000E+00 -0.00000000000E+00 -0.23478778073E+03  0.23478778073E+03  0.00000000000E+00 0.  1.
         25    2    1    2    0    0 -0.19290535531E+02 -0.35712478888E+00 -0.50908984390E+02  0.13642331342E+03  0.12508934189E+03 0.  0.
          5    1    3    3  502    0  0.32441279764E+02  0.21995828103E+02  0.21242170531E+02  0.44776727164E+02  0.41800000000E+01 0.  1.
         -5    1    3    3    0  502 -0.51731815295E+02 -0.22352952892E+02 -0.72151154921E+02  0.91646586260E+02  0.41800000000E+01 0.  1.
        -11    1    1    2    0    0  0.25601873283E+02  0.32791846565E+02 -0.11390316195E+03  0.12126290207E+03  0.00000000000E+00 0.  1.
         11    1    1    2    0    0 -0.63113377523E+01 -0.32434721776E+02 -0.11942283872E+02  0.35134915753E+02  0.00000000000E+00 0. -1.
</event>
<event>
 7    1  0.2719869E-009  0.8793360E+02  0.7561462E-02  0.1307934E+00
          1   -1    0    0  501    0  0.00000000000E+00  0.00000000000E+00  0.12259513593E+03  0.12259513593E+03  0.00000000000E+00 0. -1.
         -1   -1    0    0    0  501 -0.00000000000E+00 -0.00000000000E+00 -0.11103519386E+03  0.11103519386E+03  0.00000000000E+00 0.  1.
         25    2    1    2    0    0  0.41272155868E+02  0.40588673602E+01  0.29984835418E+02  0.13515691590E+03  0.12509371010E+03 0.  0.
          5    1    3    3  502    0 -0.22885177301E+02 -0.44413447079E+01  0.59398076258E+02  0.63945764098E+02  0.41800000000E+01 0.  1.
         -5    1    3    3    0  502  0.64157333169E+02  0.85002120681E+01 -0.29413240840E+02  0.71211151804E+02  0.41800000000E+01 0.  1.
        -11    1    1    2    0    0  0.17988044184E+02  0.16694493519E+02  0.13526597297E+02  0.28022217646E+02  0.00000000000E+00 0. -1.
         11    1    1    2    0    0 -0.59260200052E+02 -0.20753360879E+02 -0.31951490638E+02  0.70451196242E+02  0.00000000000E+00 0.  1.
</event>
<event>
 7    1  0.2719869E-009  0.1715209E+03  0.7561462E-02  0.1176271E+00
         -1   -1    0    0    0  501 -0.00000000000E+00  0.00000000000E+00  0.16246464834E+03  0.16246464834E+03  0.00000000000E+00 0.  1.
          1   -1    0    0  501    0  0.00000000000E+00 -0.00000000000E+00 -0.56180202727E+03  0.56180202727E+03  0.00000000000E+00 0. -1.
         25    2    1    2    0    0  0.10666187965E+03 -0.11537461276E+03 -0.48464850636E+03  0.52461453325E+03  0.12509266939E+03 0.  0.
          5    1    3    3  502    0  0.86678262916E+02 -0.12751774880E+03 -0.28951152012E+03  0.32803702566E+03  0.41800000000E+01 0.  1.
         -5    1    3    3    0  502  0.19983616734E+02  0.12143136034E+02 -0.19513698624E+03  0.19657750759E+03  0.41800000000E+01 0.  1.
        -11    1    1    2    0    0 -0.92549368538E+02  0.65950888521E+02  0.18156636984E+02  0.11508505020E+03  0.00000000000E+00 0.  1.
         11    1    1    2    0    0 -0.14112511112E+02  0.49423724243E+02  0.67154490455E+02  0.84567092159E+02  0.00000000000E+00 0. -1.
</event>
<event>
 7    1  0.2719869E-009  0.7742120E+02  0.7561462E-02  0.1336533E+00
          2   -1    0    0  501    0  0.00000000000E+00  0.00000000000E+00  0.63834760855E+03  0.63834760855E+03  0.00000000000E+00 0. -1.
         -2   -1    0    0    0  501 -0.00000000000E+00 -0.00000000000E+00 -0.19768484485E+02  0.19768484485E+02  0.00000000000E+00 0.  1.
         25    2    1    2    0    0 -0.18738061116E+02 -0.15770853211E+02  0.40216379857E+03  0.42188026895E+03  0.12508959074E+03 0.  0.
          5    1    3    3  502    0 -0.90791564071E+01 -0.41375409803E+02  0.38883059291E+03  0.39115349673E+03  0.41800000000E+01 0.  1.
         -5    1    3    3    0  502 -0.96589047085E+01  0.25604556592E+02  0.13333205651E+02  0.30726772226E+02  0.41800000000E+01 0.  1.
        -11    1    1    2    0    0  0.48796881447E+02 -0.34437238045E+01  0.69103883083E+02  0.84666058900E+02  0.00000000000E+00 0.  1.
         11    1    1    2    0    0 -0.30058820332E+02  0.19214577015E+02  0.14731144241E+03  0.15156976518E+03  0.00000000000E+00 0. -1.
</event>
<event>
 7    1  0.2719869E-009  0.2186527E+03  0.7561462E-02  0.1134892E+00
          2   -1    0    0  501    0  0.00000000000E+00  0.00000000000E+00  0.62361391537E+03  0.62361391537E+03  0.00000000000E+00 0. -1.
         -2   -1    0    0    0  501 -0.00000000000E+00 -0.00000000000E+00 -0.82870671625E+02  0.82870671625E+02  0.00000000000E+00 0.  1.
         25    2    1    2    0    0  0.11263510241E+03  0.15856438718E+03  0.22188049515E+03  0.32048043782E+03  0.12508967073E+03 0.  0.
          5    1    3    3  502    0  0.75504585960E+00  0.88868934676E+02  0.13797240221E+03  0.16417098957E+03  0.41800000000E+01 0. -1.
         -5    1    3    3    0  502  0.11188005655E+03  0.69695452500E+02  0.83908092944E+02  0.15630944825E+03  0.41800000000E+01 0. -1.
        -11    1    1    2    0    0  0.17230659414E+02 -0.22828166563E+02  0.30164694295E+02  0.41568372525E+02  0.00000000000E+00 0.  1.
         11    1    1    2    0    0 -0.12986576182E+03 -0.13573622061E+03  0.28869805430E+03  0.34443577664E+03  0.00000000000E+00 0. -1.
</event>
<event>
 7    1  0.2719869E-009  0.1312740E+03  0.7561462E-02  0.1225577E+00
         -1   -1    0    0    0  501 -0.00000000000E+00  0.00000000000E+00  0.13037566000E+03  0.13037566000E+03  0.00000000000E+00 0.  1.
          1   -1    0    0  501    0  0.00000000000E+00 -0.00000000000E+00 -0.27148560669E+03  0.27148560669E+03  0.00000000000E+00 0. -1.
         25    2    1    2    0    0  0.97712930888E+02  0.82087357233E+02 -0.16410793221E+03  0.24261823091E+03  0.12508413758E+03 0.  0.
          5    1    3    3  502    0  0.66346012278E+02  0.27880307757E+02 -0.57991577803E+01  0.72320173789E+02  0.41800000000E+01 0.  1.
         -5    1    3    3    0  502  0.31366918610E+02  0.54207049476E+02 -0.15830877443E+03  0.17029805712E+03  0.41800000000E+01 0.  1.
        -11    1    1    2    0    0 -0.59021909406E+02 -0.52378981170E+02 -0.32509777529E+02  0.85346523616E+02  0.00000000000E+00 0. -1.
         11    1    1    2    0    0 -0.38691021482E+02 -0.29708376063E+02  0.55507763045E+02  0.73896512164E+02  0.00000000000E+00 0.  1.
</event>
<event>
 7    1  0.3185334E-009  0.1190037E+03  0.7561462E-02  0.1244750E+00
          2   -1    0    0  501    0  0.00000000000E+00  0.00000000000E+00  0.53037165762E+03  0.53037165762E+03  0.00000000000E+00 0. -1.
         -2   -1    0    0    0  501 -0.00000000000E+00 -0.00000000000E+00 -0.33888221422E+02  0.33888221422E+02  0.00000000000E+00 0.  1.
         25    2    1    2    0    0  0.28484106082E+02 -0.65470787239E+02  0.34296897082E+03  0.37198481871E+03  0.12508885692E+03 0.  0.
          5    1    3    3  502    0  0.37774918635E+02 -0.10055357017E+03  0.25494468265E+03  0.27668073400E+03  0.41800000000E+01 0. -1.
         -5    1    3    3    0  502 -0.92908125528E+01  0.35082782930E+02  0.88024288168E+02  0.95304084716E+02  0.41800000000E+01 0. -1.
        -11    1    1    2    0    0  0.18790549193E+02  0.10684329728E+02 -0.10170757557E+01  0.21639641490E+02  0.00000000000E+00 0.  1.
         11    1    1    2    0    0 -0.47274655276E+02  0.54786457512E+02  0.15453154114E+03  0.17063541884E+03  0.00000000000E+00 0. -1.
</event>
<event>
 7    1  0.2719869E-009  0.4044651E+03  0.7561462E-02  0.1042244E+00
         -1   -1    0    0    0  501 -0.00000000000E+00  0.00000000000E+00  0.19821358286E+03  0.19821358286E+03  0.00000000000E+00 0.  1.
          1   -1    0    0  501    0  0.00000000000E+00 -0.00000000000E+00 -0.95790387372E+03  0.95790387372E+03  0.00000000000E+00 0. -1.
         25    2    1    2    0    0  0.36872150532E+03 -0.15149634263E+03 -0.20003202110E+03  0.46321343803E+03  0.12508872609E+03 0.  0.
          5    1    3    3  502    0  0.26278496028E+03 -0.58452171887E+02 -0.17172866249E+03  0.31934432462E+03  0.41800000000E+01 0. -1.
         -5    1    3    3    0  502  0.10593654504E+03 -0.93044170746E+02 -0.28303358601E+02  0.14386911341E+03  0.41800000000E+01 0. -1.
        -11    1    1    2    0    0 -0.27205865776E+03  0.11233759406E+03 -0.47395342874E+03  0.55791352459E+03  0.00000000000E+00 0. -1.
         11    1    1    2    0    0 -0.96662847558E+02  0.39158748570E+02 -0.85704841020E+02  0.13499049397E+03  0.00000000000E+00 0.  1.
</event>
<event>
 7    1  0.2719869E-009  0.1063697E+03  0.7561462E-02  0.1267444E+00
          2   -1    0    0  501    0  0.00000000000E+00  0.00000000000E+00  0.35123983122E+03  0.35123983122E+03  0.00000000000E+00 0. -1.
         -2   -1    0    0    0  501 -0.00000000000E+00 -0.00000000000E+00 -0.10959632177E+03  0.10959632177E+03  0.00000000000E+00 0.  1.
         25    2    1    2    0    0  0.28078644087E+02 -0.40299216194E+02  0.30332039153E+03  0.33175807241E+03  0.12509085344E+03 0.  0.
          5    1    3    3  502    0 -0.11052875170E+02 -0.77637081375E+02  0.20390421106E+03  0.21850419251E+03  0.41800000000E+01 0.  1.
         -5    1    3    3    0  502  0.39131519256E+02  0.37337865181E+02  0.99416180465E+02  0.11325387991E+03  0.41800000000E+01 0.  1.
        -11    1    1    2    0    0 -0.36935835950E+02 -0.17605170982E+01  0.16008840900E+02  0.40294396444E+02  0.00000000000E+00 0. -1.
         11    1    1    2    0    0  0.88571918635E+01  0.42059733292E+02 -0.77685722982E+02  0.88783684129E+02  0.00000000000E+00 0.  1.
</event>
<event>
 7    1  0.2719869E-009  0.1622161E+03  0.7561462E-02  0.1186217E+00
          1   -1    0    0  501    0  0.00000000000E+00  0.00000000000E+00  0.24732305074E+02  0.24732305074E+02  0.00000000000E+00 0. -1.
         -1   -1    0    0    0  501 -0.00000000000E+00 -0.00000000000E+00 -0.12875156378E+04  0.12875156378E+04  0.00000000000E+00 0.  1.
         25    2    1    2    0    0  0.10615704145E+03  0.86387268846E+02 -0.77815824946E+03  0.79994405369E+03  0.12509256641E+03 0.  0.
          5    1    3    3  502    0  0.78330525183E+02  0.10890581886E+03 -0.44384641148E+03  0.46369522096E+03  0.41800000000E+01 0. -1.
         -5    1    3    3    0  502  0.27826516269E+02 -0.22518550014E+02 -0.33431183798E+03  0.33624883274E+03  0.41800000000E+01 0. -1.
        -11    1    1    2    0    0 -0.24805254156E+00 -0.37549832585E+02 -0.21910110825E+03  0.22229562995E+03  0.00000000000E+00 0.  1.
         11    1    1    2    0    0 -0.10590898891E+03 -0.48837436261E+02 -0.26552397497E+03  0.29000825919E+03  0.00000000000E+00 0. -1.
</event>
<event>
 7    1  0.2719869E-009  0.1302429E+03  0.7561462E-02  0.1227096E+00
         -1   -1    0    0    0  501 -0.00000000000E+00  0.00000000000E+00  0.11403402596E+03  0.11403402596E+03  0.00000000000E+00 0.  1.
          1   -1    0    0  501    0  0.00000000000E+00 -0.00000000000E+00 -0.25070688140E+03  0.25070688140E+03  0.00000000000E+00 0. -1.
         25    2    1    2    0    0 -0.78264289104E+02  0.18214751499E+02  0.35918365243E+02  0.15295461068E+03  0.12509159782E+03 0.  0.
          5    1    3    3  502    0 -0.10137274313E+03 -0.15021447558E+02  0.65596328679E+01  0.10277440401E+03  0.41800000000E+01 0.  1.
         -5    1    3    3    0  502  0.23108454022E+02  0.33236199057E+02  0.29358732375E+02  0.50180206673E+02  0.41800000000E+01 0.  1.
        -11    1    1    2    0    0  0.58814775832E+02 -0.51827127297E+02 -0.14257277286E+03  0.16270287195E+03  0.00000000000E+00 0. -1.
         11    1    1    2    0    0  0.19449513272E+02  0.33612375798E+02 -0.30018447823E+02  0.49083424728E+02  0.00000000000E+00 0.  1.
</event>
<event>
 7    1  0.2719869E-009  0.1062086E+03  0.7561462E-02  0.1267756E+00
          3   -1    0    0  501    0  0.00000000000E+00  0.00000000000E+00  0.10045582066E+03  0.10045582066E+03  0.00000000000E+00 0. -1.
         -3   -1    0    0    0  501 -0.00000000000E+00 -0.00000000000E+00 -0.17014692891E+03  0.17014692891E+03  0.00000000000E+00 0.  1.
         25    2    1    2    0    0 -0.14921634593E+01 -0.39630873164E+02  0.24171303387E+02  0.13343423943E+03  0.12509041404E+03 0.  0.
          5    1    3    3  502    0 -0.52104227207E+02  0.16964883452E+02  0.62447546109E+01  0.55309376452E+02  0.41800000000E+01 0.  1.
         -5    1    3    3    0  502  0.50612063748E+02 -0.56595756616E+02  0.17926548776E+02  0.78124862974E+02  0.41800000000E+01 0.  1.
        -11    1    1    2    0    0  0.35750666271E+02  0.27406964759E+02 -0.10556259074E+02  0.46267553012E+02  0.00000000000E+00 0. -1.
         11    1    1    2    0    0 -0.34258502811E+02  0.12223908405E+02 -0.83306152563E+02  0.90900957126E+02  0.00000000000E+00 0.  1.
</event>
<event>
 7    1  0.2719869E-009  0.1340012E+03  0.7561462E-02  0.1221637E+00
          2   -1    0    0  501    0  0.00000000000E+00  0.00000000000E+00  0.92989699564E+02  0.92989699564E+02  0.00000000000E+00 0.  1.
         -2   -1    0    0    0  501 -0.00000000000E+00 -0.00000000000E+00 -0.38116567938E+03  0.38116567938E+03  0.00000000000E+00 0. -1.
         25    2    1    2    0    0 -0.47981991145E+02 -0.99860717332E+02 -0.14699713914E+02  0.16773411095E+03  0.12507684057E+03 0.  0.
          5    1    3    3  502    0 -0.12104079612E+02 -0.10795926989E+03 -0.47156429146E+02  0.11850280127E+03  0.41800000000E+01 0.  1.
         -5    1    3    3    0  502 -0.35877911532E+02  0.80985525559E+01  0.32456715231E+02  0.49231309682E+02  0.41800000000E+01 0.  1.
        -11    1    1    2    0    0 -0.42212890469E+00  0.58781567102E+02 -0.61213479452E+02  0.84867784762E+02  0.00000000000E+00 0.  1.
         11    1    1    2    0    0  0.48404120049E+02  0.41079150230E+02 -0.21226278645E+03  0.22155348323E+03  0.00000000000E+00 0. -1.
</event>
<event>
 7    1  0.2719869E-009  0.9495217E+02  0.7561462E-02  0.1291284E+00
          1   -1    0    0  501    0  0.00000000000E+00  0.00000000000E+00  0.42790173804E+03  0.42790173804E+03  0.00000000000E+00 0. -1.
         -1   -1    0    0    0  501 -0.00000000000E+00 -0.00000000000E+00 -0.40467626767E+02  0.40467626767E+02  0.00000000000E+00 0.  1.
         25    2    1    2    0    0 -0.39667988608E+02 -0.89108157198E+01  0.32672273918E+03  0.35220454432E+03  0.12508933122E+03 0.  0.
          5    1    3    3  502    0 -0.34661873815E+02 -0.65255847375E+02  0.16546484880E+03  0.18126185396E+03  0.41800000000E+01 0. -1.
         -5    1    3    3    0  502 -0.50061147939E+01  0.56345031655E+02  0.16125789037E+03  0.17094269035E+03  0.41800000000E+01 0. -1.
        -11    1    1    2    0    0  0.22331444654E+02 -0.16953426122E+02 -0.16763626680E+02  0.32666975021E+02  0.00000000000E+00 0.  1.
         11    1    1    2    0    0  0.17336543955E+02  0.25864241842E+02  0.77474998772E+02  0.83497845464E+02  0.00000000000E+00 0. -1.
</event>
<event>
 7    1  0.2719869E-009  0.1368228E+03  0.7561462E-02  0.1217669E+00
         -2   -1    0    0    0  501 -0.00000000000E+00  0.00000000000E+00  0.51447729220E+02  0.51447729220E+02  0.00000000000E+00 0.  1.
          2   -1    0    0  501    0  0.00000000000E+00 -0.00000000000E+00 -0.50266460185E+03  0.50266460185E+03  0.00000000000E+00 0. -1.
         25    2    1    2    0    0  0.91934110798E+02 -0.73445496586E+02 -0.21928098859E+03  0.27852630001E+03  0.12508647466E+03 0.  0.
          5    1    3    3  502    0  0.49082629542E+02  0.17419446265E+02 -0.14320807522E+03  0.15244201140E+03  0.41800000000E+01 0.  1.
         -5    1    3    3    0  502  0.42851481256E+02 -0.90864942852E+02 -0.76072913370E+02  0.12608428861E+03  0.41800000000E+01 0.  1.
        -11    1    1    2    0    0 -0.14837840485E+02  0.27090373913E+02 -0.47667180003E+01  0.31253343333E+02  0.00000000000E+00 0.  1.
         11    1    1    2    0    0 -0.77096270313E+02  0.46355122674E+02 -0.22716916604E+03  0.24433268773E+03  0.00000000000E+00 0. -1.
</event>
<event>
 7    1  0.2719869E-009  0.1118786E+03  0.7561462E-02  0.1257130E+00
          3   -1    0    0  501    0  0.00000000000E+00  0.00000000000E+00  0.25563976675E+02  0.25563976675E+02  0.00000000000E+00 0. -1.
         -3   -1    0    0    0  501 -0.00000000000E+00 -0.00000000000E+00 -0.57682683912E+03  0.57682683912E+03  0.00000000000E+00 0.  1.
         25    2    1    2    0    0  0.36788877250E+01  0.35262767568E+02 -0.41777687829E+03  0.43754063887E+03  0.12508914274E+03 0.  0.
          5    1    3    3  502    0 -0.36263587828E+02 -0.33819384530E+02 -0.17611811579E+03  0.18301328280E+03  0.41800000000E+01 0. -1.
         -5    1    3    3    0  502  0.39942475553E+02  0.69082152097E+02 -0.24165876250E+03  0.25452735607E+03  0.41800000000E+01 0. -1.
        -11    1    1    2    0    0  0.41771092271E+02 -0.16229287651E+02 -0.44628311438E+02  0.63244763491E+02  0.00000000000E+00 0. -1.
         11    1    1    2    0    0 -0.45449979996E+02 -0.19033479917E+02 -0.88857672715E+02  0.10160541344E+03  0.00000000000E+00 0.  1.
</event>
<event>
 7    1  0.2719869E-009  0.1064676E+03  0.7561462E-02  0.1267255E+00
          4   -1    0    0  501    0  0.00000000000E+00  0.00000000000E+00  0.35333991139E+03  0.35333991139E+03  0.00000000000E+00 0. -1.
         -4   -1    0    0    0  501 -0.00000000000E+00 -0.00000000000E+00 -0.50584202318E+02  0.50584202318E+02  0.00000000000E+00 0.  1.
         25    2    1    2    0    0  0.29278671100E+02  0.37861724228E+02  0.90601222640E+02  0.16169919609E+03  0.12508915912E+03 0.  0.
          5    1    3    3  502    0 -0.31900937012E+02  0.29126765179E+02  0.89817319807E+02  0.99753002808E+02  0.41800000000E+01 0.  1.
         -5    1    3    3    0  502  0.61179608112E+02  0.87349590497E+01  0.78390283295E+00  0.61946193281E+02  0.41800000000E+01 0.  1.
        -11    1    1    2    0    0 -0.62474882252E+02 -0.40241129381E+02  0.18467144634E+03  0.19906281044E+03  0.00000000000E+00 0.  1.
         11    1    1    2    0    0  0.33196211152E+02  0.23794051530E+01  0.27483040097E+02  0.43162107185E+02  0.00000000000E+00 0. -1.
</event>
<event>
 7    1  0.2719869E-009  0.1190922E+03  0.7561462E-02  0.1244602E+00
          2   -1    0    0  501    0  0.00000000000E+00  0.00000000000E+00  0.10508955367E+03  0.10508955367E+03  0.00000000000E+00 0. -1.
         -2   -1    0    0    0  501 -0.00000000000E+00 -0.00000000000E+00 -0.17056568502E+03  0.17056568502E+03  0.00000000000E+00 0.  1.
         25    2    1    2    0    0  0.24174736586E+02 -0.73806237970E+02 -0.40289654799E+02  0.15265024697E+03  0.12508822072E+03 0.  0.
          5    1    3    3  502    0  0.65079556028E+02 -0.69673881927E+02 -0.71867326308E+00  0.95434728096E+02  0.41800000000E+01 0.  1.
         -5    1    3    3    0  502 -0.40904819442E+02 -0.41323560432E+01 -0.39570981536E+02  0.57215518872E+02  0.41800000000E+01 0.  1.
        -11    1    1    2    0    0 -0.29008375212E+02  0.84689062193E+02 -0.44766094480E+02  0.10008859227E+03  0.00000000000E+00 0.  1.
         11    1    1    2    0    0  0.48336386265E+01 -0.10882824223E+02  0.19579617928E+02  0.22916399448E+02  0.00000000000E+00 0. -1.
</event>
<event>
 7    1  0.2719869E-009  0.8472544E+02  0.7561462E-02  0.1316152E+00
         -1   -1    0    0    0  501 -0.00000000000E+00  0.00000000000E+00  0.39609760011E+02  0.39609760011E+02  0.00000000000E+00 0.  1.
          1   -1    0    0  501    0  0.00000000000E+00 -0.00000000000E+00 -0.37076357332E+03  0.37076357332E+03  0.00000000000E+00 0. -1.
         25    2    1    2    0    0 -0.50942948369E+02  0.60644215419E+01 -0.19403679912E+03  0.23649774837E+03  0.12509574083E+03 0.  0.
          5    1    3    3  502    0 -0.69802258812E+02 -0.30831918491E+02 -0.63128799087E+02  0.99124569140E+02  0.41800000000E+01 0. -1.
         -5    1    3    3    0  502  0.18859310442E+02  0.36896340033E+02 -0.13090800004E+03  0.13737317923E+03  0.41800000000E+01 0. -1.
        -11    1    1    2    0    0  0.99915757311E+01 -0.23302508742E+01  0.13947327394E+02  0.17314433175E+02  0.00000000000E+00 0.  1.
         11    1    1    2    0    0  0.40951372638E+02 -0.37341706678E+01 -0.15106434158E+03  0.15656115179E+03  0.00000000000E+00 0. -1.
</event>
<event>
 7    1  0.2719869E-009  0.1098915E+03  0.7561462E-02  0.1260771E+00
          2   -1    0    0  501    0  0.00000000000E+00  0.00000000000E+00  0.11251358279E+04  0.11251358279E+04  0.00000000000E+00 0. -1.
         -2   -1    0    0    0  501 -0.00000000000E+00 -0.00000000000E+00 -0.20821424659E+02  0.20821424659E+02  0.00000000000E+00 0.  1.
         25    2    1    2    0    0  0.43970435346E+02  0.52218821089E+02  0.91606179629E+03  0.92708219932E+03  0.12510789429E+03 0.  0.
          5    1    3    3  502    0 -0.37408572975E+02  0.37481505491E+02  0.50332712484E+03  0.50612244722E+03  0.41800000000E+01 0. -1.
         -5    1    3    3    0  502  0.81379008321E+02  0.14737315599E+02  0.41273467146E+03  0.42095975210E+03  0.41800000000E+01 0. -1.
        -11    1    1    2    0    0 -0.47113728175E+02 -0.19507421589E+02  0.34302183301E+02  0.61456347587E+02  0.00000000000E+00 0.  1.
         11    1    1    2    0    0  0.31432928288E+01 -0.32711399501E+02  0.15395042367E+03  0.15741870567E+03  0.00000000000E+00 0. -1.
</event>
<event>
 7    1  0.2719869E-009  0.1723806E+03  0.7561462E-02  0.1175388E+00
          2   -1    0    0  501    0  0.00000000000E+00  0.00000000000E+00  0.31896322215E+03  0.31896322215E+03  0.00000000000E+00 0.  1.
         -2   -1    0    0    0  501 -0.00000000000E+00 -0.00000000000E+00 -0.12558545857E+03  0.12558545857E+03  0.00000000000E+00 0. -1.
         25    2    1    2    0    0  0.13013933049E+03 -0.73422320357E+02  0.18800879764E+02  0.19577517536E+03  0.12508942297E+03 0.  0.
          5    1    3    3  502    0 -0.17714153837E+02  0.13029985909E+02 -0.46237577250E+01  0.22856581425E+02  0.41800000000E+01 0. -1.
         -5    1    3    3    0  502  0.14785348433E+03 -0.86452306266E+02  0.23424637489E+02  0.17291859393E+03  0.41800000000E+01 0. -1.
        -11    1    1    2    0    0 -0.92901955136E+02  0.63453535217E+02  0.59203584151E+02  0.12713059732E+03  0.00000000000E+00 0. -1.
         11    1    1    2    0    0 -0.37237375354E+02  0.99687851403E+01  0.11537329966E+03  0.12164290804E+03  0.00000000000E+00 0.  1.
</event>
<event>
 7    1  0.2719869E-009  0.1026350E+03  0.7561462E-02  0.1274851E+00
         -2   -1    0    0    0  501 -0.00000000000E+00  0.00000000000E+00  0.21896621900E+03  0.21896621900E+03  0.00000000000E+00 0.  1.
          2   -1    0    0  501    0  0.00000000000E+00 -0.00000000000E+00 -0.73077930437E+02  0.73077930437E+02  0.00000000000E+00 0. -1.
         25    2    1    2    0    0 -0.16342462180E+02  0.65103228494E+02  0.58232728902E+02  0.15344050864E+03  0.12508969800E+03 0.  0.
          5    1    3    3  502    0  0.12388470384E+02  0.90402866795E+02  0.67804574177E+02  0.11375889065E+03  0.41800000000E+01 0.  1.
         -5    1    3    3    0  502 -0.28730932565E+02 -0.25299638300E+02 -0.95718452750E+01  0.39681617988E+02  0.41800000000E+01 0.  1.
        -11    1    1    2    0    0  0.26845606242E+02 -0.39668070104E+02  0.98100722796E+02  0.10916956615E+03  0.00000000000E+00 0.  1.
         11    1    1    2    0    0 -0.10503144062E+02 -0.25435158390E+02 -0.10445163133E+02  0.29434074648E+02  0.00000000000E+00 0. -1.
</event>
<event>
 7    1  0.2719869E-009  0.2559542E+03  0.7561462E-02  0.1109599E+00
          2   -1    0    0  501    0  0.00000000000E+00  0.00000000000E+00  0.13303464044E+03  0.13303464044E+03  0.00000000000E+00 0. -1.
         -2   -1    0    0    0  501 -0.00000000000E+00 -0.00000000000E+00 -0.49874237181E+03  0.49874237181E+03  0.00000000000E+00 0.  1.
         25    2    1    2    0    0  0.20642594390E+03  0.10628787990E+03 -0.18507936405E+03  0.32219634923E+03  0.12508929904E+03 0.  0.
          5    1    3    3  502    0  0.64862063715E+02  0.99345393462E+02 -0.59537242236E+02  0.13281095634E+03  0.41800000000E+01 0. -1.
         -5    1    3    3    0  502  0.14156388018E+03  0.69424864337E+01 -0.12554212182E+03  0.18938539289E+03  0.41800000000E+01 0. -1.
        -11    1    1    2    0    0 -0.10904325130E+03 -0.10871888928E+03 -0.10834824737E+03  0.18828056259E+03  0.00000000000E+00 0.  1.
         11    1    1    2    0    0 -0.97382692591E+02  0.24310093817E+01 -0.72280119947E+02  0.12130010042E+03  0.00000000000E+00 0. -1.
</event>
<event>
 7    1  0.2719869E-009  0.1801628E+03  0.7561462E-02  0.1167646E+00
         -1   -1    0    0    0  501 -0.00000000000E+00  0.00000000000E+00  0.11392496161E+03  0.11392496161E+03  0.00000000000E+00 0.  1.
          1   -1    0    0  501    0  0.00000000000E+00 -0.00000000000E+00 -0.35983528490E+03  0.35983528490E+03  0.00000000000E+00 0. -1.
         25    2    1    2    0    0 -0.15047396432E+03 -0.63665669422E+01 -0.35405697914E+02  0.19895671717E+03  0.12508902730E+03 0.  0.
          5    1    3    3  502    0 -0.71785406391E+02  0.58365975569E+02 -0.59264062124E+01  0.92802620467E+02  0.41800000000E+01 0.  1.
         -5    1    3    3    0  502 -0.78688557927E+02 -0.64732542511E+02 -0.29479291702E+02  0.10615409671E+03  0.41800000000E+01 0.  1.
        -11    1    1    2    0    0  0.28117828408E+02 -0.26924021922E+02 -0.97378459016E+02  0.10487172885E+03  0.00000000000E+00 0. -1.
         11    1    1    2    0    0  0.12235613591E+03  0.33290588864E+02 -0.11312616636E+03  0.16993180049E+03  0.00000000000E+00 0.  1.
</event>
<event>
 7    1  0.2719869E-009  0.1092647E+03  0.7561462E-02  0.1261938E+00
         -1   -1    0    0    0  501 -0.00000000000E+00  0.00000000000E+00  0.95129648050E+02  0.95129648050E+02  0.00000000000E+00 0.  1.
          1   -1    0    0  501    0  0.00000000000E+00 -0.00000000000E+00 -0.23465778763E+03  0.23465778763E+03  0.00000000000E+00 0. -1.
         25    2    1    2    0    0  0.27842374141E+02 -0.65460872411E+02  0.60778317759E+01  0.14402954377E+03  0.12508895165E+03 0.  0.
          5    1    3    3  502    0 -0.96515539424E+01 -0.95248067524E+02  0.34218317594E+01  0.95888102459E+02  0.41800000000E+01 0. -1.
         -5    1    3    3    0  502  0.37493928083E+02  0.29787195112E+02  0.26560000165E+01  0.48141441315E+02  0.41800000000E+01 0. -1.
        -11    1    1    2    0    0 -0.28766553508E+02  0.40610111462E+02 -0.15211770488E+03  0.16005152887E+03  0.00000000000E+00 0. -1.
         11    1    1    2    0    0  0.92417936745E+00  0.24850760949E+02  0.65117335257E+01  0.25706363041E+02  0.00000000000E+00 0.  1.
</event>
<event>
 7    1  0.2719869E-009  0.1209816E+03  0.7561462E-02  0.1241486E+00
         -4   -1    0    0    0  501 -0.00000000000E+00  0.00000000000E+00  0.13148206414E+03  0.13148206414E+03  0.00000000000E+00 0.  1.
          4   -1    0    0  501    0  0.00000000000E+00 -0.00000000000E+00 -0.13669710496E+03  0.13669710496E+03  0.00000000000E+00 0. -1.
         25    2    1    2    0    0  0.46412769798E+02 -0.61393915383E+02 -0.15235662591E+02  0.14766298514E+03  0.12509545843E+03 0.  0.
          5    1    3    3  502    0 -0.37085018485E+02  0.51066750808E+01  0.75935066953E+01  0.38425388356E+02  0.41800000000E+01 0.  1.
         -5    1    3    3    0  502  0.83497788283E+02 -0.66500590464E+02 -0.22829169286E+02  0.10923759678E+03  0.41800000000E+01 0.  1.
        -11    1    1    2    0    0 -0.57808308434E+02  0.63510154683E+02  0.35187254913E+02  0.92808852919E+02  0.00000000000E+00 0.  1.
         11    1    1    2    0    0  0.11395538636E+02 -0.21162392995E+01 -0.25166633147E+02  0.27707331043E+02  0.00000000000E+00 0. -1.
</event>
<event>
 7    1  0.2719869E-009  0.1819518E+03  0.7561462E-02  0.1165927E+00
          2   -1    0    0  501    0  0.00000000000E+00  0.00000000000E+00  0.32600830774E+03  0.32600830774E+03  0.00000000000E+00 0. -1.
         -2   -1    0    0    0  501 -0.00000000000E+00 -0.00000000000E+00 -0.12132091278E+03  0.12132091278E+03  0.00000000000E+00 0.  1.
         25    2    1    2    0    0 -0.15914530264E+03  0.81742030581E+01  0.51447850296E+02  0.20901549497E+03  0.12508617386E+03 0.  0.
          5    1    3    3  502    0 -0.10953512724E+03  0.55145777443E+02  0.65572219249E+02  0.13912652229E+03  0.41800000000E+01 0. -1.
         -5    1    3    3    0  502 -0.49610175400E+02 -0.46971574385E+02 -0.14124368953E+02  0.69888972676E+02  0.41800000000E+01 0. -1.
        -11    1    1    2    0    0  0.26806845616E+02 -0.28198412230E+02  0.60604063525E+01  0.39376210449E+02  0.00000000000E+00 0.  1.
         11    1    1    2    0    0  0.13233845702E+03  0.20024209172E+02  0.14717913831E+03  0.19893751510E+03  0.00000000000E+00 0. -1.
</event>
<event>
 6    1  0.2719869E-009  0.2261288E+03  0.7561462E-02  0.1129395E+00
         -1   -1    0    0    0  501 -0.00000000000E+00  0.00000000000E+00  0.33193213554E+03  0.33193213554E+03  0.00000000000E+00 0.  1.
          1   -1    0    0  501    0  0.00000000000E+00 -0.00000000000E+00 -0.15436786904E+03  0.15436786904E+03  0.00000000000E+00 0. -1.
          5    1    1    2  502    0 -0.37823189915E+02  0.25658916257E+01  0.14173306434E+02  0.40688235529E+02  0.41800000000E+01 0.  1.
         -5    1    1    2    0  502 -0.76140929281E+01 -0.19619092078E+03  0.81727132365E+02  0.21271024510E+03  0.41800000000E+01 0.  1.
        -11    1    1    2    0    0  0.26188757562E+02  0.32507268569E+01  0.55084105894E+01  0.26958502091E+02  0.00000000000E+00 0.  1.
         11    1    1    2    0    0  0.19248525281E+02  0.19037430229E+03  0.76155417115E+02  0.20594302187E+03  0.00000000000E+00 0. -1.
</event>
<event>
 7    1  0.2719869E-009  0.7505699E+02  0.7561462E-02  0.1343695E+00
          2   -1    0    0  501    0  0.00000000000E+00  0.00000000000E+00  0.34860891414E+03  0.34860891414E+03  0.00000000000E+00 0. -1.
         -2   -1    0    0    0  501 -0.00000000000E+00 -0.00000000000E+00 -0.38070815721E+02  0.38070815721E+02  0.00000000000E+00 0.  1.
         25    2    1    2    0    0 -0.80443279701E+01  0.15825657902E+02  0.23122651987E+03  0.26349325700E+03  0.12509128801E+03 0.  0.
          5    1    3    3  502    0 -0.23661636800E+02  0.32407577625E+02  0.23635495770E+03  0.23977335668E+03  0.41800000000E+01 0. -1.
         -5    1    3    3    0  502  0.15617308829E+02 -0.16581919722E+02 -0.51284378337E+01  0.23719900324E+02  0.41800000000E+01 0. -1.
        -11    1    1    2    0    0  0.46296345083E+02 -0.13785793013E+02  0.19357225572E+02  0.52039425812E+02  0.00000000000E+00 0.  1.
         11    1    1    2    0    0 -0.38252017113E+02 -0.20398648893E+01  0.59954352981E+02  0.71147047046E+02  0.00000000000E+00 0. -1.
</event>
<event>
 7    1  0.2719869E-009  0.1187120E+03  0.7561462E-02  0.1245237E+00
         -2   -1    0    0    0  501 -0.00000000000E+00  0.00000000000E+00  0.12724519159E+03  0.12724519159E+03  0.00000000000E+00 0.  1.
          2   -1    0    0  501    0  0.00000000000E+00 -0.00000000000E+00 -0.17592073181E+03  0.17592073181E+03  0.00000000000E+00 0. -1.
         25    2    1    2    0    0  0.68713251902E+01  0.86975100421E+02  0.28501752874E+02  0.15514876821E+03  0.12508759793E+03 0.  0.
          5    1    3    3  502    0  0.43945941961E+02  0.17826481639E+01  0.42254035073E+02  0.61133456710E+02  0.41800000000E+01 0. -1.
         -5    1    3    3    0  502 -0.37074616771E+02  0.85192452257E+02 -0.13752282199E+02  0.94015311498E+02  0.41800000000E+01 0. -1.
        -11    1    1    2    0    0  0.19928659893E+02 -0.55111118743E+02  0.19152450321E+01  0.58634930355E+02  0.00000000000E+00 0.  1.
         11    1    1    2    0    0 -0.26799985083E+02 -0.31863981678E+02 -0.79092538128E+02  0.89382224835E+02  0.00000000000E+00 0. -1.
</event>
<event>
 7    1  0.2719869E-009  0.1040498E+03  0.7561462E-02  0.1272003E+00
          1   -1    0    0  501    0  0.00000000000E+00  0.00000000000E+00  0.14914221169E+03  0.14914221169E+03  0.00000000000E+00 0. -1.
         -1   -1    0    0    0  501 -0.00000000000E+00 -0.00000000000E+00 -0.16977051942E+03  0.16977051942E+03  0.00000000000E+00 0.  1.
         25    2    1    2    0    0  0.96792663181E+01 -0.10538923344E+02 -0.12720945861E+03  0.17898367380E+03  0.12509257382E+03 0.  0.
          5    1    3    3  502    0 -0.13924623686E+02  0.54222837784E+02 -0.66586139046E+02  0.87093039877E+02  0.41800000000E+01 0. -1.
         -5    1    3    3    0  502  0.23603890004E+02 -0.64761761128E+02 -0.60623319561E+02  0.91890633920E+02  0.41800000000E+01 0. -1.
        -11    1    1    2    0    0 -0.30325736707E+02  0.37956653278E+02  0.88926410635E+02  0.10133244467E+03  0.00000000000E+00 0. -1.
         11    1    1    2    0    0  0.20646470388E+02 -0.27417729934E+02  0.17654740237E+02  0.38596612638E+02  0.00000000000E+00 0.  1.
</event>
<event>
 7    1  0.3636061E-009  0.7298751E+02  0.7561462E-02  0.1350219E+00
          1   -1    0    0  501    0  0.00000000000E+00  0.00000000000E+00  0.47909177822E+03  0.47909177822E+03  0.00000000000E+00 0. -1.
         -1   -1    0    0    0  501 -0.00000000000E+00 -0.00000000000E+00 -0.33583113112E+02  0.33583113112E+02  0.00000000000E+00 0.  1.
         25    2    1    2    0    0  0.25561547705E+02 -0.25536412980E+02  0.35902863903E+03  0.38190889631E+03  0.12508932939E+03 0.  0.
          5    1    3    3  502    0  0.35504499186E+02  0.23035479013E+02  0.37952709016E+02  0.57000730500E+02  0.41800000000E+01 0.  1.
         -5    1    3    3    0  502 -0.99429514812E+01 -0.48571891993E+02  0.32107593002E+03  0.32490816581E+03  0.41800000000E+01 0.  1.
        -11    1    1    2    0    0 -0.34661589093E+02  0.10680225732E+02 -0.59096984014E+01  0.36748027367E+02  0.00000000000E+00 0.  1.
         11    1    1    2    0    0  0.91000413881E+01  0.14856187248E+02  0.92389724475E+02  0.94017967652E+02  0.00000000000E+00 0. -1.
</event>
<event>
 7    1  0.2719869E-009  0.1155716E+03  0.7561462E-02  0.1250587E+00
          4   -1    0    0  501    0  0.00000000000E+00  0.00000000000E+00  0.97789066413E+02  0.97789066413E+02  0.00000000000E+00 0. -1.
         -4   -1    0    0    0  501 -0.00000000000E+00 -0.00000000000E+00 -0.24643250176E+03  0.24643250176E+03  0.00000000000E+00 0.  1.
         25    2    1    2    0    0  0.44153792044E+02  0.73228684676E+02 -0.36513666797E+01  0.15156822617E+03  0.12509035572E+03 0.  0.
          5    1    3    3  502    0  0.22067573900E+02  0.83673827074E+02  0.44511559247E+02  0.97401429464E+02  0.41800000000E+01 0. -1.
         -5    1    3    3    0  502  0.22086218143E+02 -0.10445142398E+02 -0.48162925926E+02  0.54166796706E+02  0.41800000000E+01 0. -1.
        -11    1    1    2    0    0 -0.58292801528E+02 -0.15545484115E+02 -0.41151761558E+02  0.73028626344E+02  0.00000000000E+00 0. -1.
         11    1    1    2    0    0  0.14139009485E+02 -0.57683200561E+02 -0.10384030711E+03  0.11962471566E+03  0.00000000000E+00 0.  1.
</event>
<event>
 7    1  0.2719869E-009  0.1061622E+03  0.7561462E-02  0.1267847E+00
         -1   -1    0    0    0  501 -0.00000000000E+00  0.00000000000E+00  0.45063807162E+02  0.45063807162E+02  0.00000000000E+00 0. -1.
          1   -1    0    0  501    0  0.00000000000E+00 -0.00000000000E+00 -0.29811570026E+03  0.29811570026E+03  0.00000000000E+00 0.  1.
         25    2    1    2    0    0 -0.33659858168E+01 -0.16449741744E+02 -0.20304662109E+03  0.23907571370E+03  0.12508933881E+03 0.  0.
          5    1    3    3  502    0 -0.59983470527E+02  0.12617861700E+02 -0.11461149619E+03  0.13004035770E+03  0.41800000000E+01 0.  1.
         -5    1    3    3    0  502  0.56617484710E+02 -0.29067603444E+02 -0.88435124894E+02  0.10903535601E+03  0.41800000000E+01 0.  1.
        -11    1    1    2    0    0  0.65945717211E+00 -0.35289347123E+02 -0.53368063048E+01  0.35696700207E+02  0.00000000000E+00 0. -1.
         11    1    1    2    0    0  0.27065286446E+01  0.51739088867E+02 -0.44668465710E+02  0.68407093513E+02  0.00000000000E+00 0.  1.
</event>
<event>
 7    1  0.2719869E-009  0.9443896E+02  0.7561462E-02  0.1292445E+00
         -2   -1    0    0    0  501 -0.00000000000E+00  0.00000000000E+00  0.43557780098E+02  0.43557780098E+02  0.00000000000E+00 0.  1.
          2   -1    0    0  501    0  0.00000000000E+00 -0.00000000000E+00 -0.35478522778E+03  0.35478522778E+03  0.00000000000E+00 0. -1.
         25    2    1    2    0    0  0.54155089080E+01 -0.38549603507E+02 -0.95173591678E+02  0.16192775134E+03  0.12508870626E+03 0.  0.
          5    1    3    3  502    0 -0.42616204328E+01 -0.72036178630E+02 -0.10312215749E+03  0.12593261772E+03  0.41800000000E+01 0. -1.
         -5    1    3    3    0  502  0.96771293408E+01  0.33486575122E+02  0.79485658118E+01  0.35995133618E+02  0.41800000000E+01 0. -1.
        -11    1    1    2    0    0 -0.14910318466E+02 -0.18439544065E+02 -0.17082727754E+02  0.29225912640E+02  0.00000000000E+00 0.  1.
         11    1    1    2    0    0  0.94948095576E+01  0.56989147573E+02 -0.19897112825E+03  0.20718934390E+03  0.00000000000E+00 0. -1.
</event>
<event>
 6    1  0.2719869E-009  0.9821896E+02  0.7561462E-02  0.1284086E+00
          1   -1    0    0  501    0  0.00000000000E+00  0.00000000000E+00  0.19581047806E+03  0.19581047806E+03  0.00000000000E+00 0. -1.
         -1   -1    0    0    0  501 -0.00000000000E+00 -0.00000000000E+00 -0.70714312033E+02  0.70714312033E+02  0.00000000000E+00 0.  1.
          5    1    1    2  502    0 -0.70754477811E+02 -0.19557829730E+02  0.70013343980E+02  0.10152854559E+03  0.41800000000E+01 0. -1.
         -5    1    1    2    0  502  0.40961113225E+02 -0.12059650504E+02 -0.96027919207E+01  0.43965145053E+02  0.41800000000E+01 0. -1.
        -11    1    1    2    0    0  0.40682754312E+02  0.46360092152E+02  0.77217926814E+02  0.98827895172E+02  0.00000000000E+00 0. -1.
         11    1    1    2    0    0 -0.10889389726E+02 -0.14742611917E+02 -0.12532312850E+02  0.22203204276E+02  0.00000000000E+00 0.  1.
</event>
<event>
 7    1  0.2719869E-009  0.1145793E+03  0.7561462E-02  0.1252317E+00
          2   -1    0    0  501    0  0.00000000000E+00  0.00000000000E+00  0.57142074525E+03  0.57142074525E+03  0.00000000000E+00 0. -1.
         -2   -1    0    0    0  501 -0.00000000000E+00 -0.00000000000E+00 -0.25276537386E+02  0.25276537386E+02  0.00000000000E+00 0.  1.
         25    2    1    2    0    0 -0.12653506552E+02  0.50227370997E+02  0.30706604653E+03  0.33556968471E+03  0.12503821950E+03 0.  0.
          5    1    3    3  502    0  0.52639958177E+02  0.11718354599E+01  0.10365484964E+03  0.11633631698E+03  0.41800000000E+01 0.  1.
         -5    1    3    3    0  502 -0.65293464729E+02  0.49055535537E+02  0.20341119689E+03  0.21923336773E+03  0.41800000000E+01 0.  1.
        -11    1    1    2    0    0  0.43141920467E+02 -0.10346856495E+02  0.17026311805E+03  0.17594832227E+03  0.00000000000E+00 0. -1.
         11    1    1    2    0    0 -0.30488413915E+02 -0.39880514502E+02  0.68815043282E+02  0.85179275659E+02  0.00000000000E+00 0.  1.
</event>
<event>
 7    1  0.2719869E-009  0.9473551E+02  0.7561462E-02  0.1291773E+00
          3   -1    0    0  501    0  0.00000000000E+00  0.00000000000E+00  0.20964459592E+02  0.20964459592E+02  0.00000000000E+00 0. -1.
         -3   -1    0    0    0  501 -0.00000000000E+00 -0.00000000000E+00 -0.75186642434E+03  0.75186642434E+03  0.00000000000E+00 0.  1.
         25    2    1    2    0    0 -0.18909408479E+02 -0.13869532984E+02 -0.58703314595E+03  0.60067071856E+03  0.12508983977E+03 0.  0.
          5    1    3    3  502    0  0.22080481053E+02  0.45912456370E+02 -0.17594505387E+03  0.18322018359E+03  0.41800000000E+01 0. -1.
         -5    1    3    3    0  502 -0.40989889531E+02 -0.59781989354E+02 -0.41108809208E+03  0.41745053497E+03  0.41800000000E+01 0. -1.
        -11    1    1    2    0    0 -0.15459670935E+02 -0.14490632934E+02  0.37307780406E+00  0.21192429198E+02  0.00000000000E+00 0. -1.
         11    1    1    2    0    0  0.34369079414E+02  0.28360165918E+02 -0.14424189660E+03  0.15096773618E+03  0.00000000000E+00 0.  1.
</event>
<event>
 7    1  0.3504004E-009  0.1074998E+03  0.7561462E-02  0.1265271E+00
         -1   -1    0    0    0  501 -0.00000000000E+00  0.00000000000E+00  0.24451971591E+02  0.24451971591E+02  0.00000000000E+00 0.  1.
          1   -1    0    0  501    0  0.00000000000E+00 -0.00000000000E+00 -0.56125724071E+03  0.56125724071E+03  0.00000000000E+00 0. -1.
         25    2    1    2    0    0  0.24058802998E+02 -0.20057054425E+02 -0.38401954866E+03  0.40509093926E+03  0.12508614584E+03 0.  0.
          5    1    3    3  502    0 -0.26141496657E+02  0.40583804718E+02 -0.11588331937E+03  0.12560588824E+03  0.41800000000E+01 0. -1.
         -5    1    3    3    0  502  0.50200299655E+02 -0.60640859143E+02 -0.26813622929E+03  0.27948505102E+03  0.41800000000E+01 0. -1.
        -11    1    1    2    0    0 -0.11759933252E+02  0.52088113396E+02 -0.53576007994E+02  0.75642952215E+02  0.00000000000E+00 0.  1.
         11    1    1    2    0    0 -0.12298869746E+02 -0.32031058970E+02 -0.99209712467E+02  0.10497532083E+03  0.00000000000E+00 0. -1.
</event>
<event>
 7    1  0.2719869E-009  0.1066662E+03  0.7561462E-02  0.1266871E+00
          3   -1    0    0  501    0  0.00000000000E+00  0.00000000000E+00  0.47201768367E+02  0.47201768367E+02  0.00000000000E+00 0. -1.
         -3   -1    0    0    0  501 -0.00000000000E+00 -0.00000000000E+00 -0.26705072803E+03  0.26705072803E+03  0.00000000000E+00 0.  1.
         25    2    1    2    0    0  0.27847273446E+02 -0.11466653257E+02 -0.13603024452E+03  0.18724097812E+03  0.12509197292E+03 0.  0.
          5    1    3    3  502    0  0.33060022764E+02 -0.65106843361E+02 -0.91953463700E+02  0.11749373619E+03  0.41800000000E+01 0. -1.
         -5    1    3    3    0  502 -0.52127493186E+01  0.53640190104E+02 -0.44076780820E+02  0.69747241934E+02  0.41800000000E+01 0. -1.
        -11    1    1    2    0    0 -0.16835674152E+02 -0.34757773161E+02 -0.11171396582E+02  0.40203766252E+02  0.00000000000E+00 0. -1.
         11    1    1    2    0    0 -0.11011599293E+02  0.46224426418E+02 -0.72647318558E+02  0.86807752018E+02  0.00000000000E+00 0.  1.
</event>
<event>
 7    1  0.2719869E-009  0.1058456E+03  0.7561462E-02  0.1268462E+00
          2   -1    0    0  501    0  0.00000000000E+00  0.00000000000E+00  0.32343784619E+03  0.32343784619E+03  0.00000000000E+00 0. -1.
         -2   -1    0    0    0  501 -0.00000000000E+00 -0.00000000000E+00 -0.58630800802E+02  0.58630800802E+02  0.00000000000E+00 0.  1.
         25    2    1    2    0    0  0.56812073304E+02 -0.43540017828E+02  0.86307129068E+02  0.16799298655E+03  0.12509747470E+03 0.  0.
          5    1    3    3  502    0 -0.17364151769E+02 -0.18028632864E+02 -0.22417373683E+02  0.33860838921E+02  0.41800000000E+01 0. -1.
         -5    1    3    3    0  502  0.74176225072E+02 -0.25511384964E+02  0.10872450275E+03  0.13413214763E+03  0.41800000000E+01 0. -1.
        -11    1    1    2    0    0 -0.31183961214E+02 -0.21484855135E+02  0.24900323347E+02  0.45321788800E+02  0.00000000000E+00 0.  1.
         11    1    1    2    0    0 -0.25628112089E+02  0.65024872963E+02  0.15359959297E+03  0.16875387164E+03  0.00000000000E+00 0. -1.
</event>
<event>
 7    1  0.2719869E-009  0.2470285E+03  0.7561462E-02  0.1115197E+00
          2   -1    0    0  501    0  0.00000000000E+00  0.00000000000E+00  0.35782047873E+03  0.35782047873E+03  0.00000000000E+00 0. -1.
         -2   -1    0    0    0  501 -0.00000000000E+00 -0.00000000000E+00 -0.17428992084E+03  0.17428992084E+03  0.00000000000E+00 0.  1.
         25    2    1    2    0    0  0.15823722921E+03  0.15869325920E+03  0.79217569217E+02  0.26859515216E+03  0.12508141855E+03 0.  0.
          5    1    3    3  502    0 -0.72219006008E+01  0.62942250221E+02  0.34347485259E+02  0.72187982759E+02  0.41800000000E+01 0.  1.
         -5    1    3    3    0  502  0.16545912981E+03  0.95751008981E+02  0.44870083957E+02  0.19640716940E+03  0.41800000000E+01 0.  1.
        -11    1    1    2    0    0 -0.85687823832E+02 -0.14047895456E+03  0.89310241442E+02  0.18722462192E+03  0.00000000000E+00 0.  1.
         11    1    1    2    0    0 -0.72549405375E+02 -0.18214304641E+02  0.15002747234E+02  0.76290625495E+02  0.00000000000E+00 0. -1.
</event>
<event>
 7    1  0.2719869E-009  0.1364339E+03  0.7561462E-02  0.1218210E+00
         -2   -1    0    0    0  501 -0.00000000000E+00  0.00000000000E+00  0.63968606934E+03  0.63968606934E+03  0.00000000000E+00 0. -1.
          2   -1    0    0  501    0  0.00000000000E+00 -0.00000000000E+00 -0.41628445514E+02  0.41628445514E+02  0.00000000000E+00 0.  1.
         25    2    1    2    0    0 -0.47382087304E+02 -0.97038290217E+02  0.20255697876E+03  0.26140649798E+03  0.12507012263E+03 0.  0.
          5    1    3    3  502    0  0.57847048884E+01  0.27706804407E+02  0.25320670298E+02  0.38206525168E+02  0.41800000000E+01 0.  1.
         -5    1    3    3    0  502 -0.53166792192E+02 -0.12474509462E+03  0.17723630846E+03  0.22319997281E+03  0.41800000000E+01 0.  1.
        -11    1    1    2    0    0  0.29303559413E+02  0.71754530050E+02  0.37440399940E+03  0.38234247206E+03  0.00000000000E+00 0. -1.
         11    1    1    2    0    0  0.18078527891E+02  0.25283760167E+02  0.21096645674E+02  0.37565544820E+02  0.00000000000E+00 0.  1.
</event>
<event>
 7    1  0.2719869E-009  0.1196416E+03  0.7561462E-02  0.1243690E+00
          1   -1    0    0  501    0  0.00000000000E+00  0.00000000000E+00  0.65705621392E+03  0.65705621392E+03  0.00000000000E+00 0. -1.
         -1   -1    0    0    0  501 -0.00000000000E+00 -0.00000000000E+00 -0.25713341542E+02  0.25713341542E+02  0.00000000000E+00 0.  1.
         25    2    1    2    0    0 -0.67653620309E+02  0.23554994291E+02  0.33999801248E+03  0.36929464506E+03  0.12509211120E+03 0.  0.
          5    1    3    3  502    0 -0.24759836495E+02 -0.47909985569E+02  0.82857860752E+02  0.98951067245E+02  0.41800000000E+01 0. -1.
         -5    1    3    3    0  502 -0.42893783814E+02  0.71464979859E+02  0.25714015172E+03  0.27034357781E+03  0.41800000000E+01 0. -1.
        -11    1    1    2    0    0 -0.60519966834E+00 -0.32843960662E+02  0.34855698913E+02  0.47895842882E+02  0.00000000000E+00 0.  1.
         11    1    1    2    0    0  0.68258819977E+02  0.92889663720E+01  0.25648916099E+03  0.26557906752E+03  0.00000000000E+00 0. -1.
</event>
<event>
 7    1  0.2719869E-009  0.1132485E+03  0.7561462E-02  0.1254670E+00
         -2   -1    0    0    0  501 -0.00000000000E+00  0.00000000000E+00  0.97663059586E+01  0.97663059586E+01  0.00000000000E+00 0.  1.
          2   -1    0    0  501    0  0.00000000000E+00 -0.00000000000E+00 -0.14210023692E+04  0.14210023692E+04  0.00000000000E+00 0. -1.
         25    2    1    2    0    0 -0.22956813353E+02 -0.41395769608E+02 -0.87417113694E+03  0.88434327300E+03  0.12508885972E+03 0.  0.
          5    1    3    3  502    0 -0.20917268643E+02  0.39658457487E+02 -0.46637196562E+03  0.46854093535E+03  0.41800000000E+01 0. -1.
         -5    1    3    3    0  502 -0.20395447094E+01 -0.81054227095E+02 -0.40779917132E+03  0.41580233765E+03  0.41800000000E+01 0. -1.
        -11    1    1    2    0    0  0.53509217102E+02  0.65075439478E+01 -0.31364170613E+03  0.31824001047E+03  0.00000000000E+00 0. -1.
         11    1    1    2    0    0 -0.30552403749E+02  0.34888225660E+02 -0.22342322018E+03  0.22818539168E+03  0.00000000000E+00 0.  1.
</event>
<event>
 7    1  0.2719869E-009  0.1198340E+03  0.7561462E-02  0.1243371E+00
          2   -1    0    0  501    0  0.00000000000E+00  0.00000000000E+00  0.18217046893E+03  0.18217046893E+03  0.00000000000E+00 0. -1.
         -2   -1    0    0    0  501 -0.00000000000E+00 -0.00000000000E+00 -0.95385070961E+02  0.95385070961E+02  0.00000000000E+00 0.  1.
         25    2    1    2    0    0  0.41390450673E+02  0.62668110506E+02  0.43285183872E+02  0.15218855514E+03  0.12508911900E+03 0.  0.
          5    1    3    3  502    0  0.31737360262E+02  0.10110543133E+03  0.31303031846E+02  0.11057540633E+03  0.41800000000E+01 0. -1.
         -5    1    3    3    0  502  0.96530904105E+01 -0.38437320828E+02  0.11982152026E+02  0.41613148812E+02  0.41800000000E+01 0. -1.
        -11    1    1    2    0    0 -0.43630839920E+02 -0.15138145762E+02 -0.16274330545E+02  0.48965982926E+02  0.00000000000E+00 0.  1.
         11    1    1    2    0    0  0.22403892470E+01 -0.47529964744E+02  0.59774544641E+02  0.76401001823E+02  0.00000000000E+00 0. -1.
</event>
<event>
 7    1  0.2719869E-009  0.1233021E+03  0.7561462E-02  0.1237747E+00
         -1   -1    0    0    0  501 -0.00000000000E+00  0.00000000000E+00  0.25535381652E+02  0.25535381652E+02  0.00000000000E+00 0.  1.
          1   -1    0    0  501    0  0.00000000000E+00 -0.00000000000E+00 -0.73040643754E+03  0.73040643754E+03  0.00000000000E+00 0. -1.
         25    2    1    2    0    0 -0.73610635535E+02  0.82982443341E+01 -0.26311588242E+03  0.30060763604E+03  0.12509035431E+03 0.  0.
          5    1    3    3  502    0  0.97529265381E+01 -0.39057813471E+02 -0.13239044980E+03  0.13843892505E+03  0.41800000000E+01 0. -1.
         -5    1    3    3    0  502 -0.83363562073E+02  0.47356057805E+02 -0.13072543262E+03  0.16216871100E+03  0.41800000000E+01 0. -1.
        -11    1    1    2    0    0 -0.11603286504E+02  0.17618773209E+02 -0.74153470404E+02  0.77096008976E+02  0.00000000000E+00 0.  1.
         11    1    1    2    0    0  0.85213922039E+02 -0.25917017543E+02 -0.36760170307E+03  0.37823817418E+03  0.00000000000E+00 0. -1.
</event>
<event>
 7    1  0.2719869E-009  0.9379421E+02  0.7561462E-02  0.1293915E+00
         -1   -1    0    0    0  501 -0.00000000000E+00  0.00000000000E+00  0.90175246905E+02  0.90175246905E+02  0.00000000000E+00 0.  1.
          1   -1    0    0  501    0  0.00000000000E+00 -0.00000000000E+00 -0.13533673517E+03  0.13533673517E+03  0.00000000000E+00 0. -1.
         25    2    1    2    0    0  0.17847572646E+02 -0.11766567170E+02 -0.28300393898E+02  0.13001994143E+03  0.12508910793E+03 0.  0.
          5    1    3    3  502    0 -0.32942339741E+02  0.32482473263E+02 -0.40267905943E+02  0.61475893372E+02  0.41800000000E+01 0.  1.
         -5    1    3    3    0  502  0.50789912387E+02 -0.44249040433E+02  0.11967512045E+02  0.68544048057E+02  0.41800000000E+01 0.  1.
        -11    1    1    2    0    0 -0.44694516124E+02  0.95957262277E+00  0.19708503919E+02  0.48856378068E+02  0.00000000000E+00 0.  1.
         11    1    1    2    0    0  0.26846943478E+02  0.10806994547E+02 -0.36569598286E+02  0.46635662578E+02  0.00000000000E+00 0. -1.
</event>
<event>
 7    1  0.2719869E-009  0.6890484E+02  0.7561462E-02  0.1363857E+00
         -2   -1    0    0    0  501 -0.00000000000E+00  0.00000000000E+00  0.56097985755E+03  0.56097985755E+03  0.00000000000E+00 0.  1.
          2   -1    0    0  501    0  0.00000000000E+00 -0.00000000000E+00 -0.28015678040E+02  0.28015678040E+02  0.00000000000E+00 0. -1.
         25    2    1    2    0    0  0.51611481752E+02 -0.63437198102E+01  0.31871880057E+03  0.34631339172E+03  0.12508918264E+03 0.  0.
          5    1    3    3  502    0  0.26151067121E+02 -0.14398652554E+02  0.31784362039E+03  0.31926985284E+03  0.41800000000E+01 0. -1.
         -5    1    3    3    0  502  0.25460414631E+02  0.80549327440E+01  0.87518018002E+00  0.27043538878E+02  0.41800000000E+01 0. -1.
        -11    1    1    2    0    0 -0.65785915418E+01  0.29342049205E+02  0.91300886909E+01  0.31425980299E+02  0.00000000000E+00 0. -1.
         11    1    1    2    0    0 -0.45032890210E+02 -0.22998329395E+02  0.20511529025E+03  0.21125616358E+03  0.00000000000E+00 0.  1.
</event>
<event>
 7    1  0.2719869E-009  0.1349931E+03  0.7561462E-02  0.1220229E+00
          1   -1    0    0  501    0  0.00000000000E+00  0.00000000000E+00  0.39783112638E+03  0.39783112638E+03  0.00000000000E+00 0. -1.
         -1   -1    0    0    0  501 -0.00000000000E+00 -0.00000000000E+00 -0.59978115797E+02  0.59978115797E+02  0.00000000000E+00 0.  1.
         25    2    1    2    0    0 -0.11063351383E+03 -0.72671089471E+01  0.17116490674E+03  0.23923618507E+03  0.12507574383E+03 0.  0.
          5    1    3    3  502    0  0.20199661828E+02 -0.14839764710E+01  0.72006435728E+02  0.74917472664E+02  0.41800000000E+01 0. -1.
         -5    1    3    3    0  502 -0.13083317566E+03 -0.57831324761E+01  0.99158471010E+02  0.16431871241E+03  0.41800000000E+01 0. -1.
        -11    1    1    2    0    0  0.89362748674E+02 -0.11260256176E+02  0.16768866780E+03  0.19034700819E+03  0.00000000000E+00 0.  1.
         11    1    1    2    0    0  0.21270765157E+02  0.18527365123E+02 -0.10005639565E+01  0.28226048909E+02  0.00000000000E+00 0. -1.
</event>
<event>
 7    1  0.2719869E-009  0.1376925E+03  0.7561462E-02  0.1216468E+00
          1   -1    0    0  501    0  0.00000000000E+00  0.00000000000E+00  0.44530266132E+03  0.44530266132E+03  0.00000000000E+00 0.  1.
         -1   -1    0    0    0  501 -0.00000000000E+00 -0.00000000000E+00 -0.53469062983E+02  0.53469062983E+02  0.00000000000E+00 0. -1.
         25    2    1    2    0    0  0.21747851649E+02  0.94359703793E+02  0.29542268792E+03  0.33511732351E+03  0.12510928513E+03 0.  0.
          5    1    3    3  502    0 -0.48821581911E+02  0.60746692496E+02  0.12172742851E+03  0.14459857109E+03  0.41800000000E+01 0.  1.
         -5    1    3    3    0  502  0.70569433561E+02  0.33613011297E+02  0.17369525941E+03  0.19051875242E+03  0.41800000000E+01 0.  1.
        -11    1    1    2    0    0 -0.19475736655E+02 -0.10570844049E+03  0.10419982444E+03  0.14970364766E+03  0.00000000000E+00 0.  1.
         11    1    1    2    0    0 -0.22721149947E+01  0.11348736699E+02 -0.77889140271E+01  0.13950753131E+02  0.00000000000E+00 0. -1.
</event>
<event>
 7    1  0.2719869E-009  0.1151245E+03  0.7561462E-02  0.1251364E+00
          3   -1    0    0  501    0  0.00000000000E+00  0.00000000000E+00  0.25046777400E+02  0.25046777400E+02  0.00000000000E+00 0. -1.
         -3   -1    0    0    0  501 -0.00000000000E+00 -0.00000000000E+00 -0.88630642000E+03  0.88630642000E+03  0.00000000000E+00 0.  1.
         25    2    1    2    0    0 -0.86244067697E+02  0.16441827884E+02 -0.62478559626E+03  0.64320289595E+03  0.12507818018E+03 0.  0.
          5    1    3    3  502    0 -0.60694889140E+02 -0.28155546020E+02 -0.53869154361E+03  0.54284680703E+03  0.41800000000E+01 0.  1.
         -5    1    3    3    0  502 -0.25549178557E+02  0.44597373904E+02 -0.86094052645E+02  0.10035608893E+03  0.41800000000E+01 0.  1.
        -11    1    1    2    0    0  0.58102705990E+02 -0.43517335200E+02 -0.20660046826E+03  0.21898273080E+03  0.00000000000E+00 0.  1.
         11    1    1    2    0    0  0.28141361707E+02  0.27075507316E+02 -0.29873578085E+02  0.49167570641E+02  0.00000000000E+00 0. -1.
</event>
<event>
 7    1  0.2719869E-009  0.1334010E+03  0.7561462E-02  0.1222495E+00
          3   -1    0    0  501    0  0.00000000000E+00  0.00000000000E+00  0.10135080973E+03  0.10135080973E+03  0.00000000000E+00 0. -1.
         -3   -1    0    0    0  501 -0.00000000000E+00 -0.00000000000E+00 -0.17849930926E+03  0.17849930926E+03  0.00000000000E+00 0.  1.
         25    2    1    2    0    0 -0.74268646079E+02 -0.32972435660E+02 -0.44485656776E+02  0.15565253641E+03  0.12508287304E+03 0.  0.
          5    1    3    3  502    0  0.24799734811E+02 -0.41011134902E+02 -0.25235399512E+02  0.54325296328E+02  0.41800000000E+01 0. -1.
         -5    1    3    3    0  502 -0.99068380890E+02  0.80386992419E+01 -0.19250257264E+02  0.10132724008E+03  0.41800000000E+01 0. -1.
        -11    1    1    2    0    0  0.73781569993E+02 -0.11555619400E+02 -0.26495541587E+02  0.79241820615E+02  0.00000000000E+00 0.  1.
         11    1    1    2    0    0  0.48707608558E+00  0.44528055060E+02 -0.61673011677E+01  0.44955761969E+02  0.00000000000E+00 0. -1.
</event>
<event>
 7    1  0.2719869E-009  0.1217357E+03  0.7561462E-02  0.1240261E+00
         -1   -1    0    0    0  501 -0.00000000000E+00  0.00000000000E+00  0.59667416897E+03  0.59667416897E+03  0.00000000000E+00 0.  1.
          1   -1    0    0  501    0  0.00000000000E+00 -0.00000000000E+00 -0.31754144498E+02  0.31754144498E+02  0.00000000000E+00 0. -1.
         25    2    1    2    0    0 -0.47037208759E+02  0.72796985989E+02  0.33667241293E+03  0.36946926556E+03  0.12508926569E+03 0.  0.
          5    1    3    3  502    0 -0.47530080118E+01  0.80795797930E+02  0.99216322829E+02  0.12810895037E+03  0.41800000000E+01 0.  1.
         -5    1    3    3    0  502 -0.42284200747E+02 -0.79988119414E+01  0.23745609010E+03  0.24136031519E+03  0.41800000000E+01 0.  1.
        -11    1    1    2    0    0  0.68164374498E+02 -0.36828931768E+02  0.17447256227E+03  0.19090161642E+03  0.00000000000E+00 0. -1.
         11    1    1    2    0    0 -0.21127165738E+02 -0.35968054221E+02  0.53775049272E+02  0.68057431488E+02  0.00000000000E+00 0.  1.
</event>
<event>
 7    1  0.2719869E-009  0.1273367E+03  0.7561462E-02  0.1231462E+00
         -1   -1    0    0    0  501 -0.00000000000E+00  0.00000000000E+00  0.71048881417E+03  0.71048881417E+03  0.00000000000E+00 0.  1.
          1   -1    0    0  501    0  0.00000000000E+00 -0.00000000000E+00 -0.49851940054E+02  0.49851940054E+02  0.00000000000E+00 0. -1.
         25    2    1    2    0    0  0.68439396872E+02  0.72667429921E+02  0.58279144544E+03  0.60436765855E+03  0.12509952601E+03 0.  0.
          5    1    3    3  502    0  0.45226724379E+02 -0.18560789874E+02  0.34689732812E+03  0.35035009373E+03  0.41800000000E+01 0.  1.
         -5    1    3    3    0  502  0.23212672493E+02  0.91228219796E+02  0.23589411732E+03  0.25401756482E+03  0.41800000000E+01 0.  1.
        -11    1    1    2    0    0  0.75607778328E+01 -0.11780002609E+02 -0.15634437917E+02  0.20984982056E+02  0.00000000000E+00 0. -1.
         11    1    1    2    0    0 -0.76000174705E+02 -0.60887427313E+02  0.93479866590E+02  0.13498811362E+03  0.00000000000E+00 0.  1.
</event>
<event>
 7    1  0.2719869E-009  0.7435122E+02  0.7561462E-02  0.1345892E+00
         -4   -1    0    0    0  501 -0.00000000000E+00  0.00000000000E+00  0.22147257771E+03  0.22147257771E+03  0.00000000000E+00 0.  1.
          4   -1    0    0  501    0  0.00000000000E+00 -0.00000000000E+00 -0.56322882884E+02  0.56322882884E+02  0.00000000000E+00 0. -1.
         25    2    1    2    0    0  0.71243499379E+01  0.15689164546E+01  0.13919171136E+03  0.18727983517E+03  0.12508471645E+03 0.  0.
          5    1    3    3  502    0 -0.43464508969E+02  0.20838179705E+02  0.13297831763E+02  0.50176667913E+02  0.41800000000E+01 0.  1.
         -5    1    3    3    0  502  0.50588858906E+02 -0.19269263250E+02  0.12589387960E+03  0.13710316726E+03  0.41800000000E+01 0.  1.
        -11    1    1    2    0    0 -0.15326515559E+02 -0.20381709881E+02  0.51668138361E+02  0.57618683589E+02  0.00000000000E+00 0.  1.
         11    1    1    2    0    0  0.82021656207E+01  0.18812793426E+02 -0.25710154896E+02  0.32896941836E+02  0.00000000000E+00 0. -1.
</event>
<event>
 7    1  0.2719869E-009  0.1025969E+03  0.7561462E-02  0.1274928E+00
         -2   -1    0    0    0  501 -0.00000000000E+00  0.00000000000E+00  0.23212038970E+03  0.23212038970E+03  0.00000000000E+00 0.  1.
          2   -1    0    0  501    0  0.00000000000E+00 -0.00000000000E+00 -0.72231085299E+02  0.72231085299E+02  0.00000000000E+00 0. -1.
         25    2    1    2    0    0 -0.70039621956E+02 -0.19524601247E+01  0.59913410006E+02  0.15539156469E+03  0.12509021118E+03 0.  0.
          5    1    3    3  502    0 -0.14487063757E+02 -0.32814676813E+02  0.80688864582E+02  0.88401602350E+02  0.41800000000E+01 0.  1.
         -5    1    3    3    0  502 -0.55552558199E+02  0.30862216688E+02 -0.20775454576E+02  0.66989962339E+02  0.41800000000E+01 0.  1.
        -11    1    1    2    0    0  0.86789687239E+02 -0.57037531778E+01  0.62185285757E+02  0.10692049558E+03  0.00000000000E+00 0. -1.
         11    1    1    2    0    0 -0.16750065283E+02  0.76562133025E+01  0.37790608637E+02  0.42039414723E+02  0.00000000000E+00 0.  1.
</event>
<event>
 7    1  0.2719869E-009  0.8649336E+02  0.7561462E-02  0.1311573E+00
         -2   -1    0    0    0  501 -0.00000000000E+00  0.00000000000E+00  0.22090294438E+02  0.22090294438E+02  0.00000000000E+00 0.  1.
          2   -1    0    0  501    0  0.00000000000E+00 -0.00000000000E+00 -0.52018266480E+03  0.52018266480E+03  0.00000000000E+00 0. -1.
         25    2    1    2    0    0 -0.16626333834E+02 -0.88731060863E+01 -0.27303703755E+03  0.30091923544E+03  0.12509194776E+03 0.  0.
          5    1    3    3  502    0  0.10054628286E+01 -0.52605774749E+02 -0.23305125859E+03  0.23895342647E+03  0.41800000000E+01 0.  1.
         -5    1    3    3    0  502 -0.17631796663E+02  0.43732668663E+02 -0.39985778959E+02  0.61965808967E+02  0.41800000000E+01 0.  1.
        -11    1    1    2    0    0 -0.27355818539E+02 -0.24078521752E+01 -0.15801795498E+03  0.16038644786E+03  0.00000000000E+00 0. -1.
         11    1    1    2    0    0  0.43982152374E+02  0.11280958261E+02 -0.67037377833E+02  0.80967275942E+02  0.00000000000E+00 0.  1.
</event>
<event>
 7    1  0.2719869E-009  0.9371468E+02  0.7561462E-02  0.1294097E+00
         -1   -1    0    0    0  501 -0.00000000000E+00  0.00000000000E+00  0.37105704431E+03  0.37105704431E+03  0.00000000000E+00 0.  1.
          1   -1    0    0  501    0  0.00000000000E+00 -0.00000000000E+00 -0.34964495797E+02  0.34964495797E+02  0.00000000000E+00 0. -1.
         25    2    1    2    0    0 -0.35067803494E+02 -0.67032732059E+01  0.17063807302E+03  0.21457151637E+03  0.12509555932E+03 0.  0.
          5    1    3    3  502    0  0.30279913154E+02 -0.76882417532E+01 -0.29730000910E+00  0.31520516956E+02  0.41800000000E+01 0. -1.
         -5    1    3    3    0  502 -0.65347716648E+02  0.98496854727E+00  0.17093537303E+03  0.18305099942E+03  0.41800000000E+01 0. -1.
        -11    1    1    2    0    0 -0.22146721650E+02 -0.17571173103E+02  0.86291686502E+02  0.90804617523E+02  0.00000000000E+00 0.  1.
         11    1    1    2    0    0  0.57214525144E+02  0.24274446309E+02  0.79162788986E+02  0.10064540621E+03  0.00000000000E+00 0. -1.
</event>
<event>
 7    1  0.2719869E-009  0.1095630E+03  0.7561462E-02  0.1261381E+00
          1   -1    0    0  501    0  0.00000000000E+00  0.00000000000E+00  0.82301487556E+02  0.82301487556E+02  0.00000000000E+00 0. -1.
         -1   -1    0    0    0  501 -0.00000000000E+00 -0.00000000000E+00 -0.14915411500E+03  0.14915411500E+03  0.00000000000E+00 0.  1.
         25    2    1    2    0    0  0.10776287598E+01  0.23128161455E+02 -0.33056499665E+02  0.13144097914E+03  0.12509166915E+03 0.  0.
          5    1    3    3  502    0  0.58521058116E+02  0.33543446760E+02 -0.26314479526E+02  0.72524487563E+02  0.41800000000E+01 0.  1.
         -5    1    3    3    0  502 -0.57443429356E+02 -0.10415285306E+02 -0.67420201384E+01  0.58916491577E+02  0.41800000000E+01 0.  1.
        -11    1    1    2    0    0  0.10998949916E+02 -0.56481300854E+02 -0.13345865261E+02  0.59069673818E+02  0.00000000000E+00 0.  1.
         11    1    1    2    0    0 -0.12076578676E+02  0.33353139399E+02 -0.20450262513E+02  0.40944949593E+02  0.00000000000E+00 0. -1.
</event>
<event>
 6    1  0.3465161E-009  0.8551579E+02  0.7561462E-02  0.1314089E+00
          1   -1    0    0  501    0  0.00000000000E+00  0.00000000000E+00  0.50105393394E+02  0.50105393394E+02  0.00000000000E+00 0. -1.
         -1   -1    0    0    0  501 -0.00000000000E+00 -0.00000000000E+00 -0.26728585154E+03  0.26728585154E+03  0.00000000000E+00 0.  1.
          5    1    1    2  502    0 -0.31880894727E+02  0.34120597542E+02 -0.99653999024E+02  0.11013173270E+03  0.41800000000E+01 0. -1.
         -5    1    1    2    0  502  0.16412171570E+02 -0.69179426374E+02 -0.42617257959E+02  0.82999129424E+02  0.41800000000E+01 0. -1.
        -11    1    1    2    0    0  0.19487660822E+02  0.19626427869E+01 -0.86709700918E+02  0.88894280606E+02  0.00000000000E+00 0.  1.
         11    1    1    2    0    0 -0.40189376651E+01  0.33096186045E+02  0.11800499759E+02  0.35366102206E+02  0.00000000000E+00 0. -1.
</event>
<event>
 7    1  0.2719869E-009  0.7309058E+02  0.7561462E-02  0.1349888E+00
          1   -1    0    0  501    0  0.00000000000E+00  0.00000000000E+00  0.16503494916E+03  0.16503494916E+03  0.00000000000E+00 0. -1.
         -1   -1    0    0    0  501 -0.00000000000E+00 -0.00000000000E+00 -0.73923290677E+02  0.73923290677E+02  0.00000000000E+00 0.  1.
         25    2    1    2    0    0  0.19103678988E+02  0.42794034791E+01  0.51736514117E+02  0.13677649881E+03  0.12509148607E+03 0.  0.
          5    1    3    3  502    0  0.37885778083E+02 -0.38591072526E+02  0.68061178889E+02  0.87031026258E+02  0.41800000000E+01 0.  1.
         -5    1    3    3    0  502 -0.18782099095E+02  0.42870476005E+02 -0.16324664773E+02  0.49745472551E+02  0.41800000000E+01 0.  1.
        -11    1    1    2    0    0 -0.30533448963E+02  0.40582964041E+01 -0.22860458775E+02  0.38358334826E+02  0.00000000000E+00 0.  1.
         11    1    1    2    0    0  0.11429769974E+02 -0.83376998832E+01  0.62235603137E+02  0.63823406199E+02  0.00000000000E+00 0. -1.
</event>
<event>
 7    1  0.2719869E-009  0.1039319E+03  0.7561462E-02  0.1272238E+00
         -2   -1    0    0    0  501 -0.00000000000E+00  0.00000000000E+00  0.38833107027E+03  0.38833107027E+03  0.00000000000E+00 0.  1.
          2   -1    0    0  501    0  0.00000000000E+00 -0.00000000000E+00 -0.39574134608E+02  0.39574134608E+02  0.00000000000E+00 0. -1.
         25    2    1    2    0    0  0.60143694821E+02 -0.61981993898E+01  0.20053981682E+03  0.24396486745E+03  0.12508779604E+03 0.  0.
          5    1    3    3  502    0 -0.13014325246E+02  0.42267796366E+02  0.34993007674E+02  0.56550174688E+02  0.41800000000E+01 0.  1.
         -5    1    3    3    0  502  0.73158020067E+02 -0.48465995755E+02  0.16554680914E+03  0.18741469276E+03  0.41800000000E+01 0.  1.
        -11    1    1    2    0    0 -0.26796390871E+02  0.25554215578E+02  0.13960562882E+03  0.14443266977E+03  0.00000000000E+00 0.  1.
         11    1    1    2    0    0 -0.33347303950E+02 -0.19356016188E+02  0.86114900199E+01  0.39507667658E+02  0.00000000000E+00 0. -1.
</event>
<event>
 7    1  0.2719869E-009  0.1703844E+03  0.7561462E-02  0.1177448E+00
          1   -1    0    0  501    0  0.00000000000E+00  0.00000000000E+00  0.83755873615E+02  0.83755873615E+02  0.00000000000E+00 0. -1.
         -1   -1    0    0    0  501 -0.00000000000E+00 -0.00000000000E+00 -0.43697703027E+03  0.43697703027E+03  0.00000000000E+00 0.  1.
         25    2    1    2    0    0 -0.10659691471E+03  0.11406701352E+03 -0.21859753635E+03  0.29631374111E+03  0.12507103770E+03 0.  0.
          5    1    3    3  502    0 -0.57749313672E+02  0.97926544314E+02 -0.58139667733E+02  0.12775869706E+03  0.41800000000E+01 0.  1.
         -5    1    3    3    0  502 -0.48847601037E+02  0.16140469211E+02 -0.16045786861E+03  0.16855504404E+03  0.41800000000E+01 0.  1.
        -11    1    1    2    0    0  0.52758534842E+02 -0.40583323266E+01 -0.19686744857E+02  0.56457957658E+02  0.00000000000E+00 0.  1.
         11    1    1    2    0    0  0.53838379867E+02 -0.11000868120E+03 -0.11493687545E+03  0.16796120512E+03  0.00000000000E+00 0. -1.
</event>
<event>
 7    1  0.2719869E-009  0.1212282E+03  0.7561462E-02  0.1241085E+00
          2   -1    0    0  501    0  0.00000000000E+00  0.00000000000E+00  0.17663874523E+03  0.17663874523E+03  0.00000000000E+00 0. -1.
         -2   -1    0    0    0  501 -0.00000000000E+00 -0.00000000000E+00 -0.11943101492E+03  0.11943101492E+03  0.00000000000E+00 0.  1.
         25    2    1    2    0    0  0.11459635482E+02  0.75557475313E+02 -0.28617702307E+02  0.14935455146E+03  0.12509018282E+03 0.  0.
          5    1    3    3  502    0  0.40953190196E+01 -0.35000926367E+02 -0.10453608463E+02  0.36994415988E+02  0.41800000000E+01 0. -1.
         -5    1    3    3    0  502  0.73643164622E+01  0.11055840168E+03 -0.18164093843E+02  0.11236013548E+03  0.41800000000E+01 0. -1.
        -11    1    1    2    0    0 -0.32688903126E+02 -0.24682614236E+02  0.81750631662E+02  0.91438294003E+02  0.00000000000E+00 0. -1.
         11    1    1    2    0    0  0.21229267644E+02 -0.50874861077E+02  0.40748009504E+01  0.55276914685E+02  0.00000000000E+00 0.  1.
</event>
<event>
 7    1  0.2719869E-009  0.1337012E+03  0.7561462E-02  0.1222065E+00
          1   -1    0    0  501    0  0.00000000000E+00  0.00000000000E+00  0.68399329553E+02  0.68399329553E+02  0.00000000000E+00 0. -1.
         -1   -1    0    0    0  501 -0.00000000000E+00 -0.00000000000E+00 -0.32677994978E+03  0.32677994978E+03  0.00000000000E+00 0.  1.
         25    2    1    2    0    0  0.82281980483E+02  0.54754282476E+02 -0.11016117638E+03  0.19378177226E+03  0.12509010640E+03 0.  0.
          5    1    3    3  502    0  0.10315200751E+03  0.20056867782E+02 -0.39705696807E+02  0.11241276332E+03  0.41800000000E+01 0.  1.
         -5    1    3    3    0  502 -0.20870027026E+02  0.34697414695E+02 -0.70455479574E+02  0.81369008944E+02  0.41800000000E+01 0.  1.
        -11    1    1    2    0    0 -0.16647267706E+02 -0.53342636427E+02 -0.23834557506E+02  0.60750757316E+02  0.00000000000E+00 0. -1.
         11    1    1    2    0    0 -0.65634712777E+02 -0.14116460497E+01 -0.12438488634E+03  0.14064674975E+03  0.00000000000E+00 0.  1.
</event>
<event>
 7    1  0.2935309E-009  0.1274614E+03  0.7561462E-02  0.1231272E+00
          3   -1    0    0  501    0  0.00000000000E+00  0.00000000000E+00  0.27877702805E+03  0.27877702805E+03  0.00000000000E+00 0. -1.
         -3   -1    0    0    0  501 -0.00000000000E+00 -0.00000000000E+00 -0.62907737407E+02  0.62907737407E+02  0.00000000000E+00 0.  1.
         25    2    1    2    0    0 -0.67007326176E+02  0.32116538173E+02  0.13688353448E+03  0.19976546397E+03  0.12509070627E+03 0.  0.
          5    1    3    3  502    0 -0.64861840444E+02  0.74844283932E+02  0.74479528964E+02  0.12398950689E+03  0.41800000000E+01 0.  1.
         -5    1    3    3    0  502 -0.21454857320E+01 -0.42727745759E+02  0.62404005521E+02  0.75775957082E+02  0.41800000000E+01 0.  1.
        -11    1    1    2    0    0  0.87276277846E+02 -0.21308703402E+02  0.43922787754E+02  0.10000210397E+03  0.00000000000E+00 0. -1.
         11    1    1    2    0    0 -0.20268951670E+02 -0.10807834771E+02  0.35062968409E+02  0.41917197520E+02  0.00000000000E+00 0.  1.
</event>
<event>
 7    1  0.2719869E-009  0.1012782E+03  0.7561462E-02  0.1277631E+00
         -1   -1    0    0    0  501 -0.00000000000E+00  0.00000000000E+00  0.15356346439E+03  0.15356346439E+03  0.00000000000E+00 0.  1.
          1   -1    0    0  501    0  0.00000000000E+00 -0.00000000000E+00 -0.95801509214E+02  0.95801509214E+02  0.00000000000E+00 0. -1.
         25    2    1    2    0    0 -0.18788621542E+02 -0.46475382854E+02  0.71002885680E+01  0.13494533122E+03  0.12508738869E+03 0.  0.
          5    1    3    3  502    0 -0.59375775936E+02 -0.29601655860E+02  0.42027159679E+02  0.78647920179E+02  0.41800000000E+01 0.  1.
         -5    1    3    3    0  502  0.40587154394E+02 -0.16873726994E+02 -0.34926871111E+02  0.56297411043E+02  0.41800000000E+01 0.  1.
        -11    1    1    2    0    0  0.48987193972E+02  0.26214006175E+02  0.46248210136E+01  0.55752204104E+02  0.00000000000E+00 0. -1.
         11    1    1    2    0    0 -0.30198572430E+02  0.20261376679E+02  0.46036845590E+02  0.58667438274E+02  0.00000000000E+00 0.  1.
</event>
<event>
 7    1  0.2924285E-009  0.3066635E+03  0.7561462E-02  0.1081956E+00
         -2   -1    0    0    0  501 -0.00000000000E+00  0.00000000000E+00  0.16434852507E+03  0.16434852507E+03  0.00000000000E+00 0. -1.
          2   -1    0    0  501    0  0.00000000000E+00 -0.00000000000E+00 -0.74767375456E+03  0.74767375456E+03  0.00000000000E+00 0.  1.
         25    2    1    2    0    0 -0.29599481111E+03 -0.44146405950E+02 -0.48636111532E+03  0.58459963623E+03  0.12509103415E+03 0.  0.
          5    1    3    3  502    0 -0.24566218188E+03 -0.55313567060E+02 -0.46462685967E+03  0.52849322553E+03  0.41800000000E+01 0. -1.
         -5    1    3    3    0  502 -0.50332629232E+02  0.11167161110E+02 -0.21734255643E+02  0.56106410695E+02  0.41800000000E+01 0. -1.
        -11    1    1    2    0    0  0.16824154494E+03 -0.15126862092E+02 -0.75254990126E+02  0.18492526312E+03  0.00000000000E+00 0.  1.
         11    1    1    2    0    0  0.12775326617E+03  0.59273268042E+02 -0.21709124054E+02  0.14249738028E+03  0.00000000000E+00 0. -1.
</event>
<event>
 7    1  0.2719869E-009  0.9286606E+02  0.7561462E-02  0.1296056E+00
         -2   -1    0    0    0  501 -0.00000000000E+00  0.00000000000E+00  0.90229762897E+02  0.90229762897E+02  0.00000000000E+00 0.  1.
          2   -1    0    0  501    0  0.00000000000E+00 -0.00000000000E+00 -0.25023205709E+03  0.25023205709E+03  0.00000000000E+00 0. -1.
         25    2    1    2    0    0  0.51326379181E+02 -0.51901623887E+02 -0.17009375622E+03  0.22339817237E+03  0.12508669693E+03 0.  0.
          5    1    3    3  502    0  0.94710953367E+01  0.10599896425E+02  0.16495975616E+02  0.22173160862E+02  0.41800000000E+01 0. -1.
         -5    1    3    3    0  502  0.41855283845E+02 -0.62501520312E+02 -0.18658973184E+03  0.20122501150E+03  0.41800000000E+01 0. -1.
        -11    1    1    2    0    0  0.99905523800E+01 -0.56545113784E+01 -0.23775980398E+02  0.26402308226E+02  0.00000000000E+00 0. -1.
         11    1    1    2    0    0 -0.61316931561E+02  0.57556135266E+02  0.33867442434E+02  0.90661339389E+02  0.00000000000E+00 0.  1.
</event>
<event>
 7    1  0.2719869E-009  0.7444865E+02  0.7561462E-02  0.1345587E+00
          1   -1    0    0  501    0  0.00000000000E+00  0.00000000000E+00  0.18293954575E+03  0.18293954575E+03  0.00000000000E+00 0. -1.
         -1   -1    0    0    0  501 -0.00000000000E+00 -0.00000000000E+00 -0.68461304324E+02  0.68461304324E+02  0.00000000000E+00 0.  1.
         25    2    1    2    0    0 -0.25120054620E+02  0.21577545371E+02  0.97793863762E+02  0.16219644045E+03  0.12508971939E+03 0.  0.
          5    1    3    3  502    0  0.38886509136E+01 -0.30680056602E+02  0.97402905166E+02  0.10227993847E+03  0.41800000000E+01 0. -1.
         -5    1    3    3    0  502 -0.29008705534E+02  0.52257601974E+02  0.39095859663E+00  0.59916501979E+02  0.41800000000E+01 0. -1.
        -11    1    1    2    0    0  0.38569918373E+02 -0.21837720420E+02 -0.21105601483E+02  0.49091455981E+02  0.00000000000E+00 0.  1.
         11    1    1    2    0    0 -0.13449863752E+02  0.26017504831E+00  0.37789979150E+02  0.40112953645E+02  0.00000000000E+00 0. -1.
</event>
<event>
 7    1  0.2719869E-009  0.2038284E+03  0.7561462E-02  0.1146549E+00
         -2   -1    0    0    0  501 -0.00000000000E+00  0.00000000000E+00  0.11892464410E+03  0.11892464410E+03  0.00000000000E+00 0.  1.
          2   -1    0    0  501    0  0.00000000000E+00 -0.00000000000E+00 -0.35665018644E+03  0.35665018644E+03  0.00000000000E+00 0. -1.
         25    2    1    2    0    0 -0.31515892757E+02 -0.17183351481E+03 -0.10821303113E+03  0.24057819386E+03  0.12509116255E+03 0.  0.
          5    1    3    3  502    0  0.86755505675E+01 -0.17155101745E+03 -0.71928495745E+02  0.18626915383E+03  0.41800000000E+01 0.  1.
         -5    1    3    3    0  502 -0.40191443325E+02 -0.28249735232E+00 -0.36284535388E+02  0.54309040036E+02  0.41800000000E+01 0.  1.
        -11    1    1    2    0    0  0.42753972487E+02  0.27893762803E+02 -0.42510587416E+02  0.66431274330E+02  0.00000000000E+00 0.  1.
         11    1    1    2    0    0 -0.11238079729E+02  0.14393975200E+03 -0.87001923788E+02  0.16856536235E+03  0.00000000000E+00 0. -1.
</event>
<event>
 7    1  0.2719869E-009  0.1534668E+03  0.7561462E-02  0.1196277E+00
          2   -1    0    0  501    0  0.00000000000E+00  0.00000000000E+00  0.17777493335E+03  0.17777493335E+03  0.00000000000E+00 0. -1.
         -2   -1    0    0    0  501 -0.00000000000E+00 -0.00000000000E+00 -0.15997906054E+03  0.15997906054E+03  0.00000000000E+00 0.  1.
         25    2    1    2    0    0 -0.34609403607E+02  0.11885297978E+03  0.44414002444E+02  0.18152127959E+03  0.12511406680E+03 0.  0.
          5    1    3    3  502    0 -0.42682844362E+02  0.13321199234E+03  0.66431701151E+01  0.14010304856E+03  0.41800000000E+01 0. -1.
         -5    1    3    3    0  502  0.80734407550E+01 -0.14359012558E+02  0.37770832328E+02  0.41418231035E+02  0.41800000000E+01 0. -1.
        -11    1    1    2    0    0  0.26572053131E+02  0.40052279419E+01  0.85292969570E+01  0.28193346113E+02  0.00000000000E+00 0. -1.
         11    1    1    2    0    0  0.80373504761E+01 -0.12285820772E+03 -0.35147426587E+02  0.12803936818E+03  0.00000000000E+00 0.  1.
</event>
<event>
 7    1  0.2719869E-009  0.8486802E+02  0.7561462E-02  0.1315778E+00
          1   -1    0    0  501    0  0.00000000000E+00  0.00000000000E+00  0.84995846837E+02  0.84995846837E+02  0.00000000000E+00 0. -1.
         -1   -1    0    0    0  501 -0.00000000000E+00 -0.00000000000E+00 -0.31215883112E+03  0.31215883112E+03  0.00000000000E+00 0.  1.
         25    2    1    2    0    0  0.10581026174E+02 -0.61839238426E+02  0.58324734450E+01  0.14006044014E+03  0.12508740793E+03 0.  0.
          5    1    3    3  502    0 -0.24109510432E+02 -0.31735963753E+02  0.57956229376E+02  0.70461598137E+02  0.41800000000E+01 0.  1.
         -5    1    3    3    0  502  0.34690536606E+02 -0.30103274673E+02 -0.52123755931E+02  0.69598842004E+02  0.41800000000E+01 0.  1.
        -11    1    1    2    0    0  0.10710102163E+02  0.61315652141E+02 -0.22639746082E+03  0.23479805313E+03  0.00000000000E+00 0.  1.
         11    1    1    2    0    0 -0.21291128337E+02  0.52358628559E+00 -0.65979969054E+01  0.22296184688E+02  0.00000000000E+00 0. -1.
</event>
<event>
 7    1  0.3165431E-009  0.1910526E+03  0.7561462E-02  0.1157515E+00
         -2   -1    0    0    0  501 -0.00000000000E+00  0.00000000000E+00  0.16788580126E+03  0.16788580126E+03  0.00000000000E+00 0.  1.
          2   -1    0    0  501    0  0.00000000000E+00 -0.00000000000E+00 -0.31648972156E+03  0.31648972156E+03  0.00000000000E+00 0. -1.
         25    2    1    2    0    0  0.11861936358E+03  0.13223945322E+03 -0.18002811663E+03  0.28216193878E+03  0.12508960994E+03 0.  0.
          5    1    3    3  502    0  0.50198121474E+02  0.11574032723E+03 -0.16878584735E+03  0.21076482015E+03  0.41800000000E+01 0.  1.
         -5    1    3    3    0  502  0.68421242105E+02  0.16499125986E+02 -0.11242269276E+02  0.71397118625E+02  0.41800000000E+01 0.  1.
        -11    1    1    2    0    0 -0.49219066500E+02 -0.94069646372E+02  0.55008635375E+02  0.11957242509E+03  0.00000000000E+00 0.  1.
         11    1    1    2    0    0 -0.69400297079E+02 -0.38169806845E+02 -0.23584439044E+02  0.82641158960E+02  0.00000000000E+00 0. -1.
</event>
<event>
 7    1  0.2719869E-009  0.8774168E+02  0.7561462E-02  0.1308415E+00
         -2   -1    0    0    0  501 -0.00000000000E+00  0.00000000000E+00  0.50053459318E+02  0.50053459318E+02  0.00000000000E+00 0. -1.
          2   -1    0    0  501    0  0.00000000000E+00 -0.00000000000E+00 -0.26203287675E+03  0.26203287675E+03  0.00000000000E+00 0.  1.
         25    2    1    2    0    0 -0.13810670295E+02  0.14744353091E+02 -0.14645069774E+03  0.19365874919E+03  0.12509106166E+03 0.  0.
          5    1    3    3  502    0  0.30651418659E+02  0.11191784418E+02 -0.14515986037E+03  0.14884093176E+03  0.41800000000E+01 0.  1.
         -5    1    3    3    0  502 -0.44462088954E+02  0.35525686725E+01 -0.12908373687E+01  0.44817817433E+02  0.41800000000E+01 0.  1.
        -11    1    1    2    0    0  0.55078102811E+02 -0.12375905052E+02 -0.30033789862E+02  0.63943639000E+02  0.00000000000E+00 0. -1.
         11    1    1    2    0    0 -0.41267432516E+02 -0.23684480385E+01 -0.35494929832E+02  0.54483947878E+02  0.00000000000E+00 0.  1.
</event>
<event>
 7    1  0.2719869E-009  0.1424055E+03  0.7561462E-02  0.1210128E+00
          1   -1    0    0  501    0  0.00000000000E+00  0.00000000000E+00  0.43261051886E+03  0.43261051886E+03  0.00000000000E+00 0. -1.
         -1   -1    0    0    0  501 -0.00000000000E+00 -0.00000000000E+00 -0.55222854696E+02  0.55222854696E+02  0.00000000000E+00 0.  1.
         25    2    1    2    0    0 -0.15415924684E+02  0.10794586426E+03  0.21447008957E+03  0.27117327054E+03  0.12509021941E+03 0.  0.
          5    1    3    3  502    0 -0.49269596026E+02  0.31807846062E+02  0.24507366031E+02  0.63697060791E+02  0.41800000000E+01 0.  1.
         -5    1    3    3    0  502  0.33853671342E+02  0.76138018201E+02  0.18996272354E+03  0.20747620975E+03  0.41800000000E+01 0.  1.
        -11    1    1    2    0    0  0.33577161547E+02 -0.11740387041E+03  0.14373094782E+03  0.18859925749E+03  0.00000000000E+00 0.  1.
         11    1    1    2    0    0 -0.18161236863E+02  0.94580061448E+01  0.19186626782E+02  0.28060845531E+02  0.00000000000E+00 0. -1.
</event>
<event>
 7    1  0.2719869E-009  0.2112977E+03  0.7561462E-02  0.1140542E+00
          2   -1    0    0  501    0  0.00000000000E+00  0.00000000000E+00  0.11981921898E+04  0.11981921898E+04  0.00000000000E+00 0. -1.
         -2   -1    0    0    0  501 -0.00000000000E+00 -0.00000000000E+00 -0.57482871130E+02  0.57482871130E+02  0.00000000000E+00 0.  1.
         25    2    1    2    0    0 -0.75664987868E+02 -0.17906960998E+03  0.91540424350E+03  0.94414311209E+03  0.12510064541E+03 0.  0.
          5    1    3    3  502    0 -0.32248296087E+02  0.86769204668E+01  0.79991199995E+02  0.86783097582E+02  0.41800000000E+01 0. -1.
         -5    1    3    3    0  502 -0.43416691782E+02 -0.18774653045E+03  0.83541304350E+03  0.85736001451E+03  0.41800000000E+01 0. -1.
        -11    1    1    2    0    0  0.54933169381E+02  0.96299229172E+02  0.61365207876E+02  0.12671575820E+03  0.00000000000E+00 0.  1.
         11    1    1    2    0    0  0.20731818487E+02  0.82770380807E+02  0.16393986731E+03  0.18481619066E+03  0.00000000000E+00 0. -1.
</event>
<event>
 7    1  0.2719869E-009  0.2322977E+03  0.7561462E-02  0.1125033E+00
          1   -1    0    0  501    0  0.00000000000E+00  0.00000000000E+00  0.73883209734E+03  0.73883209734E+03  0.00000000000E+00 0. -1.
         -1   -1    0    0    0  501 -0.00000000000E+00 -0.00000000000E+00 -0.80743088941E+02  0.80743088941E+02  0.00000000000E+00 0.  1.
         25    2    1    2    0    0  0.20168977346E+03  0.83829516517E+02  0.34463051827E+03  0.42675967213E+03  0.12508985201E+03 0.  0.
          5    1    3    3  502    0  0.17008231080E+03  0.10988054841E+03  0.23831991383E+03  0.31275482585E+03  0.41800000000E+01 0. -1.
         -5    1    3    3    0  502  0.31607462662E+02 -0.26051031894E+02  0.10631060444E+03  0.11400484628E+03  0.41800000000E+01 0. -1.
        -11    1    1    2    0    0 -0.11339578525E+03 -0.29315288488E+02  0.23553072893E+03  0.26304508078E+03  0.00000000000E+00 0. -1.
         11    1    1    2    0    0 -0.88293988214E+02 -0.54514228028E+02  0.77927761200E+02  0.12977043337E+03  0.00000000000E+00 0.  1.
</event>
<event>
 7    1  0.2719869E-009  0.1192996E+03  0.7561462E-02  0.1244257E+00
         -2   -1    0    0    0  501 -0.00000000000E+00  0.00000000000E+00  0.25096002335E+02  0.25096002335E+02  0.00000000000E+00 0. -1.
          2   -1    0    0  501    0  0.00000000000E+00 -0.00000000000E+00 -0.80162325048E+03  0.80162325048E+03  0.00000000000E+00 0.  1.
         25    2    1    2    0    0  0.15748035912E+02 -0.63728245827E+02 -0.61118034323E+03  0.62729401839E+03  0.12508830321E+03 0.  0.
          5    1    3    3  502    0 -0.51954079638E+02 -0.71862488188E+01 -0.20736062696E+03  0.21393169606E+03  0.41800000000E+01 0.  1.
         -5    1    3    3    0  502  0.67702115551E+02 -0.56541997009E+02 -0.40381971627E+03  0.41336232233E+03  0.41800000000E+01 0.  1.
        -11    1    1    2    0    0 -0.44796340187E+02  0.35302721417E+02 -0.14087755513E+03  0.15198513011E+03  0.00000000000E+00 0.  1.
         11    1    1    2    0    0  0.29048304274E+02  0.28425524411E+02 -0.24469349781E+02  0.47440104321E+02  0.00000000000E+00 0. -1.
</event>
<event>
 7    1  0.2719869E-009  0.8974635E+02  0.7561462E-02  0.1303467E+00
          1   -1    0    0  501    0  0.00000000000E+00  0.00000000000E+00  0.23985600195E+02  0.23985600195E+02  0.00000000000E+00 0. -1.
         -1   -1    0    0    0  501 -0.00000000000E+00 -0.00000000000E+00 -0.58272071726E+03  0.58272071726E+03  0.00000000000E+00 0.  1.
         25    2    1    2    0    0  0.94947684118E+01 -0.21661239627E+02 -0.40348245973E+03  0.42308955155E+03  0.12508922175E+03 0.  0.
          5    1    3    3  502    0  0.19318270257E+02 -0.70225293938E+02 -0.29278736947E+03  0.30173946311E+03  0.41800000000E+01 0. -1.
         -5    1    3    3    0  502 -0.98235018454E+01  0.48564054311E+02 -0.11069509025E+03  0.12135008845E+03  0.41800000000E+01 0. -1.
        -11    1    1    2    0    0  0.17776772613E+02  0.23517871901E+02 -0.38085455839E+01  0.29725560764E+02  0.00000000000E+00 0. -1.
         11    1    1    2    0    0 -0.27271541025E+02 -0.18566322736E+01 -0.15144411176E+03  0.15389120514E+03  0.00000000000E+00 0.  1.
</event>
<event>
 7    1  0.2719869E-009  0.1094348E+03  0.7561462E-02  0.1261620E+00
         -2   -1    0    0    0  501 -0.00000000000E+00  0.00000000000E+00  0.20983328835E+02  0.20983328835E+02  0.00000000000E+00 0.  1.
          2   -1    0    0  501    0  0.00000000000E+00 -0.00000000000E+00 -0.14202520158E+04  0.14202520158E+04  0.00000000000E+00 0. -1.
         25    2    1    2    0    0 -0.66727271491E+01 -0.27021401485E+02 -0.12932383312E+04  0.12995731427E+04  0.12510112068E+03 0.  0.
          5    1    3    3  502    0 -0.55678604405E+02 -0.48221590576E+02 -0.67525476959E+03  0.67927307104E+03  0.41800000000E+01 0. -1.
         -5    1    3    3    0  502  0.49005877255E+02  0.21200189090E+02 -0.61798356162E+03  0.62030007163E+03  0.41800000000E+01 0. -1.
        -11    1    1    2    0    0  0.39471422965E+02  0.40061053213E+02 -0.80071120903E+02  0.97848176366E+02  0.00000000000E+00 0. -1.
         11    1    1    2    0    0 -0.32798695816E+02 -0.13039651728E+02 -0.25959234816E+02  0.43814025570E+02  0.00000000000E+00 0.  1.
</event>
<event>
 7    1  0.2719869E-009  0.1022511E+03  0.7561462E-02  0.1275632E+00
         -1   -1    0    0    0  501 -0.00000000000E+00  0.00000000000E+00  0.59063312642E+03  0.59063312642E+03  0.00000000000E+00 0.  1.
          1   -1    0    0  501    0  0.00000000000E+00 -0.00000000000E+00 -0.28612812182E+02  0.28612812182E+02  0.00000000000E+00 0. -1.
         25    2    1    2    0    0  0.18036918827E+02  0.48040129251E+02  0.19041132905E+03  0.23353085132E+03  0.12508796835E+03 0.  0.
          5    1    3    3  502    0 -0.23153059835E+02  0.54652363444E+02  0.18104375000E+03  0.19057087087E+03  0.41800000000E+01 0.  1.
         -5    1    3    3    0  502  0.41189978662E+02 -0.66122341924E+01  0.93675790580E+01  0.42959980454E+02  0.41800000000E+01 0.  1.
        -11    1    1    2    0    0 -0.11293245706E+02  0.26199180745E+02  0.90527340304E+02  0.94916457018E+02  0.00000000000E+00 0. -1.
         11    1    1    2    0    0 -0.67436731205E+01 -0.74239309997E+02  0.28108164488E+03  0.29079863027E+03  0.00000000000E+00 0.  1.
</event>
<event>
 7    1  0.2719869E-009  0.9907172E+02  0.7561462E-02  0.1282260E+00
          2   -1    0    0  501    0  0.00000000000E+00  0.00000000000E+00  0.37561988831E+03  0.37561988831E+03  0.00000000000E+00 0. -1.
         -2   -1    0    0    0  501 -0.00000000000E+00 -0.00000000000E+00 -0.88389959333E+02  0.88389959333E+02  0.00000000000E+00 0.  1.
         25    2    1    2    0    0  0.49908813713E+02  0.11836748509E+02  0.32541227426E+03  0.35237928030E+03  0.12508801161E+03 0.  0.
          5    1    3    3  502    0 -0.33149329974E+02 -0.16322983522E+01  0.18982660529E+03  0.19275153683E+03  0.41800000000E+01 0. -1.
         -5    1    3    3    0  502  0.83058143687E+02  0.13469046861E+02  0.13558566897E+03  0.15962774347E+03  0.41800000000E+01 0. -1.
        -11    1    1    2    0    0 -0.10375411850E+02 -0.33705279450E+02  0.17953138611E+02  0.39572847002E+02  0.00000000000E+00 0. -1.
         11    1    1    2    0    0 -0.39533401863E+02  0.21868530941E+02 -0.56135483893E+02  0.72057720337E+02  0.00000000000E+00 0.  1.
</event>
<event>
 7    1  0.2719869E-009  0.1060605E+03  0.7561462E-02  0.1268044E+00
          1   -1    0    0  501    0  0.00000000000E+00  0.00000000000E+00  0.72252862468E+03  0.72252862468E+03  0.00000000000E+00 0. -1.
         -1   -1    0    0    0  501 -0.00000000000E+00 -0.00000000000E+00 -0.27728999414E+02  0.27728999414E+02  0.00000000000E+00 0.  1.
         25    2    1    2    0    0 -0.86563482964E+00 -0.48282357835E+02  0.57898488479E+03  0.59430897190E+03  0.12509085447E+03 0.  0.
          5    1    3    3  502    0  0.43340010007E+02  0.23470136380E+02  0.19694331531E+03  0.20305995571E+03  0.41800000000E+01 0.  1.
         -5    1    3    3    0  502 -0.44205644836E+02 -0.71752494215E+02  0.38204156948E+03  0.39124901619E+03  0.41800000000E+01 0.  1.
        -11    1    1    2    0    0 -0.12274451302E+01 -0.14954755792E+02  0.83622615834E+02  0.84958185134E+02  0.00000000000E+00 0. -1.
         11    1    1    2    0    0  0.20930799598E+01  0.63237113627E+02  0.32192124644E+02  0.70990467055E+02  0.00000000000E+00 0.  1.
</event>
<event>
 7    1  0.2719869E-009  0.9155913E+02  0.7561462E-02  0.1299119E+00
         -4   -1    0    0    0  501 -0.00000000000E+00  0.00000000000E+00  0.25601946169E+03  0.25601946169E+03  0.00000000000E+00 0.  1.
          4   -1    0    0  501    0  0.00000000000E+00 -0.00000000000E+00 -0.73177723931E+02  0.73177723931E+02  0.00000000000E+00 0. -1.
         25    2    1    2    0    0  0.46169876398E+02  0.11331866774E+02  0.41210911385E+02  0.14001866447E+03  0.12508724352E+03 0.  0.
          5    1    3    3  502    0  0.17209966837E+02 -0.17659372335E+02 -0.41022868629E+02  0.48045650587E+02  0.41800000000E+01 0. -1.
         -5    1    3    3    0  502  0.28959909561E+02  0.28991239109E+02  0.82233780014E+02  0.91973013880E+02  0.41800000000E+01 0. -1.
        -11    1    1    2    0    0 -0.73077898640E+02 -0.35050056027E+02  0.12652579728E+03  0.15025865391E+03  0.00000000000E+00 0.  1.
         11    1    1    2    0    0  0.26908022243E+02  0.23718189252E+02  0.15105029093E+02  0.38919867244E+02  0.00000000000E+00 0. -1.
</event>
<event>
 7    1  0.2719869E-009  0.1526357E+03  0.7561462E-02  0.1197271E+00
         -2   -1    0    0    0  501 -0.00000000000E+00  0.00000000000E+00  0.47102522885E+02  0.47102522885E+02  0.00000000000E+00 0.  1.
          2   -1    0    0  501    0  0.00000000000E+00 -0.00000000000E+00 -0.92334338405E+03  0.92334338405E+03  0.00000000000E+00 0. -1.
         25    2    1    2    0    0 -0.76029945971E+01 -0.14274346279E+03 -0.70132368449E+03  0.72659217742E+03  0.12509108744E+03 0.  0.
          5    1    3    3  502    0 -0.12340567167E+01 -0.28784676849E+02 -0.44527057669E+03  0.44622128970E+03  0.41800000000E+01 0. -1.
         -5    1    3    3    0  502 -0.63689378804E+01 -0.11395878594E+03 -0.25605310781E+03  0.28037088772E+03  0.41800000000E+01 0. -1.
        -11    1    1    2    0    0 -0.16937353836E+02  0.13522171634E+03 -0.11372670699E+03  0.17749802930E+03  0.00000000000E+00 0.  1.
         11    1    1    2    0    0  0.24540348434E+02  0.75217464575E+01 -0.61190469681E+02  0.66355700213E+02  0.00000000000E+00 0. -1.
</event>
<event>
 7    1  0.2719869E-009  0.6933206E+02  0.7561462E-02  0.1362379E+00
          1   -1    0    0  501    0  0.00000000000E+00  0.00000000000E+00  0.28969832543E+03  0.28969832543E+03  0.00000000000E+00 0. -1.
         -1   -1    0    0    0  501 -0.00000000000E+00 -0.00000000000E+00 -0.55110456350E+02  0.55110456350E+02  0.00000000000E+00 0.  1.
         25    2    1    2    0    0  0.28828482552E+02 -0.59148659407E+02  0.13108834833E+03  0.19277277134E+03  0.12509013146E+03 0.  0.
          5    1    3    3  502    0  0.95016026587E+01 -0.17048105919E+02  0.14330006456E+03  0.14468344505E+03  0.41800000000E+01 0. -1.
         -5    1    3    3    0  502  0.19326879893E+02 -0.42100553488E+02 -0.12211716227E+02  0.48089326296E+02  0.41800000000E+01 0. -1.
        -11    1    1    2    0    0 -0.26029324727E+01  0.39084199210E+02 -0.41932336592E+01  0.39394582037E+02  0.00000000000E+00 0.  1.
         11    1    1    2    0    0 -0.26225550079E+02  0.20064460196E+02  0.10769275441E+03  0.11264142840E+03  0.00000000000E+00 0. -1.
</event>
<event>
 7    1  0.2719869E-009  0.7168922E+02  0.7561462E-02  0.1354441E+00
          1   -1    0    0  501    0  0.00000000000E+00  0.00000000000E+00  0.34739428292E+03  0.34739428292E+03  0.00000000000E+00 0. -1.
         -1   -1    0    0    0  501 -0.00000000000E+00 -0.00000000000E+00 -0.38295049778E+02  0.38295049778E+02  0.00000000000E+00 0.  1.
         25    2    1    2    0    0  0.17676303805E+02 -0.36876536094E+01  0.23846154702E+03  0.26988677896E+03  0.12509561762E+03 0.  0.
          5    1    3    3  502    0 -0.16813062811E+02  0.31634200389E+01 -0.90876185863E+01  0.19817757669E+02  0.41800000000E+01 0. -1.
         -5    1    3    3    0  502  0.34489366617E+02 -0.68510736483E+01  0.24754916561E+03  0.25006902130E+03  0.41800000000E+01 0. -1.
        -11    1    1    2    0    0 -0.53022988051E+02 -0.68708966125E+01  0.31665820279E+02  0.62139928034E+02  0.00000000000E+00 0.  1.
         11    1    1    2    0    0  0.35346684245E+02  0.10558550222E+02  0.38971865848E+02  0.53662625705E+02  0.00000000000E+00 0. -1.
</event>
<event>
 7    1  0.2719869E-009  0.8256942E+02  0.7561462E-02  0.1321914E+00
          2   -1    0    0  501    0  0.00000000000E+00  0.00000000000E+00  0.56439967188E+03  0.56439967188E+03  0.00000000000E+00 0. -1.
         -2   -1    0    0    0  501 -0.00000000000E+00 -0.00000000000E+00 -0.25119658302E+02  0.25119658302E+02  0.00000000000E+00 0.  1.
         25    2    1    2    0    0  0.34585104382E+01 -0.91476264536E+01  0.43667300241E+03  0.45434163686E+03  0.12508945434E+03 0.  0.
          5    1    3    3  502    0  0.42591157780E+02  0.68850136126E+01  0.38502907806E+03  0.38746131869E+03  0.41800000000E+01 0.  1.
         -5    1    3    3    0  502 -0.39132647342E+02 -0.16032640066E+02  0.51643924350E+02  0.66880318164E+02  0.41800000000E+01 0.  1.
        -11    1    1    2    0    0  0.32621806204E+02  0.23773160373E+02  0.22746784090E+02  0.46333158543E+02  0.00000000000E+00 0.  1.
         11    1    1    2    0    0 -0.36080316642E+02 -0.14625533919E+02  0.79860227082E+02  0.88844534785E+02  0.00000000000E+00 0. -1.
</event>
<event>
 7    1  0.2719869E-009  0.7825911E+02  0.7561462E-02  0.1334066E+00
         -1   -1    0    0    0  501 -0.00000000000E+00  0.00000000000E+00  0.21186057267E+02  0.21186057267E+02  0.00000000000E+00 0.  1.
          1   -1    0    0  501    0  0.00000000000E+00 -0.00000000000E+00 -0.65047280652E+03  0.65047280652E+03  0.00000000000E+00 0. -1.
         25    2    1    2    0    0 -0.17577545376E+02 -0.16675552608E+02 -0.46349819931E+03  0.48069381849E+03  0.12509565225E+03 0.  0.
          5    1    3    3  502    0  0.44257512738E+02 -0.13036326564E+02 -0.33269739035E+03  0.33590727767E+03  0.41800000000E+01 0. -1.
         -5    1    3    3    0  502 -0.61835058114E+02 -0.36392260443E+01 -0.13080080896E+03  0.14478654082E+03  0.41800000000E+01 0. -1.
        -11    1    1    2    0    0  0.23432442596E+02  0.27300320108E+02 -0.17310106659E+03  0.17680035661E+03  0.00000000000E+00 0. -1.
         11    1    1    2    0    0 -0.58548972201E+01 -0.10624767500E+02  0.73125166466E+01  0.14164688687E+02  0.00000000000E+00 0.  1.
</event>
<event>
 7    1  0.2719869E-009  0.1202541E+03  0.7561462E-02  0.1242678E+00
          2   -1    0    0  501    0  0.00000000000E+00  0.00000000000E+00  0.48256216350E+03  0.48256216350E+03  0.00000000000E+00 0. -1.
         -2   -1    0    0    0  501 -0.00000000000E+00 -0.00000000000E+00 -0.30330598509E+02  0.30330598509E+02  0.00000000000E+00 0.  1.
         25    2    1    2    0    0 -0.61740482034E+02  0.73746105676E+01  0.27945619360E+03  0.31242463531E+03  0.12508843512E+03 0.  0.
          5    1    3    3  502    0 -0.80918302709E+02  0.47953584048E+02  0.20052230725E+03  0.22152649061E+03  0.41800000000E+01 0. -1.
         -5    1    3    3    0  502  0.19177820675E+02 -0.40578973480E+02  0.78933886352E+02  0.90898144696E+02  0.41800000000E+01 0. -1.
        -11    1    1    2    0    0  0.75208967214E+02 -0.24856458010E+02  0.12751699420E+03  0.15011600869E+03  0.00000000000E+00 0.  1.
         11    1    1    2    0    0 -0.13468485180E+02  0.17481847442E+02  0.45258377183E+02  0.50352118012E+02  0.00000000000E+00 0. -1.
</event>
<event>
 7    1  0.2719869E-009  0.1249963E+03  0.7561462E-02  0.1235075E+00
          2   -1    0    0  501    0  0.00000000000E+00  0.00000000000E+00  0.13910842008E+04  0.13910842008E+04  0.00000000000E+00 0. -1.
         -2   -1    0    0    0  501 -0.00000000000E+00 -0.00000000000E+00 -0.18752502749E+02  0.18752502749E+02  0.00000000000E+00 0.  1.
         25    2    1    2    0    0 -0.10114182961E+03 -0.24277498220E+02  0.10148929742E+04  0.10278493842E+04  0.12509013128E+03 0.  0.
          5    1    3    3  502    0 -0.10283842381E+03  0.40414018934E+01  0.42663514297E+03  0.43889303020E+03  0.41800000000E+01 0. -1.
         -5    1    3    3    0  502  0.16965942094E+01 -0.28318900113E+02  0.58825783123E+03  0.58895635402E+03  0.41800000000E+01 0. -1.
        -11    1    1    2    0    0  0.31997656669E+02 -0.18544995156E+02  0.40786976970E+02  0.55057645863E+02  0.00000000000E+00 0. -1.
         11    1    1    2    0    0  0.69144172936E+02  0.42822493376E+02  0.31665174687E+03  0.32692967346E+03  0.00000000000E+00 0.  1.
</event>
<event>
 7    1  0.2719869E-009  0.1122167E+03  0.7561462E-02  0.1256519E+00
         -1   -1    0    0    0  501 -0.00000000000E+00  0.00000000000E+00  0.19951352328E+02  0.19951352328E+02  0.00000000000E+00 0.  1.
          1   -1    0    0  501    0  0.00000000000E+00 -0.00000000000E+00 -0.65735326931E+03  0.65735326931E+03  0.00000000000E+00 0. -1.
         25    2    1    2    0    0 -0.33135041590E+01 -0.33555096431E+02 -0.33110669065E+03  0.35555095589E+03  0.12509163776E+03 0.  0.
          5    1    3    3  502    0  0.43360192766E+02  0.27765104876E+02 -0.11473422144E+03  0.12582694995E+03  0.41800000000E+01 0.  1.
         -5    1    3    3    0  502 -0.46673696925E+02 -0.61320201307E+02 -0.21637246921E+03  0.22972400594E+03  0.41800000000E+01 0.  1.
        -11    1    1    2    0    0 -0.56848531490E+01 -0.30444842566E+02 -0.13900009400E+03  0.14240867995E+03  0.00000000000E+00 0. -1.
         11    1    1    2    0    0  0.89983573080E+01  0.63999938997E+02 -0.16729513234E+03  0.17934498579E+03  0.00000000000E+00 0.  1.
</event>
<event>
 7    1  0.2719869E-009  0.1144546E+03  0.7561462E-02  0.1252536E+00
          1   -1    0    0  501    0  0.00000000000E+00  0.00000000000E+00  0.13297416921E+03  0.13297416921E+03  0.00000000000E+00 0. -1.
         -1   -1    0    0    0  501 -0.00000000000E+00 -0.00000000000E+00 -0.13850525267E+03  0.13850525267E+03  0.00000000000E+00 0.  1.
         25    2    1    2    0    0  0.23121072294E+02 -0.77345846506E+02  0.38114087207E+01  0.14892642180E+03  0.12509032064E+03 0.  0.
          5    1    3    3  502    0  0.47888917777E+02 -0.22380059928E+02  0.49986345472E+02  0.72871960738E+02  0.41800000000E+01 0.  1.
         -5    1    3    3    0  502 -0.24767845483E+02 -0.54965786578E+02 -0.46174936751E+02  0.76054461065E+02  0.41800000000E+01 0.  1.
        -11    1    1    2    0    0 -0.52592410182E+02  0.64704871483E+02 -0.24746197710E+02  0.86977332124E+02  0.00000000000E+00 0.  1.
         11    1    1    2    0    0  0.29471337888E+02  0.12640975023E+02  0.15403705532E+02  0.35575667956E+02  0.00000000000E+00 0. -1.
</event>
<event>
 7    1  0.2719869E-009  0.1407269E+03  0.7561462E-02  0.1212354E+00
         -1   -1    0    0    0  501 -0.00000000000E+00  0.00000000000E+00  0.25679443227E+03  0.25679443227E+03  0.00000000000E+00 0.  1.
          1   -1    0    0  501    0  0.00000000000E+00 -0.00000000000E+00 -0.11471741899E+03  0.11471741899E+03  0.00000000000E+00 0. -1.
         25    2    1    2    0    0  0.10089068737E+03 -0.53903418798E+02  0.41041005210E+01  0.16955801173E+03  0.12509422986E+03 0.  0.
          5    1    3    3  502    0  0.12358174968E+03 -0.33711805625E+02 -0.21071291380E+02  0.12988612864E+03  0.41800000000E+01 0. -1.
         -5    1    3    3    0  502 -0.22691062303E+02 -0.20191613173E+02  0.25175391901E+02  0.39671883095E+02  0.41800000000E+01 0. -1.
        -11    1    1    2    0    0 -0.91123837373E+02  0.28602545578E+02  0.45889982010E+02  0.10596013307E+03  0.00000000000E+00 0. -1.
         11    1    1    2    0    0 -0.97668500019E+01  0.25300873220E+02  0.92082930751E+02  0.95993706462E+02  0.00000000000E+00 0.  1.
</event>
<event>
 6    1  0.2719869E-009  0.2575451E+03  0.7561462E-02  0.1108627E+00
          2   -1    0    0  501    0  0.00000000000E+00  0.00000000000E+00  0.11671178499E+04  0.11671178499E+04  0.00000000000E+00 0. -1.
         -2   -1    0    0    0  501 -0.00000000000E+00 -0.00000000000E+00 -0.69202275923E+02  0.69202275923E+02  0.00000000000E+00 0.  1.
          5    1    1    2  502    0  0.45504866940E+02  0.28536068399E+02  0.19233105068E+02  0.57204762437E+02  0.41800000000E+01 0.  1.
         -5    1    1    2    0  502  0.20298286445E+03 -0.70990827058E+01  0.36415533778E+03  0.41698803660E+03  0.41800000000E+01 0.  1.
        -11    1    1    2    0    0 -0.17798740125E+03  0.15161167288E+02  0.40639989297E+03  0.44392594991E+03  0.00000000000E+00 0.  1.
         11    1    1    2    0    0 -0.70500330136E+02 -0.36598152982E+02  0.30812723821E+03  0.31820137693E+03  0.00000000000E+00 0. -1.
</event>
<event>
 7    1  0.2719869E-009  0.9223542E+02  0.7561462E-02  0.1297527E+00
          2   -1    0    0  501    0  0.00000000000E+00  0.00000000000E+00  0.11028733429E+03  0.11028733429E+03  0.00000000000E+00 0. -1.
         -2   -1    0    0    0  501 -0.00000000000E+00 -0.00000000000E+00 -0.18556232203E+03  0.18556232203E+03  0.00000000000E+00 0.  1.
         25    2    1    2    0    0 -0.27235557643E+02 -0.90051955208E+01  0.50750570409E+02  0.13801159298E+03  0.12509480507E+03 0.  0.
          5    1    3    3  502    0 -0.61507799861E+02  0.29163084441E+01  0.72725483782E+02  0.95384394374E+02  0.41800000000E+01 0. -1.
         -5    1    3    3    0  502  0.34272242219E+02 -0.11921503965E+02 -0.21974913373E+02  0.42627198609E+02  0.41800000000E+01 0. -1.
        -11    1    1    2    0    0  0.29524748893E+02 -0.32930217617E+02 -0.97518062737E+02  0.10707886154E+03  0.00000000000E+00 0.  1.
         11    1    1    2    0    0 -0.22891912502E+01  0.41935413138E+02 -0.28507495413E+02  0.50759201790E+02  0.00000000000E+00 0. -1.
</event>
<event>
 7    1  0.2719869E-009  0.1166520E+03  0.7561462E-02  0.1248725E+00
          2   -1    0    0  501    0  0.00000000000E+00  0.00000000000E+00  0.10532830295E+04  0.10532830295E+04  0.00000000000E+00 0. -1.
         -2   -1    0    0    0  501 -0.00000000000E+00 -0.00000000000E+00 -0.53950818214E+02  0.53950818214E+02  0.00000000000E+00 0.  1.
         25    2    1    2    0    0 -0.58593710294E+02 -0.10842726332E+02  0.98860296775E+03  0.99827065461E+03  0.12513066938E+03 0.  0.
          5    1    3    3  502    0 -0.92234284929E+02 -0.46088274206E+01  0.50145804704E+03  0.50990788379E+03  0.41800000000E+01 0.  1.
         -5    1    3    3    0  502  0.33640574635E+02 -0.62338989112E+01  0.48714492070E+03  0.48836277082E+03  0.41800000000E+01 0.  1.
        -11    1    1    2    0    0 -0.22110002740E+02 -0.80092865110E+01 -0.63219968394E+01  0.24350945272E+02  0.00000000000E+00 0.  1.
         11    1    1    2    0    0  0.80703713034E+02  0.18852012843E+02  0.17051240388E+02  0.84612247840E+02  0.00000000000E+00 0. -1.
</event>
<event>
 7    1  0.2719869E-009  0.8462756E+02  0.7561462E-02  0.1316409E+00
         -2   -1    0    0    0  501 -0.00000000000E+00  0.00000000000E+00  0.25813962612E+02  0.25813962612E+02  0.00000000000E+00 0.  1.
          2   -1    0    0  501    0  0.00000000000E+00 -0.00000000000E+00 -0.46057390330E+03  0.46057390330E+03  0.00000000000E+00 0. -1.
         25    2    1    2    0    0 -0.19941588470E+01 -0.90116421419E+01 -0.22106491450E+03  0.25417250024E+03  0.12509507221E+03 0.  0.
          5    1    3    3  502    0  0.89164982806E+01  0.38485568195E+02 -0.19449138140E+03  0.19850695892E+03  0.41800000000E+01 0.  1.
         -5    1    3    3    0  502 -0.10910657128E+02 -0.47497210337E+02 -0.26573533102E+02  0.55665541318E+02  0.41800000000E+01 0.  1.
        -11    1    1    2    0    0 -0.34689651130E+02  0.22705802594E+02 -0.16282423086E+03  0.16801980693E+03  0.00000000000E+00 0. -1.
         11    1    1    2    0    0  0.36683809977E+02 -0.13694160452E+02 -0.50870795330E+02  0.64195558744E+02  0.00000000000E+00 0.  1.
</event>
<event>
 7    1  0.2719869E-009  0.6636291E+02  0.7561462E-02  0.1372917E+00
          1   -1    0    0  501    0  0.00000000000E+00  0.00000000000E+00  0.42142434856E+02  0.42142434856E+02  0.00000000000E+00 0. -1.
         -1   -1    0    0    0  501 -0.00000000000E+00 -0.00000000000E+00 -0.35596877119E+03  0.35596877119E+03  0.00000000000E+00 0.  1.
         25    2    1    2    0    0  0.93206382116E+01  0.45645787954E+02 -0.23207684745E+03  0.26772804845E+03  0.12509289567E+03 0.  0.
          5    1    3    3  502    0  0.33588615959E+02  0.10039848968E+02 -0.21995589103E+03  0.22277131792E+03  0.41800000000E+01 0. -1.
         -5    1    3    3    0  502 -0.24267977747E+02  0.35605938986E+02 -0.12120956421E+02  0.44956730526E+02  0.41800000000E+01 0. -1.
        -11    1    1    2    0    0 -0.13646029212E+02 -0.71787083673E+01 -0.89573459688E+02  0.90890883192E+02  0.00000000000E+00 0.  1.
         11    1    1    2    0    0  0.43253910000E+01 -0.38467079587E+02  0.78239707990E+01  0.39492274413E+02  0.00000000000E+00 0. -1.
</event>
<event>
 7    1  0.2719869E-009  0.2419918E+03  0.7561462E-02  0.1118473E+00
         -1   -1    0    0    0  501 -0.00000000000E+00  0.00000000000E+00  0.28041546666E+03  0.28041546666E+03  0.00000000000E+00 0.  1.
          1   -1    0    0  501    0  0.00000000000E+00 -0.00000000000E+00 -0.25218756097E+03  0.25218756097E+03  0.00000000000E+00 0. -1.
         25    2    1    2    0    0  0.21586846622E+03  0.92240648088E+02  0.76308760106E+02  0.27673172443E+03  0.12509951466E+03 0.  0.
          5    1    3    3  502    0  0.22097266144E+03  0.83358065016E+02  0.41014713789E+02  0.23974395353E+03  0.41800000000E+01 0. -1.
         -5    1    3    3    0  502 -0.51041952175E+01  0.88825830715E+01  0.35294046317E+02  0.36987770901E+02  0.41800000000E+01 0. -1.
        -11    1    1    2    0    0 -0.77807285642E+02 -0.49356055750E+02 -0.61347559507E+02  0.11069560513E+03  0.00000000000E+00 0. -1.
         11    1    1    2    0    0 -0.13806118058E+03 -0.42884592338E+02  0.13266705086E+02  0.14517569806E+03  0.00000000000E+00 0.  1.
</event>
<event>
 7    1  0.2719869E-009  0.1062477E+03  0.7561462E-02  0.1267681E+00
          1   -1    0    0  501    0  0.00000000000E+00  0.00000000000E+00  0.10435405330E+03  0.10435405330E+03  0.00000000000E+00 0. -1.
         -1   -1    0    0    0  501 -0.00000000000E+00 -0.00000000000E+00 -0.12470028690E+03  0.12470028690E+03  0.00000000000E+00 0.  1.
         25    2    1    2    0    0  0.28143516829E+02  0.63586342949E+01 -0.27878648281E+02  0.13136780124E+03  0.12509112840E+03 0.  0.
          5    1    3    3  502    0  0.22071663507E+02 -0.52039134840E+02 -0.42348927761E+02  0.70754038523E+02  0.41800000000E+01 0. -1.
         -5    1    3    3    0  502  0.60718533219E+01  0.58397769135E+02  0.14470279479E+02  0.60613762719E+02  0.41800000000E+01 0. -1.
        -11    1    1    2    0    0 -0.48377403678E+02  0.28863183278E+02 -0.21726142392E+00  0.56333859606E+02  0.00000000000E+00 0.  1.
         11    1    1    2    0    0  0.20233886849E+02 -0.35221817573E+02  0.77496760989E+01  0.41352679354E+02  0.00000000000E+00 0. -1.
</event>
<event>
 7    1  0.2719869E-009  0.1308298E+03  0.7561462E-02  0.1226230E+00
          2   -1    0    0  501    0  0.00000000000E+00  0.00000000000E+00  0.10263708446E+04  0.10263708446E+04  0.00000000000E+00 0. -1.
         -2   -1    0    0    0  501 -0.00000000000E+00 -0.00000000000E+00 -0.23964332510E+02  0.23964332510E+02  0.00000000000E+00 0.  1.
         25    2    1    2    0    0 -0.80491244021E+02 -0.23662993575E+02  0.77893713705E+03  0.79337159351E+03  0.12512651307E+03 0.  0.
          5    1    3    3  502    0 -0.15970005068E+02  0.49816542828E+02  0.24873726996E+03  0.25421335698E+03  0.41800000000E+01 0. -1.
         -5    1    3    3    0  502 -0.64521238953E+02 -0.73479536403E+02  0.53019986710E+03  0.53915823653E+03  0.41800000000E+01 0. -1.
        -11    1    1    2    0    0  0.84753800492E+02  0.40501191304E+02  0.22005058540E+03  0.23926097327E+03  0.00000000000E+00 0. -1.
         11    1    1    2    0    0 -0.42625564714E+01 -0.16838197729E+02  0.34187896511E+01  0.17702610348E+02  0.00000000000E+00 0.  1.
</event>
<event>
 7    1  0.2719869E-009  0.9888432E+02  0.7561462E-02  0.1282660E+00
          1   -1    0    0  501    0  0.00000000000E+00  0.00000000000E+00  0.57547039013E+02  0.57547039013E+02  0.00000000000E+00 0. -1.
         -1   -1    0    0    0  501 -0.00000000000E+00 -0.00000000000E+00 -0.29883526157E+03  0.29883526157E+03  0.00000000000E+00 0.  1.
         25    2    1    2    0    0  0.28697238381E+02  0.67913178486E+02 -0.12900333603E+03  0.19422316126E+03  0.12508015173E+03 0.  0.
          5    1    3    3  502    0  0.70923885672E+01  0.76130758947E+02 -0.15260849038E+02  0.78080473530E+02  0.41800000000E+01 0. -1.
         -5    1    3    3    0  502  0.21604849814E+02 -0.82175804608E+01 -0.11374248700E+03  0.11614268773E+03  0.41800000000E+01 0. -1.
        -11    1    1    2    0    0  0.15752676906E+02 -0.45038355962E+02 -0.10639086742E+02  0.48885483573E+02  0.00000000000E+00 0. -1.
         11    1    1    2    0    0 -0.44449915287E+02 -0.22874822523E+02 -0.10164579978E+03  0.11327365576E+03  0.00000000000E+00 0.  1.
</event>
<event>
 7    1  0.2719869E-009  0.2533914E+03  0.7561462E-02  0.1111180E+00
         -1   -1    0    0    0  501 -0.00000000000E+00  0.00000000000E+00  0.17248319026E+03  0.17248319026E+03  0.00000000000E+00 0.  1.
          1   -1    0    0  501    0  0.00000000000E+00 -0.00000000000E+00 -0.37832211680E+03  0.37832211680E+03  0.00000000000E+00 0. -1.
         25    2    1    2    0    0  0.73568351578E+02 -0.21914855014E+03 -0.12928246640E+03  0.29290680956E+03  0.12506819574E+03 0.  0.
          5    1    3    3  502    0  0.94798361798E+02 -0.93894515039E+02 -0.47169071890E+02  0.14158143627E+03  0.41800000000E+01 0.  1.
         -5    1    3    3    0  502 -0.21230010220E+02 -0.12525403510E+03 -0.82113394510E+02  0.15132537329E+03  0.41800000000E+01 0.  1.
        -11    1    1    2    0    0 -0.80934878769E+02  0.10887964597E+03 -0.45713595191E+02  0.14316062550E+03  0.00000000000E+00 0. -1.
         11    1    1    2    0    0  0.73665271906E+01  0.11026890418E+03 -0.30842864952E+02  0.11473787199E+03  0.00000000000E+00 0.  1.
</event>
<event>
 7    1  0.2719869E-009  0.1592321E+03  0.7561462E-02  0.1189566E+00
         -2   -1    0    0    0  501 -0.00000000000E+00  0.00000000000E+00  0.17906893492E+03  0.17906893492E+03  0.00000000000E+00 0.  1.
          2   -1    0    0  501    0  0.00000000000E+00 -0.00000000000E+00 -0.19158621439E+03  0.19158621439E+03  0.00000000000E+00 0. -1.
         25    2    1    2    0    0  0.10526784390E+03 -0.10469177384E+03 -0.20166707179E+02  0.19518194926E+03  0.12509041038E+03 0.  0.
          5    1    3    3  502    0  0.26615715074E+02 -0.73800973459E+02 -0.62672577448E+02  0.10050027033E+03  0.41800000000E+01 0. -1.
         -5    1    3    3    0  502  0.78652128829E+02 -0.30890800384E+02  0.42505870270E+02  0.94681678931E+02  0.41800000000E+01 0. -1.
        -11    1    1    2    0    0 -0.17695735460E+02  0.47531860347E+02  0.41522712101E+02  0.65548092434E+02  0.00000000000E+00 0. -1.
         11    1    1    2    0    0 -0.87572108444E+02  0.57159913496E+02 -0.33873284391E+02  0.10992510761E+03  0.00000000000E+00 0.  1.
</event>
<event>
 7    1  0.2719869E-009  0.1217993E+03  0.7561462E-02  0.1240158E+00
          2   -1    0    0  501    0  0.00000000000E+00  0.00000000000E+00  0.25544825046E+02  0.25544825046E+02  0.00000000000E+00 0. -1.
         -2   -1    0    0    0  501 -0.00000000000E+00 -0.00000000000E+00 -0.59554848433E+03  0.59554848433E+03  0.00000000000E+00 0.  1.
         25    2    1    2    0    0  0.56972317114E+02  0.73103449991E+01 -0.35888478866E+03  0.38436404951E+03  0.12505256880E+03 0.  0.
          5    1    3    3  502    0  0.10018921451E+02 -0.56654160170E+02 -0.16682840391E+03  0.17651986121E+03  0.41800000000E+01 0. -1.
         -5    1    3    3    0  502  0.46953395663E+02  0.63964505169E+02 -0.19205638475E+03  0.20784418830E+03  0.41800000000E+01 0. -1.
        -11    1    1    2    0    0 -0.22913167554E+00  0.35421381337E+02 -0.58481033039E+02  0.68372201825E+02  0.00000000000E+00 0.  1.
         11    1    1    2    0    0 -0.56743185438E+02 -0.42731726336E+02 -0.15263783759E+03  0.16835705804E+03  0.00000000000E+00 0. -1.
</event>
<event>
 7    1  0.2719869E-009  0.1536766E+03  0.7561462E-02  0.1196027E+00
         -2   -1    0    0    0  501 -0.00000000000E+00  0.00000000000E+00  0.71290039338E+02  0.71290039338E+02  0.00000000000E+00 0.  1.
          2   -1    0    0  501    0  0.00000000000E+00 -0.00000000000E+00 -0.34400495683E+03  0.34400495683E+03  0.00000000000E+00 0. -1.
         25    2    1    2    0    0  0.10166285782E+02  0.11186086772E+03 -0.15211603918E+03  0.22672382461E+03  0.12509275028E+03 0.  0.
          5    1    3    3  502    0  0.57599700926E+02  0.10357809569E+03 -0.95344401056E+02  0.15216495873E+03  0.41800000000E+01 0.  1.
         -5    1    3    3    0  502 -0.47433415144E+02  0.82827720336E+01 -0.56771638128E+02  0.74558865875E+02  0.41800000000E+01 0.  1.
        -11    1    1    2    0    0 -0.17609163093E+02  0.86995102668E+01 -0.36303007852E+02  0.41275567626E+02  0.00000000000E+00 0. -1.
         11    1    1    2    0    0  0.74428773110E+01 -0.12056037799E+03 -0.84295870456E+02  0.14729560394E+03  0.00000000000E+00 0.  1.
</event>
<event>
 7    1  0.2719869E-009  0.1248034E+03  0.7561462E-02  0.1235377E+00
          2   -1    0    0  501    0  0.00000000000E+00  0.00000000000E+00  0.17921258640E+03  0.17921258640E+03  0.00000000000E+00 0.  1.
         -2   -1    0    0    0  501 -0.00000000000E+00 -0.00000000000E+00 -0.12675442310E+03  0.12675442310E+03  0.00000000000E+00 0. -1.
         25    2    1    2    0    0  0.61309575165E+02 -0.57910743149E+02 -0.32844869927E+02  0.15439919295E+03  0.12509119522E+03 0.  0.
          5    1    3    3  502    0  0.96403954004E+02 -0.55778633789E+02 -0.92251418512E+01  0.11183717618E+03  0.41800000000E+01 0.  1.
         -5    1    3    3    0  502 -0.35094378838E+02 -0.21321093605E+01 -0.23619728076E+02  0.42562016761E+02  0.41800000000E+01 0.  1.
        -11    1    1    2    0    0 -0.67239828062E+02  0.28992495604E+02  0.95495557719E+02  0.12033769494E+03  0.00000000000E+00 0.  1.
         11    1    1    2    0    0  0.59302528965E+01  0.28918247545E+02 -0.10192524491E+02  0.31230121613E+02  0.00000000000E+00 0. -1.
</event>
<event>
 7    1  0.2719869E-009  0.1259932E+03  0.7561462E-02  0.1233525E+00
         -4   -1    0    0    0  501 -0.00000000000E+00  0.00000000000E+00  0.82876963488E+02  0.82876963488E+02  0.00000000000E+00 0.  1.
          4   -1    0    0  501    0  0.00000000000E+00 -0.00000000000E+00 -0.30848435816E+03  0.30848435816E+03  0.00000000000E+00 0. -1.
         25    2    1    2    0    0  0.10904160231E+03 -0.37674245805E+02 -0.10171980663E+03  0.19825218045E+03  0.12509032001E+03 0.  0.
          5    1    3    3  502    0  0.67133129894E+02 -0.21137834619E+01  0.15199049640E+02  0.68991366995E+02  0.41800000000E+01 0.  1.
         -5    1    3    3    0  502  0.41908472417E+02 -0.35560462343E+02 -0.11691885627E+03  0.12926081345E+03  0.41800000000E+01 0.  1.
        -11    1    1    2    0    0  0.62633088782E+01  0.86282648122E+01 -0.54299105892E+02  0.55335963825E+02  0.00000000000E+00 0. -1.
         11    1    1    2    0    0 -0.11530491119E+03  0.29045980993E+02 -0.69588482145E+02  0.13777317737E+03  0.00000000000E+00 0.  1.
</event>
<event>
 7    1  0.3246395E-009  0.1072438E+03  0.7561462E-02  0.1265761E+00
         -3   -1    0    0    0  501 -0.00000000000E+00  0.00000000000E+00  0.49759361557E+02  0.49759361557E+02  0.00000000000E+00 0.  1.
          3   -1    0    0  501    0  0.00000000000E+00 -0.00000000000E+00 -0.45406817667E+03  0.45406817667E+03  0.00000000000E+00 0. -1.
         25    2    1    2    0    0  0.52725307736E+02 -0.55925447117E+02 -0.33507314831E+03  0.36582559063E+03  0.12508690711E+03 0.  0.
          5    1    3    3  502    0  0.71892554924E+02 -0.16979980647E+02 -0.88170339125E+02  0.11510143482E+03  0.41800000000E+01 0.  1.
         -5    1    3    3    0  502 -0.19167247187E+02 -0.38945466470E+02 -0.24690280919E+03  0.25072415581E+03  0.41800000000E+01 0.  1.
        -11    1    1    2    0    0 -0.24043063181E+00  0.42786251484E+02  0.81718459560E+01  0.43560305202E+02  0.00000000000E+00 0.  1.
         11    1    1    2    0    0 -0.52484877104E+02  0.13139195632E+02 -0.77407512760E+02  0.94441642395E+02  0.00000000000E+00 0. -1.
</event>
<event>
 7    1  0.2719869E-009  0.1412403E+03  0.7561462E-02  0.1211670E+00
         -3   -1    0    0    0  501 -0.00000000000E+00  0.00000000000E+00  0.11443950226E+03  0.11443950226E+03  0.00000000000E+00 0.  1.
          3   -1    0    0  501    0  0.00000000000E+00 -0.00000000000E+00 -0.24561743154E+03  0.24561743154E+03  0.00000000000E+00 0. -1.
         25    2    1    2    0    0 -0.19177734923E+02 -0.12222295099E+03 -0.40349140281E+02  0.18050285808E+03  0.12508794261E+03 0.  0.
          5    1    3    3  502    0  0.20537387429E+02 -0.55861348220E+02 -0.74846237162E+02  0.95716801685E+02  0.41800000000E+01 0.  1.
         -5    1    3    3    0  502 -0.39715122351E+02 -0.66361602771E+02  0.34497096881E+02  0.84786056394E+02  0.41800000000E+01 0.  1.
        -11    1    1    2    0    0  0.43096588220E+02  0.36841214450E+02 -0.62937679927E+01  0.57045617833E+02  0.00000000000E+00 0.  1.
         11    1    1    2    0    0 -0.23918853298E+02  0.85381736540E+02 -0.84535021010E+02  0.12250845789E+03  0.00000000000E+00 0. -1.
</event>
<event>
 7    1  0.2719869E-009  0.1010026E+03  0.7561462E-02  0.1278202E+00
          1   -1    0    0  501    0  0.00000000000E+00  0.00000000000E+00  0.23688244808E+03  0.23688244808E+03  0.00000000000E+00 0. -1.
         -1   -1    0    0    0  501 -0.00000000000E+00 -0.00000000000E+00 -0.51522968805E+02  0.51522968805E+02  0.00000000000E+00 0.  1.
         25    2    1    2    0    0  0.13254286642E+02 -0.14007066638E+02  0.11764363067E+03  0.17279726077E+03  0.12508795090E+03 0.  0.
          5    1    3    3  502    0 -0.47015113248E+02 -0.30828145131E+02  0.26830996039E+02  0.62435327775E+02  0.41800000000E+01 0.  1.
         -5    1    3    3    0  502  0.60269399890E+02  0.16821078493E+02  0.90812634631E+02  0.11036193299E+03  0.41800000000E+01 0.  1.
        -11    1    1    2    0    0 -0.18919361313E+02 -0.31669483638E+02  0.57730965521E+02  0.68511041492E+02  0.00000000000E+00 0. -1.
         11    1    1    2    0    0  0.56650746704E+01  0.45676550276E+02  0.99848830848E+01  0.47097114629E+02  0.00000000000E+00 0.  1.
</event>
<event>
 7    1  0.2829744E-009  0.1073487E+03  0.7561462E-02  0.1265560E+00
          4   -1    0    0  501    0  0.00000000000E+00  0.00000000000E+00  0.15718609118E+03  0.15718609118E+03  0.00000000000E+00 0. -1.
         -4   -1    0    0    0  501 -0.00000000000E+00 -0.00000000000E+00 -0.15418235575E+03  0.15418235575E+03  0.00000000000E+00 0.  1.
         25    2    1    2    0    0 -0.45814006303E+02 -0.51551305094E+02  0.89051375597E+02  0.16832186439E+03  0.12508254197E+03 0.  0.
          5    1    3    3  502    0 -0.48951349856E+02  0.14446232872E+02  0.88345097032E+02  0.10211394061E+03  0.41800000000E+01 0. -1.
         -5    1    3    3    0  502  0.31373435526E+01 -0.65997537966E+02  0.70627856509E+00  0.66207923782E+02  0.41800000000E+01 0. -1.
        -11    1    1    2    0    0  0.64117155078E+02  0.38273981298E+02 -0.93113299152E+02  0.11935658213E+03  0.00000000000E+00 0.  1.
         11    1    1    2    0    0 -0.18303148775E+02  0.13277323796E+02  0.70656589839E+01  0.23690000404E+02  0.00000000000E+00 0. -1.
</event>
<event>
 7    1  0.2719869E-009  0.1157404E+03  0.7561462E-02  0.1250294E+00
          2   -1    0    0  501    0  0.00000000000E+00  0.00000000000E+00  0.57101128855E+02  0.57101128855E+02  0.00000000000E+00 0. -1.
         -2   -1    0    0    0  501 -0.00000000000E+00 -0.00000000000E+00 -0.29539269455E+03  0.29539269455E+03  0.00000000000E+00 0.  1.
         25    2    1    2    0    0  0.63025292809E+02 -0.21509914776E+02 -0.97336945607E+02  0.17191786182E+03  0.12508559575E+03 0.  0.
          5    1    3    3  502    0  0.62761098000E+02  0.32466565226E+02 -0.13409546623E+02  0.72043886766E+02  0.41800000000E+01 0.  1.
         -5    1    3    3    0  502  0.26419480824E+00 -0.53976480002E+02 -0.83927398983E+02  0.99873975050E+02  0.41800000000E+01 0.  1.
        -11    1    1    2    0    0 -0.23833219511E+01  0.42362911525E+02 -0.28471451313E+02  0.51097162703E+02  0.00000000000E+00 0. -1.
         11    1    1    2    0    0 -0.60641970857E+02 -0.20852996750E+02 -0.11248316878E+03  0.12947879889E+03  0.00000000000E+00 0.  1.
</event>
<event>
 7    1  0.3196749E-009  0.2074840E+03  0.7561462E-02  0.1143574E+00
          1   -1    0    0  501    0  0.00000000000E+00  0.00000000000E+00  0.35635931380E+03  0.35635931380E+03  0.00000000000E+00 0. -1.
         -1   -1    0    0    0  501 -0.00000000000E+00 -0.00000000000E+00 -0.16297231656E+03  0.16297231656E+03  0.00000000000E+00 0.  1.
         25    2    1    2    0    0  0.57349353687E+02 -0.19491163829E+03  0.17489523289E+03  0.29583101771E+03  0.12509257950E+03 0.  0.
          5    1    3    3  502    0 -0.11704862531E+02 -0.19343780953E+02 -0.15526758337E+02  0.27744157815E+02  0.41800000000E+01 0. -1.
         -5    1    3    3    0  502  0.69054216218E+02 -0.17556785733E+03  0.19042199123E+03  0.26808685990E+03  0.41800000000E+01 0. -1.
        -11    1    1    2    0    0 -0.31721150780E+02  0.96763946479E+02 -0.36426587418E+02  0.10814984520E+03  0.00000000000E+00 0.  1.
         11    1    1    2    0    0 -0.25628202907E+02  0.98147691807E+02  0.54918351763E+02  0.11535076745E+03  0.00000000000E+00 0. -1.
</event>
<event>
 7    1  0.2719869E-009  0.1617877E+03  0.7561462E-02  0.1186693E+00
          2   -1    0    0  501    0  0.00000000000E+00  0.00000000000E+00  0.29082806451E+03  0.29082806451E+03  0.00000000000E+00 0.  1.
         -2   -1    0    0    0  501 -0.00000000000E+00 -0.00000000000E+00 -0.11006488697E+03  0.11006488697E+03  0.00000000000E+00 0. -1.
         25    2    1    2    0    0 -0.11379504919E+03 -0.80072037555E+02  0.64918252474E+02  0.19804764746E+03  0.12509055417E+03 0.  0.
          5    1    3    3  502    0 -0.71160604462E+02  0.20333150212E+02  0.69576471893E+01  0.74452332934E+02  0.41800000000E+01 0. -1.
         -5    1    3    3    0  502 -0.42634444723E+02 -0.10040518777E+03  0.57960605285E+02  0.12359531452E+03  0.41800000000E+01 0. -1.
        -11    1    1    2    0    0  0.66541862102E+02  0.35927233226E+02  0.11565029452E+03  0.13817950688E+03  0.00000000000E+00 0.  1.
         11    1    1    2    0    0  0.47253187084E+02  0.44144804329E+02  0.19463054163E+00  0.64665797141E+02  0.00000000000E+00 0. -1.
</event>
<event>
 7    1  0.2719869E-009  0.1348057E+03  0.7561462E-02  0.1220494E+00
         -2   -1    0    0    0  501 -0.00000000000E+00  0.00000000000E+00  0.59745743811E+02  0.59745743811E+02  0.00000000000E+00 0.  1.
          2   -1    0    0  501    0  0.00000000000E+00 -0.00000000000E+00 -0.50921701570E+03  0.50921701570E+03  0.00000000000E+00 0. -1.
         25    2    1    2    0    0  0.28277109136E+02 -0.90707831404E+02 -0.79489061587E+02  0.17604851966E+03  0.12508822800E+03 0.  0.
          5    1    3    3  502    0  0.28596495034E+02  0.20473627190E+02 -0.49412110474E+02  0.60794391189E+02  0.41800000000E+01 0.  1.
         -5    1    3    3    0  502 -0.31938589804E+00 -0.11118145859E+03 -0.30076951113E+02  0.11525412848E+03  0.41800000000E+01 0.  1.
        -11    1    1    2    0    0  0.25741264709E+02  0.14567753570E+02 -0.16559460158E+03  0.16821535074E+03  0.00000000000E+00 0. -1.
         11    1    1    2    0    0 -0.54018373845E+02  0.76140077834E+02 -0.20438760872E+03  0.22469888910E+03  0.00000000000E+00 0.  1.
</event>
<event>
 7    1  0.2719869E-009  0.1380930E+03  0.7561462E-02  0.1215918E+00
         -1   -1    0    0    0  501 -0.00000000000E+00  0.00000000000E+00  0.36879881439E+02  0.36879881439E+02  0.00000000000E+00 0.  1.
          1   -1    0    0  501    0  0.00000000000E+00 -0.00000000000E+00 -0.56034240977E+03  0.56034240977E+03  0.00000000000E+00 0. -1.
         25    2    1    2    0    0 -0.53139930668E+02  0.69682033942E+02 -0.21536774558E+03  0.26402585903E+03  0.12508777044E+03 0.  0.
          5    1    3    3  502    0 -0.25556187082E+02  0.10320378986E+03 -0.17375515546E+03  0.20374608558E+03  0.41800000000E+01 0.  1.
         -5    1    3    3    0  502 -0.27583743586E+02 -0.33521755922E+02 -0.41612590122E+02  0.60279773448E+02  0.41800000000E+01 0.  1.
        -11    1    1    2    0    0 -0.12692251220E+02  0.14521812393E+02 -0.35592221851E+02  0.40481879064E+02  0.00000000000E+00 0.  1.
         11    1    1    2    0    0  0.65832181888E+02 -0.84203846335E+02 -0.27250256090E+03  0.29271455311E+03  0.00000000000E+00 0. -1.
</event>
<event>
 7    1  0.2719869E-009  0.1052566E+03  0.7561462E-02  0.1269615E+00
         -1   -1    0    0    0  501 -0.00000000000E+00  0.00000000000E+00  0.51882053546E+03  0.51882053546E+03  0.00000000000E+00 0.  1.
          1   -1    0    0  501    0  0.00000000000E+00 -0.00000000000E+00 -0.23408409475E+02  0.23408409475E+02  0.00000000000E+00 0. -1.
         25    2    1    2    0    0 -0.73786432319E+00 -0.11689297751E+02  0.24267594863E+03  0.27327164189E+03  0.12509432478E+03 0.  0.
          5    1    3    3  502    0 -0.51174592678E+02  0.29247811654E+02  0.94885008680E+02  0.11178063649E+03  0.41800000000E+01 0.  1.
         -5    1    3    3    0  502  0.50436728354E+02 -0.40937109405E+02  0.14779093995E+03  0.16149100540E+03  0.41800000000E+01 0.  1.
        -11    1    1    2    0    0 -0.16311964536E+02 -0.33919087652E+02  0.15823661382E+03  0.16265119319E+03  0.00000000000E+00 0.  1.
         11    1    1    2    0    0  0.17049828859E+02  0.45608385403E+02  0.94499563530E+02  0.10630610985E+03  0.00000000000E+00 0. -1.
</event>
<event>
 7    1  0.2719869E-009  0.1279600E+03  0.7561462E-02  0.1230515E+00
          1   -1    0    0  501    0  0.00000000000E+00  0.00000000000E+00  0.33675570025E+03  0.33675570025E+03  0.00000000000E+00 0.  1.
         -1   -1    0    0    0  501 -0.00000000000E+00 -0.00000000000E+00 -0.75686838855E+02  0.75686838855E+02  0.00000000000E+00 0. -1.
         25    2    1    2    0    0  0.99280982663E+02 -0.43635185882E+02  0.83463034775E+02  0.18540457537E+03  0.12509210778E+03 0.  0.
          5    1    3    3  502    0  0.93803315088E+02  0.50131994890E+01  0.96329016880E+02  0.13461406310E+03  0.41800000000E+01 0. -1.
         -5    1    3    3    0  502  0.54776675751E+01 -0.48648385371E+02 -0.12865982105E+02  0.50790512271E+02  0.41800000000E+01 0. -1.
        -11    1    1    2    0    0 -0.25157693638E+02  0.26773922606E+02  0.13496980525E+03  0.13988066632E+03  0.00000000000E+00 0.  1.
         11    1    1    2    0    0 -0.74123289026E+02  0.16861263277E+02  0.42636021377E+02  0.87157297423E+02  0.00000000000E+00 0. -1.
</event>
<event>
 7    1  0.2719869E-009  0.9909331E+02  0.7561462E-02  0.1282214E+00
         -2   -1    0    0    0  501 -0.00000000000E+00  0.00000000000E+00  0.24122987061E+03  0.24122987061E+03  0.00000000000E+00 0.  1.
          2   -1    0    0  501    0  0.00000000000E+00 -0.00000000000E+00 -0.57097763356E+02  0.57097763356E+02  0.00000000000E+00 0. -1.
         25    2    1    2    0    0 -0.35206491500E+01 -0.39268624345E+02  0.13192920638E+03  0.18602567678E+03  0.12508324067E+03 0.  0.
          5    1    3    3  502    0  0.48879534045E+02 -0.52154372033E+02  0.48152499961E+02  0.86286864720E+02  0.41800000000E+01 0.  1.
         -5    1    3    3    0  502 -0.52400183195E+02  0.12885747688E+02  0.83776706422E+02  0.99738812060E+02  0.41800000000E+01 0.  1.
        -11    1    1    2    0    0 -0.14257989223E+02  0.49798419833E+02 -0.44581417335E+01  0.51990844409E+02  0.00000000000E+00 0. -1.
         11    1    1    2    0    0  0.17778638373E+02 -0.10529795488E+02  0.56661042604E+02  0.60311112777E+02  0.00000000000E+00 0.  1.
</event>
<event>
 7    1  0.2719869E-009  0.1238652E+03  0.7561462E-02  0.1236853E+00
         -1   -1    0    0    0  501 -0.00000000000E+00  0.00000000000E+00  0.29429382346E+03  0.29429382346E+03  0.00000000000E+00 0.  1.
          1   -1    0    0  501    0  0.00000000000E+00 -0.00000000000E+00 -0.10423721167E+03  0.10423721167E+03  0.00000000000E+00 0. -1.
         25    2    1    2    0    0 -0.48485199747E+02  0.97331396583E+02  0.19597442598E+03  0.25666899115E+03  0.12509508394E+03 0.  0.
          5    1    3    3  502    0 -0.53371849224E+02  0.27238847724E+02  0.14170729701E+02  0.61715404035E+02  0.41800000000E+01 0.  1.
         -5    1    3    3    0  502  0.48866494769E+01  0.70092548859E+02  0.18180369628E+03  0.19495358712E+03  0.41800000000E+01 0.  1.
        -11    1    1    2    0    0  0.49519161007E+02 -0.51539671133E+02  0.35772837125E+02  0.79926096385E+02  0.00000000000E+00 0.  1.
         11    1    1    2    0    0 -0.10339612602E+01 -0.45791725450E+02 -0.41690651320E+02  0.61935947583E+02  0.00000000000E+00 0. -1.
</event>
<event>
 6    1  0.2719869E-009  0.1070064E+03  0.7561462E-02  0.1266216E+00
          1   -1    0    0  501    0  0.00000000000E+00  0.00000000000E+00  0.78214993183E+02  0.78214993183E+02  0.00000000000E+00 0. -1.
         -1   -1    0    0    0  501 -0.00000000000E+00 -0.00000000000E+00 -0.21452482126E+03  0.21452482126E+03  0.00000000000E+00 0.  1.
          5    1    1    2  502    0  0.40000251604E+02 -0.34638282274E+02  0.11698581383E+02  0.54352184258E+02  0.41800000000E+01 0.  1.
         -5    1    1    2    0  502 -0.10739144724E+02  0.76788005782E+02 -0.25307608866E+02  0.81668075329E+02  0.41800000000E+01 0.  1.
        -11    1    1    2    0    0 -0.22821320914E+02  0.13997034015E+02 -0.84155988164E+02  0.88311720589E+02  0.00000000000E+00 0.  1.
         11    1    1    2    0    0 -0.64397859657E+01 -0.56146757524E+02 -0.38544812427E+02  0.68407834264E+02  0.00000000000E+00 0. -1.
</event>
<event>
 7    1  0.2719869E-009  0.1023822E+03  0.7561462E-02  0.1275365E+00
          1   -1    0    0  501    0  0.00000000000E+00  0.00000000000E+00  0.35983586231E+02  0.35983586231E+02  0.00000000000E+00 0. -1.
         -1   -1    0    0    0  501 -0.00000000000E+00 -0.00000000000E+00 -0.34514143269E+03  0.34514143269E+03  0.00000000000E+00 0.  1.
         25    2    1    2    0    0 -0.10512568028E+02 -0.18795909575E+02 -0.13895463715E+03  0.18819840726E+03  0.12508576660E+03 0.  0.
          5    1    3    3  502    0 -0.67355533639E+02 -0.15742836747E+02 -0.84854305453E+02  0.10955514764E+03  0.41800000000E+01 0.  1.
         -5    1    3    3    0  502  0.56842965612E+02 -0.30530728276E+01 -0.54100331701E+02  0.78643259618E+02  0.41800000000E+01 0.  1.
        -11    1    1    2    0    0 -0.21351255978E+02 -0.19260335603E+02 -0.20785407480E+02  0.35480555569E+02  0.00000000000E+00 0. -1.
         11    1    1    2    0    0  0.31863824005E+02  0.38056245178E+02 -0.14941780183E+03  0.15744605609E+03  0.00000000000E+00 0.  1.
</event>
<event>
 7    1  0.2719869E-009  0.1207613E+03  0.7561462E-02  0.1241846E+00
          2   -1    0    0  501    0  0.00000000000E+00  0.00000000000E+00  0.27327784009E+03  0.27327784009E+03  0.00000000000E+00 0.  1.
         -2   -1    0    0    0  501 -0.00000000000E+00 -0.00000000000E+00 -0.60184082536E+02  0.60184082536E+02  0.00000000000E+00 0. -1.
         25    2    1    2    0    0  0.43850058187E+02  0.50719306257E+02  0.90899279496E+02  0.16853640084E+03  0.12508622532E+03 0.  0.
          5    1    3    3  502    0  0.68621013887E+02  0.72080644130E+02  0.91926614288E+02  0.13554496531E+03  0.41800000000E+01 0. -1.
         -5    1    3    3    0  502 -0.24770955700E+02 -0.21361337873E+02 -0.10273347923E+01  0.32991435537E+02  0.41800000000E+01 0. -1.
        -11    1    1    2    0    0 -0.97980191723E+01  0.24491062140E+02  0.17764296560E+02  0.31802256787E+02  0.00000000000E+00 0. -1.
         11    1    1    2    0    0 -0.34052039015E+02 -0.75210368397E+02  0.10443018149E+03  0.13312326499E+03  0.00000000000E+00 0.  1.
</event>
<event>
 7    1  0.2719869E-009  0.9400234E+02  0.7561462E-02  0.1293439E+00
          3   -1    0    0  501    0  0.00000000000E+00  0.00000000000E+00  0.92273446185E+03  0.92273446185E+03  0.00000000000E+00 0. -1.
         -3   -1    0    0    0  501 -0.00000000000E+00 -0.00000000000E+00 -0.19892514713E+02  0.19892514713E+02  0.00000000000E+00 0.  1.
         25    2    1    2    0    0 -0.52370941267E+01 -0.27229916520E+02  0.74194072827E+03  0.75292223005E+03  0.12508774807E+03 0.  0.
          5    1    3    3  502    0  0.28668456082E+02 -0.51919021228E+02  0.63794226100E+03  0.64070684865E+03  0.41800000000E+01 0.  1.
         -5    1    3    3    0  502 -0.33905550208E+02  0.24689104708E+02  0.10399846728E+03  0.11221538140E+03  0.41800000000E+01 0.  1.
        -11    1    1    2    0    0  0.33925003799E+02 -0.13557383468E+02  0.11928643892E+03  0.12475561326E+03  0.00000000000E+00 0. -1.
         11    1    1    2    0    0 -0.28687909673E+02  0.40787299988E+02  0.41614779950E+02  0.64949133265E+02  0.00000000000E+00 0.  1.
</event>
<event>
 7    1  0.2719869E-009  0.1595185E+03  0.7561462E-02  0.1189241E+00
          3   -1    0    0  501    0  0.00000000000E+00  0.00000000000E+00  0.68053877959E+03  0.68053877959E+03  0.00000000000E+00 0. -1.
         -3   -1    0    0    0  501 -0.00000000000E+00 -0.00000000000E+00 -0.45058869029E+02  0.45058869029E+02  0.00000000000E+00 0.  1.
         25    2    1    2    0    0  0.13399676517E+03  0.24306209524E+02  0.36602857033E+03  0.41009272537E+03  0.12511276595E+03 0.  0.
          5    1    3    3  502    0 -0.15742853078E+02  0.16642380787E+02  0.11768985507E+03  0.11997158267E+03  0.41800000000E+01 0.  1.
         -5    1    3    3    0  502  0.14973961825E+03  0.76638287369E+01  0.24833871526E+03  0.29012114270E+03  0.41800000000E+01 0. -1.
        -11    1    1    2    0    0 -0.39251240438E+02 -0.32078920321E+02  0.17220961339E+03  0.17951564820E+03  0.00000000000E+00 0. -1.
         11    1    1    2    0    0 -0.94745524733E+02  0.77727107976E+01  0.97241726837E+02  0.13598927505E+03  0.00000000000E+00 0.  1.
</event>
<event>
 7    1  0.2719869E-009  0.2202794E+03  0.7561462E-02  0.1133675E+00
          2   -1    0    0  501    0  0.00000000000E+00  0.00000000000E+00  0.18634364986E+04  0.18634364986E+04  0.00000000000E+00 0. -1.
         -2   -1    0    0    0  501 -0.00000000000E+00 -0.00000000000E+00 -0.26665595517E+02  0.26665595517E+02  0.00000000000E+00 0.  1.
         25    2    1    2    0    0 -0.15405381002E+03  0.11758830091E+03  0.87745939124E+03  0.90727161423E+03  0.12508882373E+03 0.  0.
          5    1    3    3  502    0 -0.16119842289E+03  0.59406235598E+02  0.66205200775E+03  0.68399149537E+03  0.41800000000E+01 0.  1.
         -5    1    3    3    0  502  0.71446128742E+01  0.58182065310E+02  0.21540738349E+03  0.22328011886E+03  0.41800000000E+01 0.  1.
        -11    1    1    2    0    0  0.47318228057E+02  0.47881699954E+01  0.14892106900E+03  0.15633114236E+03  0.00000000000E+00 0.  1.
         11    1    1    2    0    0  0.10673558196E+03 -0.12237647090E+03  0.81039044279E+03  0.82649933748E+03  0.00000000000E+00 0. -1.
</event>
<event>
 7    1  0.2719869E-009  0.8709554E+02  0.7561462E-02  0.1310042E+00
         -2   -1    0    0    0  501 -0.00000000000E+00  0.00000000000E+00  0.24187046745E+02  0.24187046745E+02  0.00000000000E+00 0. -1.
          2   -1    0    0  501    0  0.00000000000E+00 -0.00000000000E+00 -0.52919631691E+03  0.52919631691E+03  0.00000000000E+00 0.  1.
         25    2    1    2    0    0 -0.10449304331E+02  0.30716364589E+02 -0.28757279322E+03  0.31527541683E+03  0.12509114294E+03 0.  0.
          5    1    3    3  502    0  0.40215236657E+02  0.11772498168E+02 -0.23828657155E+03  0.24197896511E+03  0.41800000000E+01 0.  1.
         -5    1    3    3    0  502 -0.50664540988E+02  0.18943866420E+02 -0.49286221666E+02  0.73296451719E+02  0.41800000000E+01 0.  1.
        -11    1    1    2    0    0  0.40439075811E+02 -0.10897313840E+02 -0.43074117085E+02  0.60078697256E+02  0.00000000000E+00 0. -1.
         11    1    1    2    0    0 -0.29989771480E+02 -0.19819050749E+02 -0.17436235986E+03  0.17802924957E+03  0.00000000000E+00 0.  1.
</event>
<event>
 7    1  0.2719869E-009  0.2688820E+03  0.7561462E-02  0.1101921E+00
         -1   -1    0    0    0  501 -0.00000000000E+00  0.00000000000E+00  0.15705904908E+03  0.15705904908E+03  0.00000000000E+00 0.  1.
          1   -1    0    0  501    0  0.00000000000E+00 -0.00000000000E+00 -0.85209277512E+03  0.85209277512E+03  0.00000000000E+00 0. -1.
         25    2    1    2    0    0  0.96335324074E+02 -0.23448230715E+03 -0.21329349858E+02  0.28348704383E+03  0.12509003088E+03 0.  0.
          5    1    3    3  502    0  0.10182362891E+03 -0.24398946918E+03 -0.33549258796E+02  0.26653693485E+03  0.41800000000E+01 0. -1.
         -5    1    3    3    0  502 -0.54883048315E+01  0.95071620362E+01  0.12219908938E+02  0.16950108978E+02  0.41800000000E+01 0. -1.
        -11    1    1    2    0    0 -0.59389705313E+02  0.64617595482E+02 -0.14914538331E+03  0.17305177290E+03  0.00000000000E+00 0. -1.
         11    1    1    2    0    0 -0.36945618761E+02  0.16986471167E+03 -0.52455899287E+03  0.55261300747E+03  0.00000000000E+00 0.  1.
</event>
<event>
 7    1  0.2719869E-009  0.9156001E+02  0.7561462E-02  0.1299117E+00
         -2   -1    0    0    0  501 -0.00000000000E+00  0.00000000000E+00  0.14618309222E+03  0.14618309222E+03  0.00000000000E+00 0.  1.
          2   -1    0    0  501    0  0.00000000000E+00 -0.00000000000E+00 -0.11648767021E+03  0.11648767021E+03  0.00000000000E+00 0. -1.
         25    2    1    2    0    0  0.48742974361E+02  0.29886284185E+02 -0.27831766874E+02  0.14031970620E+03  0.12508375262E+03 0.  0.
          5    1    3    3  502    0  0.46739358953E+02  0.62723774726E+02 -0.56418052048E+02  0.96536566068E+02  0.41800000000E+01 0.  1.
         -5    1    3    3    0  502  0.20036154075E+01 -0.32837490541E+02  0.28586285174E+02  0.43783140132E+02  0.41800000000E+01 0.  1.
        -11    1    1    2    0    0 -0.20989830575E+02  0.98239730549E+01  0.68809516109E+02  0.72607389027E+02  0.00000000000E+00 0.  1.
         11    1    1    2    0    0 -0.27753143785E+02 -0.39710257239E+02 -0.11282327226E+02  0.49743667211E+02  0.00000000000E+00 0. -1.
</event>
<event>
 7    1  0.2719869E-009  0.1766532E+03  0.7561462E-02  0.1171082E+00
          1   -1    0    0  501    0  0.00000000000E+00  0.00000000000E+00  0.90111158130E+03  0.90111158130E+03  0.00000000000E+00 0.  1.
         -1   -1    0    0    0  501 -0.00000000000E+00 -0.00000000000E+00 -0.36334372327E+02  0.36334372327E+02  0.00000000000E+00 0. -1.
         25    2    1    2    0    0 -0.14150345400E+03 -0.24331211958E+02  0.52531539743E+03  0.55876506809E+03  0.12508756603E+03 0.  0.
          5    1    3    3  502    0 -0.98717645508E+02 -0.74915345324E+02  0.33623257360E+03  0.35836754659E+03  0.41800000000E+01 0. -1.
         -5    1    3    3    0  502 -0.42785808488E+02  0.50584133366E+02  0.18908282383E+03  0.20039752150E+03  0.41800000000E+01 0. -1.
        -11    1    1    2    0    0  0.86661812728E+02 -0.23895806426E+02  0.23146810816E+03  0.24831182905E+03  0.00000000000E+00 0.  1.
         11    1    1    2    0    0  0.54841641268E+02  0.48227018385E+02  0.10799370339E+03  0.13036905649E+03  0.00000000000E+00 0. -1.
</event>
<event>
 6    1  0.2719869E-009  0.1008164E+03  0.7561462E-02  0.1278588E+00
         -2   -1    0    0    0  501 -0.00000000000E+00  0.00000000000E+00  0.36439246846E+03  0.36439246846E+03  0.00000000000E+00 0.  1.
          2   -1    0    0  501    0  0.00000000000E+00 -0.00000000000E+00 -0.57159045611E+02  0.57159045611E+02  0.00000000000E+00 0. -1.
          5    1    1    2  502    0 -0.72019322399E+01  0.10241863732E+02 -0.10021879138E+02  0.16573293642E+02  0.41800000000E+01 0. -1.
         -5    1    1    2    0  502 -0.22674892991E+02 -0.81146820570E+02  0.25950467072E+03  0.27287195493E+03  0.41800000000E+01 0. -1.
        -11    1    1    2    0    0 -0.95572174799E+01 -0.10146380143E+02  0.37105073806E+02  0.39636800301E+02  0.00000000000E+00 0.  1.
         11    1    1    2    0    0  0.39434042711E+02  0.81051336981E+02  0.20645557457E+02  0.92469465197E+02  0.00000000000E+00 0. -1.
</event>
<event>
 7    1  0.2719869E-009  0.1465360E+03  0.7561462E-02  0.1204795E+00
         -1   -1    0    0    0  501 -0.00000000000E+00  0.00000000000E+00  0.65801865242E+02  0.65801865242E+02  0.00000000000E+00 0. -1.
          1   -1    0    0  501    0  0.00000000000E+00 -0.00000000000E+00 -0.35844370782E+03  0.35844370782E+03  0.00000000000E+00 0.  1.
         25    2    1    2    0    0  0.62561844558E+02 -0.89651145826E+02 -0.14834103213E+03  0.22271679665E+03  0.12508556014E+03 0.  0.
          5    1    3    3  502    0  0.85047816962E+02 -0.27007900880E+02 -0.45773247948E+02  0.10037539792E+03  0.41800000000E+01 0.  1.
         -5    1    3    3    0  502 -0.22485972403E+02 -0.62643244946E+02 -0.10256778418E+03  0.12234139873E+03  0.41800000000E+01 0.  1.
        -11    1    1    2    0    0 -0.78524226832E+02  0.47005597252E+02 -0.11661198406E+03  0.14823607928E+03  0.00000000000E+00 0. -1.
         11    1    1    2    0    0  0.15962382274E+02  0.42645548573E+02 -0.27688826388E+02  0.53292697133E+02  0.00000000000E+00 0.  1.
</event>
<event>
 7    1  0.2719869E-009  0.6433504E+02  0.7561462E-02  0.1380490E+00
          3   -1    0    0  501    0  0.00000000000E+00  0.00000000000E+00  0.46668973140E+02  0.46668973140E+02  0.00000000000E+00 0. -1.
         -3   -1    0    0    0  501 -0.00000000000E+00 -0.00000000000E+00 -0.27512775054E+03  0.27512775054E+03  0.00000000000E+00 0.  1.
         25    2    1    2    0    0  0.23150652355E+02  0.16148272389E+02 -0.15331710378E+03  0.19987844441E+03  0.12509411986E+03 0.  0.
          5    1    3    3  502    0  0.29148999946E+02  0.40418618860E+02 -0.59655037432E+01  0.50362571254E+02  0.41800000000E+01 0. -1.
         -5    1    3    3    0  502 -0.59983475918E+01 -0.24270346472E+02 -0.14735160004E+03  0.14951587316E+03  0.41800000000E+01 0. -1.
        -11    1    1    2    0    0 -0.80721742412E+01  0.15935883122E+02 -0.83587773812E+02  0.85475308123E+02  0.00000000000E+00 0.  1.
         11    1    1    2    0    0 -0.15078478113E+02 -0.32084155510E+02  0.84461001989E+01  0.36442971141E+02  0.00000000000E+00 0. -1.
</event>
<event>
 7    1  0.2719869E-009  0.1161985E+03  0.7561462E-02  0.1249503E+00
          1   -1    0    0  501    0  0.00000000000E+00  0.00000000000E+00  0.29480169018E+03  0.29480169018E+03  0.00000000000E+00 0. -1.
         -1   -1    0    0    0  501 -0.00000000000E+00 -0.00000000000E+00 -0.64532855358E+02  0.64532855358E+02  0.00000000000E+00 0.  1.
         25    2    1    2    0    0 -0.68023119490E+01  0.66578846487E+02  0.57830814288E+02  0.15319796731E+03  0.12508477069E+03 0.  0.
          5    1    3    3  502    0 -0.38290241400E+02 -0.85658788668E+01  0.59737805663E+02  0.71593258710E+02  0.41800000000E+01 0. -1.
         -5    1    3    3    0  502  0.31487929451E+02  0.75144725354E+02 -0.19069913747E+01  0.81604708600E+02  0.41800000000E+01 0. -1.
        -11    1    1    2    0    0 -0.41065697882E+02 -0.26017740025E+02  0.92699693153E+02  0.10467352793E+03  0.00000000000E+00 0. -1.
         11    1    1    2    0    0  0.47868009831E+02 -0.40561106462E+02  0.79738327382E+02  0.10146305030E+03  0.00000000000E+00 0.  1.
</event>
<event>
 7    1  0.3875819E-009  0.1216821E+03  0.7561462E-02  0.1240348E+00
         -2   -1    0    0    0  501 -0.00000000000E+00  0.00000000000E+00  0.45632973113E+02  0.45632973113E+02  0.00000000000E+00 0.  1.
          2   -1    0    0  501    0  0.00000000000E+00 -0.00000000000E+00 -0.38652744058E+03  0.38652744058E+03  0.00000000000E+00 0. -1.
         25    2    1    2    0    0  0.56039510377E+01  0.70838076291E+02 -0.14250250468E+03  0.20249577611E+03  0.12509251850E+03 0.  0.
          5    1    3    3  502    0  0.55421537934E+02  0.39200791105E+01 -0.82889298160E+02  0.99875032098E+02  0.41800000000E+01 0.  1.
         -5    1    3    3    0  502 -0.49817586896E+02  0.66917997180E+02 -0.59613206522E+02  0.10262074402E+03  0.41800000000E+01 0.  1.
        -11    1    1    2    0    0 -0.28778744127E+02 -0.75214847719E+02 -0.99538530923E+02  0.12803674695E+03  0.00000000000E+00 0. -1.
         11    1    1    2    0    0  0.23174793090E+02  0.43767714288E+01 -0.98853431858E+02  0.10162789063E+03  0.00000000000E+00 0.  1.
</event>
<event>
 7    1  0.2719869E-009  0.1275182E+03  0.7561462E-02  0.1231185E+00
          1   -1    0    0  501    0  0.00000000000E+00  0.00000000000E+00  0.38580519610E+03  0.38580519610E+03  0.00000000000E+00 0. -1.
         -1   -1    0    0    0  501 -0.00000000000E+00 -0.00000000000E+00 -0.53723122894E+02  0.53723122894E+02  0.00000000000E+00 0.  1.
         25    2    1    2    0    0 -0.84604755773E+02 -0.25748973884E+02  0.23011937920E+03  0.27644675247E+03  0.12508758496E+03 0.  0.
          5    1    3    3  502    0 -0.49218552209E+02  0.32748812466E+02  0.18540777661E+03  0.19464959960E+03  0.41800000000E+01 0.  1.
         -5    1    3    3    0  502 -0.35386203564E+02 -0.58497786350E+02  0.44711602597E+02  0.81797152868E+02  0.41800000000E+01 0.  1.
        -11    1    1    2    0    0 -0.19605111348E+02 -0.11847543447E+01  0.15499282145E+02  0.25019827754E+02  0.00000000000E+00 0.  1.
         11    1    1    2    0    0  0.10420986712E+03  0.26933728229E+02  0.86463411858E+02  0.13806173877E+03  0.00000000000E+00 0. -1.
</event>
<event>
 7    1  0.2719869E-009  0.1653741E+03  0.7561462E-02  0.1182760E+00
         -2   -1    0    0    0  501 -0.00000000000E+00  0.00000000000E+00  0.10746646359E+03  0.10746646359E+03  0.00000000000E+00 0.  1.
          2   -1    0    0  501    0  0.00000000000E+00 -0.00000000000E+00 -0.33350531882E+03  0.33350531882E+03  0.00000000000E+00 0. -1.
         25    2    1    2    0    0  0.13522385291E+03  0.66150485330E+02 -0.78831080171E+02  0.21100740056E+03  0.12509359210E+03 0.  0.
          5    1    3    3  502    0  0.51526409977E+02  0.79610244836E+02 -0.82911012970E+02  0.12603360853E+03  0.41800000000E+01 0.  1.
         -5    1    3    3    0  502  0.83697442934E+02 -0.13459759507E+02  0.40799327989E+01  0.84973792026E+02  0.41800000000E+01 0.  1.
        -11    1    1    2    0    0 -0.12299466530E+03 -0.56399240335E+02 -0.72246631579E+02  0.15338884503E+03  0.00000000000E+00 0.  1.
         11    1    1    2    0    0 -0.12229187607E+02 -0.97512449947E+01 -0.74961143484E+02  0.76575536830E+02  0.00000000000E+00 0. -1.
</event>
<event>
 7    1  0.2719869E-009  0.7142739E+02  0.7561462E-02  0.1355305E+00
         -3   -1    0    0    0  501 -0.00000000000E+00  0.00000000000E+00  0.13778526670E+03  0.13778526670E+03  0.00000000000E+00 0.  1.
          3   -1    0    0  501    0  0.00000000000E+00 -0.00000000000E+00 -0.10412713842E+03  0.10412713842E+03  0.00000000000E+00 0. -1.
         25    2    1    2    0    0  0.49845667268E+02  0.30257373563E+01  0.87622185851E+01  0.13497285217E+03  0.12508856349E+03 0.  0.
          5    1    3    3  502    0 -0.52542985601E+01 -0.28033918836E+02  0.51152515244E+02  0.58715930329E+02  0.41800000000E+01 0. -1.
         -5    1    3    3    0  502  0.55099965828E+02  0.31059656192E+02 -0.42390296659E+02  0.76256921836E+02  0.41800000000E+01 0. -1.
        -11    1    1    2    0    0 -0.39370304336E+02 -0.58178139734E+01 -0.30721115262E+02  0.50275786875E+02  0.00000000000E+00 0. -1.
         11    1    1    2    0    0 -0.10475362932E+02  0.27920766171E+01  0.55617024958E+02  0.56663766073E+02  0.00000000000E+00 0.  1.
</event>
<event>
 7    1  0.2719869E-009  0.4219103E+03  0.7561462E-02  0.1036446E+00
          2   -1    0    0  501    0  0.00000000000E+00  0.00000000000E+00  0.33139005294E+03  0.33139005294E+03  0.00000000000E+00 0. -1.
         -2   -1    0    0    0  501 -0.00000000000E+00 -0.00000000000E+00 -0.59384394135E+03  0.59384394135E+03  0.00000000000E+00 0.  1.
         25    2    1    2    0    0  0.14897978276E+03  0.38727897828E+03 -0.15994151151E+02  0.43368970199E+03  0.12510380510E+03 0.  0.
          5    1    3    3  502    0  0.12907167383E+03  0.22949944931E+03 -0.56930561366E+02  0.26942170557E+03  0.41800000000E+01 0.  1.
         -5    1    3    3    0  502  0.19908108932E+02  0.15777952898E+03  0.40936410215E+02  0.16426799642E+03  0.41800000000E+01 0.  1.
        -11    1    1    2    0    0 -0.10364413324E+03 -0.34185121872E+03 -0.18330918546E+03  0.40150544152E+03  0.00000000000E+00 0. -1.
         11    1    1    2    0    0 -0.45335649520E+02 -0.45427759563E+02 -0.63150551798E+02  0.90038850774E+02  0.00000000000E+00 0.  1.
</event>
<event>
 7    1  0.2719869E-009  0.9012056E+02  0.7561462E-02  0.1302560E+00
         -1   -1    0    0    0  501 -0.00000000000E+00  0.00000000000E+00  0.46670723919E+02  0.46670723919E+02  0.00000000000E+00 0.  1.
          1   -1    0    0  501    0  0.00000000000E+00 -0.00000000000E+00 -0.28295650696E+03  0.28295650696E+03  0.00000000000E+00 0. -1.
         25    2    1    2    0    0 -0.19257449356E+02 -0.23040118912E+02 -0.10185267661E+03  0.16408592806E+03  0.12509407508E+03 0.  0.
          5    1    3    3  502    0  0.28477205136E+02 -0.21984088129E+02 -0.10969525093E+03  0.11551957332E+03  0.41800000000E+01 0. -1.
         -5    1    3    3    0  502 -0.47734654492E+02 -0.10560307833E+01  0.78425743240E+01  0.48566354738E+02  0.41800000000E+01 0. -1.
        -11    1    1    2    0    0  0.37009511426E+02 -0.25144892502E+02 -0.54201139949E+02  0.70283235033E+02  0.00000000000E+00 0.  1.
         11    1    1    2    0    0 -0.17752062070E+02  0.48185011414E+02 -0.80231966482E+02  0.95258067786E+02  0.00000000000E+00 0. -1.
</event>
<event>
 7    1  0.2719869E-009  0.1304338E+03  0.7561462E-02  0.1226813E+00
          1   -1    0    0  501    0  0.00000000000E+00  0.00000000000E+00  0.60495016125E+03  0.60495016125E+03  0.00000000000E+00 0. -1.
         -1   -1    0    0    0  501 -0.00000000000E+00 -0.00000000000E+00 -0.29374320880E+02  0.29374320880E+02  0.00000000000E+00 0.  1.
         25    2    1    2    0    0  0.61027597596E+02  0.48043579991E+02  0.31745378840E+03  0.34993913069E+03  0.12509170303E+03 0.  0.
          5    1    3    3  502    0 -0.35884771240E+02  0.18531117132E+02  0.13769641825E+03  0.14355798518E+03  0.41800000000E+01 0. -1.
         -5    1    3    3    0  502  0.96912368836E+02  0.29512462859E+02  0.17975737015E+03  0.20638114551E+03  0.41800000000E+01 0. -1.
        -11    1    1    2    0    0 -0.74625100752E+02 -0.63714361759E+02  0.22220714339E+03  0.24290829572E+03  0.00000000000E+00 0. -1.
         11    1    1    2    0    0  0.13597503156E+02  0.15670781768E+02  0.35914908574E+02  0.41477055720E+02  0.00000000000E+00 0.  1.
</event>
<event>
 7    1  0.2719869E-009  0.1449098E+03  0.7561462E-02  0.1206871E+00
          2   -1    0    0  501    0  0.00000000000E+00  0.00000000000E+00  0.83972038849E+02  0.83972038849E+02  0.00000000000E+00 0. -1.
         -2   -1    0    0    0  501 -0.00000000000E+00 -0.00000000000E+00 -0.34754087780E+03  0.34754087780E+03  0.00000000000E+00 0.  1.
         25    2    1    2    0    0  0.11146386058E+03  0.43307635643E+02 -0.70402648126E+02  0.18682600351E+03  0.12509068392E+03 0.  0.
          5    1    3    3  502    0  0.62539909709E+01  0.43300864292E+02  0.19776399289E+02  0.48193937589E+02  0.41800000000E+01 0.  1.
         -5    1    3    3    0  502  0.10520986961E+03  0.67713507917E-02 -0.90179047415E+02  0.13863206592E+03  0.41800000000E+01 0.  1.
        -11    1    1    2    0    0 -0.10668040297E+03 -0.10245857821E+02 -0.10345766456E+03  0.14896031128E+03  0.00000000000E+00 0. -1.
         11    1    1    2    0    0 -0.47834576098E+01 -0.33061777822E+02 -0.89708526270E+02  0.95726601867E+02  0.00000000000E+00 0.  1.
</event>
<event>
 7    1  0.2719869E-009  0.3848934E+03  0.7561462E-02  0.1049140E+00
          2   -1    0    0  501    0  0.00000000000E+00  0.00000000000E+00  0.92955954206E+03  0.92955954206E+03  0.00000000000E+00 0. -1.
         -2   -1    0    0    0  501 -0.00000000000E+00 -0.00000000000E+00 -0.21605081745E+03  0.21605081745E+03  0.00000000000E+00 0.  1.
         25    2    1    2    0    0 -0.78900425021E+02 -0.36465220171E+03  0.74997744109E+02  0.40058495869E+03  0.12508853755E+03 0.  0.
          5    1    3    3  502    0 -0.26189977874E+02 -0.32714870374E+03  0.69716818518E+02  0.33554447765E+03  0.41800000000E+01 0. -1.
         -5    1    3    3    0  502 -0.52710447147E+02 -0.37503497972E+02  0.52809255914E+01  0.65040481038E+02  0.41800000000E+01 0. -1.
        -11    1    1    2    0    0  0.64461568582E+02  0.17426529733E+03  0.24354303215E+03  0.30632808585E+03  0.00000000000E+00 0.  1.
         11    1    1    2    0    0  0.14438856439E+02  0.19038690438E+03  0.39496794835E+03  0.43869731497E+03  0.00000000000E+00 0. -1.
</event>
<event>
 7    1  0.2719869E-009  0.8676409E+02  0.7561462E-02  0.1310883E+00
         -1   -1    0    0    0  501 -0.00000000000E+00  0.00000000000E+00  0.21528297001E+03  0.21528297001E+03  0.00000000000E+00 0.  1.
          1   -1    0    0  501    0  0.00000000000E+00 -0.00000000000E+00 -0.61899122696E+02  0.61899122696E+02  0.00000000000E+00 0. -1.
         25    2    1    2    0    0 -0.10288682083E+02  0.28586098028E+02  0.11731267524E+03  0.17416239857E+03  0.12508898962E+03 0.  0.
          5    1    3    3  502    0 -0.47028952796E+02  0.18080456640E+00  0.11845751691E+03  0.12752023684E+03  0.41800000000E+01 0.  1.
         -5    1    3    3    0  502  0.36740270713E+02  0.28405293462E+02 -0.11448416648E+01  0.46642161733E+02  0.41800000000E+01 0.  1.
        -11    1    1    2    0    0  0.18830195289E+02 -0.51711362512E+02  0.50299040215E+02  0.74556252012E+02  0.00000000000E+00 0.  1.
         11    1    1    2    0    0 -0.85415132064E+01  0.23125264484E+02 -0.14227868147E+02  0.28463442120E+02  0.00000000000E+00 0. -1.
</event>
<event>
 7    1  0.2719869E-009  0.1140607E+03  0.7561462E-02  0.1253230E+00
         -1   -1    0    0    0  501 -0.00000000000E+00  0.00000000000E+00  0.82146900897E+02  0.82146900897E+02  0.00000000000E+00 0.  1.
          1   -1    0    0  501    0  0.00000000000E+00 -0.00000000000E+00 -0.16619162739E+03  0.16619162739E+03  0.00000000000E+00 0. -1.
         25    2    1    2    0    0 -0.10664481422E+02  0.52378350161E+02 -0.50627646523E+02  0.14515083323E+03  0.12509349730E+03 0.  0.
          5    1    3    3  502    0 -0.20977478833E+01  0.93583254587E+02 -0.33203731505E+02  0.99409186050E+02  0.41800000000E+01 0.  1.
         -5    1    3    3    0  502 -0.85667335383E+01 -0.41204904426E+02 -0.17423915018E+02  0.45741647181E+02  0.41800000000E+01 0.  1.
        -11    1    1    2    0    0 -0.60795710505E+01  0.18409360450E+02  0.62043297766E+01  0.20355820895E+02  0.00000000000E+00 0.  1.
         11    1    1    2    0    0  0.16744052472E+02 -0.70787710610E+02 -0.39621409745E+02  0.82831874160E+02  0.00000000000E+00 0. -1.
</event>
<event>
 7    1  0.2719869E-009  0.1027542E+03  0.7561462E-02  0.1274609E+00
         -1   -1    0    0    0  501 -0.00000000000E+00  0.00000000000E+00  0.18222573824E+02  0.18222573824E+02  0.00000000000E+00 0.  1.
          1   -1    0    0  501    0  0.00000000000E+00 -0.00000000000E+00 -0.69385086660E+03  0.69385086660E+03  0.00000000000E+00 0. -1.
         25    2    1    2    0    0 -0.45995631183E+01 -0.31805906206E+02 -0.37943476364E+03  0.40081303571E+03  0.12509027975E+03 0.  0.
          5    1    3    3  502    0 -0.55186865244E+02 -0.19568214269E+02 -0.30044243872E+03  0.30612356409E+03  0.41800000000E+01 0.  1.
         -5    1    3    3    0  502  0.50587302126E+02 -0.12237691938E+02 -0.78992324919E+02  0.94689471624E+02  0.41800000000E+01 0.  1.
        -11    1    1    2    0    0  0.15475266895E+02 -0.28973383468E+02 -0.12605955162E+03  0.13026876598E+03  0.00000000000E+00 0. -1.
         11    1    1    2    0    0 -0.10875703777E+02  0.60779289674E+02 -0.17013397752E+03  0.18099163874E+03  0.00000000000E+00 0.  1.
</event>
<event>
 7    1  0.2719869E-009  0.1240164E+03  0.7561462E-02  0.1236614E+00
          1   -1    0    0  501    0  0.00000000000E+00  0.00000000000E+00  0.40313813756E+03  0.40313813756E+03  0.00000000000E+00 0. -1.
         -1   -1    0    0    0  501 -0.00000000000E+00 -0.00000000000E+00 -0.43548300986E+02  0.43548300986E+02  0.00000000000E+00 0.  1.
         25    2    1    2    0    0 -0.24492771937E+01  0.72944185626E+02  0.23789410325E+03  0.27851104532E+03  0.12509174566E+03 0.  0.
          5    1    3    3  502    0 -0.41108124160E+02 -0.12952037626E+02  0.38478719055E+02  0.57928554019E+02  0.41800000000E+01 0. -1.
         -5    1    3    3    0  502  0.38658846966E+02  0.85896223252E+02  0.19941538419E+03  0.22058249130E+03  0.41800000000E+01 0. -1.
        -11    1    1    2    0    0 -0.37367756098E+02 -0.15288131027E+02  0.21025224072E+02  0.45520722681E+02  0.00000000000E+00 0.  1.
         11    1    1    2    0    0  0.39817033292E+02 -0.57656054599E+02  0.10067050925E+03  0.12265467054E+03  0.00000000000E+00 0. -1.
</event>
<event>
 7    1  0.2719869E-009  0.1161229E+03  0.7561462E-02  0.1249634E+00
         -1   -1    0    0    0  501 -0.00000000000E+00  0.00000000000E+00  0.24792527075E+02  0.24792527075E+02  0.00000000000E+00 0.  1.
          1   -1    0    0  501    0  0.00000000000E+00 -0.00000000000E+00 -0.64770917377E+03  0.64770917377E+03  0.00000000000E+00 0. -1.
         25    2    1    2    0    0 -0.12181358895E+02 -0.63708050272E+02 -0.36997833587E+03  0.39590232668E+03  0.12509029573E+03 0.  0.
          5    1    3    3  502    0  0.55902594209E+02 -0.25182030056E+02 -0.18763496518E+03  0.19744261758E+03  0.41800000000E+01 0. -1.
         -5    1    3    3    0  502 -0.68083953104E+02 -0.38526020217E+02 -0.18234337069E+03  0.19845970911E+03  0.41800000000E+01 0. -1.
        -11    1    1    2    0    0  0.27777475568E+02  0.70246871551E+02 -0.24759806167E+03  0.25886485133E+03  0.00000000000E+00 0.  1.
         11    1    1    2    0    0 -0.15596116673E+02 -0.65388212787E+01 -0.53402491527E+01  0.17734522830E+02  0.00000000000E+00 0. -1.
</event>
<event>
 7    1  0.2719869E-009  0.1196218E+03  0.7561462E-02  0.1243722E+00
          2   -1    0    0  501    0  0.00000000000E+00  0.00000000000E+00  0.35902090696E+03  0.35902090696E+03  0.00000000000E+00 0. -1.
         -2   -1    0    0    0  501 -0.00000000000E+00 -0.00000000000E+00 -0.81314442901E+02  0.81314442901E+02  0.00000000000E+00 0.  1.
         25    2    1    2    0    0  0.33810219221E+02 -0.55344786793E+02  0.48180717697E+00  0.14090325499E+03  0.12508924326E+03 0.  0.
          5    1    3    3  502    0 -0.27221985273E+02 -0.63281145786E+02 -0.26029205177E+02  0.73759960794E+02  0.41800000000E+01 0. -1.
         -5    1    3    3    0  502  0.61032204494E+02  0.79363589928E+01  0.26511012354E+02  0.67143294197E+02  0.41800000000E+01 0. -1.
        -11    1    1    2    0    0 -0.39371762363E+02 -0.11850135632E+02  0.14889829931E+03  0.15447091935E+03  0.00000000000E+00 0.  1.
         11    1    1    2    0    0  0.55615431423E+01  0.67194922425E+02  0.12832635757E+03  0.14496117552E+03  0.00000000000E+00 0. -1.
</event>
<event>
 7    1  0.2719869E-009  0.1102872E+03  0.7561462E-02  0.1260039E+00
         -1   -1    0    0    0  501 -0.00000000000E+00  0.00000000000E+00  0.15257316655E+03  0.15257316655E+03  0.00000000000E+00 0.  1.
          1   -1    0    0  501    0  0.00000000000E+00 -0.00000000000E+00 -0.11440519929E+03  0.11440519929E+03  0.00000000000E+00 0. -1.
         25    2    1    2    0    0  0.16140728743E+02 -0.42090238259E+02 -0.41844233924E+02  0.13938930628E+03  0.12508528095E+03 0.  0.
          5    1    3    3  502    0  0.91727058236E+01  0.41253779960E+02  0.60890008045E+01  0.42901762481E+02  0.41800000000E+01 0. -1.
         -5    1    3    3    0  502  0.69680229190E+01 -0.83344018219E+02 -0.47933234729E+02  0.96487543796E+02  0.41800000000E+01 0. -1.
        -11    1    1    2    0    0  0.55315836204E+01  0.63595963811E+02  0.71588908047E+02  0.95916717968E+02  0.00000000000E+00 0.  1.
         11    1    1    2    0    0 -0.21672312363E+02 -0.21505725552E+02  0.84232931439E+01  0.31672341594E+02  0.00000000000E+00 0. -1.
</event>
<event>
 7    1  0.2719869E-009  0.1100823E+03  0.7561462E-02  0.1260418E+00
         -1   -1    0    0    0  501 -0.00000000000E+00  0.00000000000E+00  0.18183676681E+03  0.18183676681E+03  0.00000000000E+00 0.  1.
          1   -1    0    0  501    0  0.00000000000E+00 -0.00000000000E+00 -0.84246708161E+02  0.84246708161E+02  0.00000000000E+00 0. -1.
         25    2    1    2    0    0  0.69790936556E+01 -0.53661127939E+02  0.83018579160E+02  0.15958642812E+03  0.12509004418E+03 0.  0.
          5    1    3    3  502    0  0.58030654112E+02 -0.59776353373E+02  0.40459437570E+02  0.92710343154E+02  0.41800000000E+01 0.  1.
         -5    1    3    3    0  502 -0.51051560456E+02  0.61152254340E+01  0.42559141590E+02  0.66876084963E+02  0.41800000000E+01 0.  1.
        -11    1    1    2    0    0 -0.35337734709E+02  0.40938356544E+02 -0.22103136042E+02  0.58423053273E+02  0.00000000000E+00 0. -1.
         11    1    1    2    0    0  0.28358641054E+02  0.12722771395E+02  0.36674615530E+02  0.48073993579E+02  0.00000000000E+00 0.  1.
</event>
<event>
 7    1  0.2719869E-009  0.9215397E+02  0.7561462E-02  0.1297718E+00
          1   -1    0    0  501    0  0.00000000000E+00  0.00000000000E+00  0.15537602961E+03  0.15537602961E+03  0.00000000000E+00 0. -1.
         -1   -1    0    0    0  501 -0.00000000000E+00 -0.00000000000E+00 -0.87637909622E+02  0.87637909622E+02  0.00000000000E+00 0.  1.
         25    2    1    2    0    0 -0.34564949249E+02  0.19129724394E+02  0.52765448044E+02  0.14139517407E+03  0.12509084967E+03 0.  0.
          5    1    3    3  502    0  0.46393575090E+01  0.65892110697E+02  0.10420753648E+02  0.67002674550E+02  0.41800000000E+01 0. -1.
         -5    1    3    3    0  502 -0.39204306758E+02 -0.46762386304E+02  0.42344694396E+02  0.74392499519E+02  0.41800000000E+01 0. -1.
        -11    1    1    2    0    0  0.99398264863E+01 -0.28824866709E+02 -0.34174408871E+02  0.45799162798E+02  0.00000000000E+00 0.  1.
         11    1    1    2    0    0  0.24625122763E+02  0.96951423150E+01  0.49147080812E+02  0.55819602363E+02  0.00000000000E+00 0. -1.
</event>
<event>
 7    1  0.2719869E-009  0.1128121E+03  0.7561462E-02  0.1255449E+00
          1   -1    0    0  501    0  0.00000000000E+00  0.00000000000E+00  0.10179784633E+03  0.10179784633E+03  0.00000000000E+00 0. -1.
         -1   -1    0    0    0  501 -0.00000000000E+00 -0.00000000000E+00 -0.34817400725E+03  0.34817400725E+03  0.00000000000E+00 0.  1.
         25    2    1    2    0    0 -0.68764691276E+01  0.54929471240E+02 -0.30047367366E+03  0.33014643443E+03  0.12509079489E+03 0.  0.
          5    1    3    3  502    0  0.18002414975E+02 -0.28975373832E+02 -0.29274430826E+02  0.45145585984E+02  0.41800000000E+01 0.  1.
         -5    1    3    3    0  502 -0.24878884103E+02  0.83904845072E+02 -0.27119924284E+03  0.28500084845E+03  0.41800000000E+01 0.  1.
        -11    1    1    2    0    0 -0.23536321106E+02  0.14637684762E+02  0.28365824513E+02  0.39659049746E+02  0.00000000000E+00 0. -1.
         11    1    1    2    0    0  0.30412790234E+02 -0.69567156003E+02  0.25731688231E+02  0.80166369403E+02  0.00000000000E+00 0.  1.
</event>
<event>
 7    1  0.2719869E-009  0.8882383E+02  0.7561462E-02  0.1305725E+00
         -1   -1    0    0    0  501 -0.00000000000E+00  0.00000000000E+00  0.21348117348E+03  0.21348117348E+03  0.00000000000E+00 0.  1.
          1   -1    0    0  501    0  0.00000000000E+00 -0.00000000000E+00 -0.71481856477E+02  0.71481856477E+02  0.00000000000E+00 0. -1.
         25    2    1    2    0    0 -0.53790680454E+02 -0.67951468241E+01  0.10809248890E+03  0.17398609025E+03  0.12509021592E+03 0.  0.
          5    1    3    3  502    0  0.96905609217E+01 -0.20845059815E+02 -0.19688746633E+02  0.30553929921E+02  0.41800000000E+01 0.  1.
         -5    1    3    3    0  502 -0.63481241376E+02  0.14049912991E+02  0.12778123554E+03  0.14343216033E+03  0.41800000000E+01 0.  1.
        -11    1    1    2    0    0  0.23403177562E+02 -0.32129956265E+02  0.45331415692E+02  0.60290795800E+02  0.00000000000E+00 0.  1.
         11    1    1    2    0    0  0.30387502893E+02  0.38925103089E+02 -0.11424587592E+02  0.50686143907E+02  0.00000000000E+00 0. -1.
</event>
<event>
 7    1  0.2719869E-009  0.1102145E+03  0.7561462E-02  0.1260173E+00
          1   -1    0    0  501    0  0.00000000000E+00  0.00000000000E+00  0.75086179327E+02  0.75086179327E+02  0.00000000000E+00 0. -1.
         -1   -1    0    0    0  501 -0.00000000000E+00 -0.00000000000E+00 -0.30260435642E+03  0.30260435642E+03  0.00000000000E+00 0.  1.
         25    2    1    2    0    0  0.39808514596E+01 -0.66463074249E+02 -0.22261942612E+03  0.26389341086E+03  0.12508851264E+03 0.  0.
          5    1    3    3  502    0  0.62282317805E+02 -0.23052940983E+02 -0.82543241846E+02  0.10602539495E+03  0.41800000000E+01 0. -1.
         -5    1    3    3    0  502 -0.58301466346E+02 -0.43410133266E+02 -0.14007618427E+03  0.15786801591E+03  0.41800000000E+01 0. -1.
        -11    1    1    2    0    0  0.19336844783E+02  0.46579527838E+02 -0.42031655894E+02  0.65652312045E+02  0.00000000000E+00 0.  1.
         11    1    1    2    0    0 -0.23317696242E+02  0.19883546412E+02  0.37132904918E+02  0.48144812842E+02  0.00000000000E+00 0. -1.
</event>
<event>
 7    1  0.2719869E-009  0.1877583E+03  0.7561462E-02  0.1160499E+00
         -1   -1    0    0    0  501 -0.00000000000E+00  0.00000000000E+00  0.56380775380E+02  0.56380775380E+02  0.00000000000E+00 0.  1.
          1   -1    0    0  501    0  0.00000000000E+00 -0.00000000000E+00 -0.89526287783E+03  0.89526287783E+03  0.00000000000E+00 0. -1.
         25    2    1    2    0    0 -0.16121225519E+03  0.48274786198E+02 -0.21998145076E+03  0.30390817531E+03  0.12509394125E+03 0.  0.
          5    1    3    3  502    0 -0.51861565045E+02  0.70813665503E+02 -0.14433705786E+03  0.16898182098E+03  0.41800000000E+01 0.  1.
         -5    1    3    3    0  502 -0.10935069014E+03 -0.22538879305E+02 -0.75644392901E+02  0.13492635433E+03  0.41800000000E+01 0.  1.
        -11    1    1    2    0    0  0.46286363456E+02  0.95520927951E+01 -0.73633370680E+02  0.87495961029E+02  0.00000000000E+00 0.  1.
         11    1    1    2    0    0  0.11492589173E+03 -0.57826878993E+02 -0.54526728101E+03  0.56023951687E+03  0.00000000000E+00 0. -1.
</event>
<event>
 7    1  0.2719869E-009  0.1891809E+03  0.7561462E-02  0.1159202E+00
         -4   -1    0    0    0  501 -0.00000000000E+00  0.00000000000E+00  0.11590184615E+03  0.11590184615E+03  0.00000000000E+00 0.  1.
          4   -1    0    0  501    0  0.00000000000E+00 -0.00000000000E+00 -0.32992841726E+03  0.32992841726E+03  0.00000000000E+00 0. -1.
         25    2    1    2    0    0 -0.84769794089E+02 -0.13186317061E+03 -0.68237571189E+02  0.21184482652E+03  0.12509216861E+03 0.  0.
          5    1    3    3  502    0 -0.52010734394E+02  0.11093924003E+02 -0.24801047775E+02  0.58828190630E+02  0.41800000000E+01 0.  1.
         -5    1    3    3    0  502 -0.32759059694E+02 -0.14295709461E+03 -0.43436523414E+02  0.15301663589E+03  0.41800000000E+01 0.  1.
        -11    1    1    2    0    0  0.13936655512E+02  0.99408631747E+02 -0.55411213620E+02  0.11465909919E+03  0.00000000000E+00 0.  1.
         11    1    1    2    0    0  0.70833138576E+02  0.32454538864E+02 -0.90377786300E+02  0.11932633770E+03  0.00000000000E+00 0. -1.
</event>
<event>
 7    1  0.2719869E-009  0.9421937E+02  0.7561462E-02  0.1292944E+00
         -3   -1    0    0    0  501 -0.00000000000E+00  0.00000000000E+00  0.30746462442E+03  0.30746462442E+03  0.00000000000E+00 0.  1.
          3   -1    0    0  501    0  0.00000000000E+00 -0.00000000000E+00 -0.47639001182E+02  0.47639001182E+02  0.00000000000E+00 0. -1.
         25    2    1    2    0    0  0.16130797056E+02  0.14510613438E+02  0.73298027745E+02  0.14660376446E+03  0.12509717169E+03 0.  0.
          5    1    3    3  502    0  0.58574845451E+02  0.32675567725E+02  0.74369563732E+02  0.10023477269E+03  0.41800000000E+01 0. -1.
         -5    1    3    3    0  502 -0.42444048395E+02 -0.18164954286E+02 -0.10715359867E+01  0.46368991770E+02  0.41800000000E+01 0. -1.
        -11    1    1    2    0    0 -0.21036930309E+02 -0.41990365405E+02  0.47875309230E+02  0.67065553435E+02  0.00000000000E+00 0. -1.
         11    1    1    2    0    0  0.49061332532E+01  0.27479751967E+02  0.13865228626E+03  0.14143430771E+03  0.00000000000E+00 0.  1.
</event>
<event>
 7    1  0.2719869E-009  0.1735422E+03  0.7561462E-02  0.1174203E+00
         -2   -1    0    0    0  501 -0.00000000000E+00  0.00000000000E+00  0.56362356773E+02  0.56362356773E+02  0.00000000000E+00 0.  1.
          2   -1    0    0  501    0  0.00000000000E+00 -0.00000000000E+00 -0.62176198600E+03  0.62176198600E+03  0.00000000000E+00 0. -1.
         25    2    1    2    0    0 -0.14511485887E+03 -0.31523138210E+02 -0.34536881924E+03  0.39620631135E+03  0.12509112414E+03 0.  0.
          5    1    3    3  502    0 -0.26456297251E+02  0.41902070593E+02 -0.13367645030E+03  0.14262743407E+03  0.41800000000E+01 0.  1.
         -5    1    3    3    0  502 -0.11865856162E+03 -0.73425208803E+02 -0.21169236894E+03  0.25357887728E+03  0.41800000000E+01 0.  1.
        -11    1    1    2    0    0  0.75739074234E+02 -0.10769655084E+02 -0.17020393163E+03  0.18660592482E+03  0.00000000000E+00 0. -1.
         11    1    1    2    0    0  0.69375784635E+02  0.42292793294E+02 -0.49826878348E+02  0.95312106599E+02  0.00000000000E+00 0.  1.
</event>
<event>
 7    1  0.2719869E-009  0.1141558E+03  0.7561462E-02  0.1253062E+00
         -1   -1    0    0    0  501 -0.00000000000E+00  0.00000000000E+00  0.14654691448E+03  0.14654691448E+03  0.00000000000E+00 0.  1.
          1   -1    0    0  501    0  0.00000000000E+00 -0.00000000000E+00 -0.15870518698E+03  0.15870518698E+03  0.00000000000E+00 0. -1.
         25    2    1    2    0    0 -0.60042541056E+02 -0.10872226548E+02  0.81132243651E+02  0.16110683926E+03  0.12509860371E+03 0.  0.
          5    1    3    3  502    0 -0.75550722414E+02  0.40148837369E+02  0.48078599054E+02  0.98228635776E+02  0.41800000000E+01 0. -1.
         -5    1    3    3    0  502  0.15508181358E+02 -0.51021063918E+02  0.33053644596E+02  0.62878203484E+02  0.41800000000E+01 0. -1.
        -11    1    1    2    0    0  0.36384369587E+02 -0.26444791509E+02 -0.47972158473E+01  0.45234529157E+02  0.00000000000E+00 0.  1.
         11    1    1    2    0    0  0.23658171469E+02  0.37317018057E+02 -0.88493300302E+02  0.98910733049E+02  0.00000000000E+00 0. -1.
</event>
<event>
 7    1  0.2719869E-009  0.9497290E+02  0.7561462E-02  0.1291237E+00
         -1   -1    0    0    0  501 -0.00000000000E+00  0.00000000000E+00  0.11087562897E+03  0.11087562897E+03  0.00000000000E+00 0.  1.
          1   -1    0    0  501    0  0.00000000000E+00 -0.00000000000E+00 -0.13043061443E+03  0.13043061443E+03  0.00000000000E+00 0. -1.
         25    2    1    2    0    0 -0.47191969206E+02  0.10662772381E+02 -0.27459200179E+02  0.13690202689E+03  0.12508949045E+03 0.  0.
          5    1    3    3  502    0 -0.20745110311E+02 -0.33046352607E+02 -0.63215378548E+02  0.74404821802E+02  0.41800000000E+01 0. -1.
         -5    1    3    3    0  502 -0.26446858895E+02  0.43709124988E+02  0.35756178369E+02  0.62497205091E+02  0.41800000000E+01 0. -1.
        -11    1    1    2    0    0 -0.24925620419E+02 -0.11200734875E+02 -0.11610772169E+02  0.29690958984E+02  0.00000000000E+00 0. -1.
         11    1    1    2    0    0  0.72117589625E+02  0.53796249449E+00  0.19514986886E+02  0.74713257525E+02  0.00000000000E+00 0.  1.
</event>
<event>
 7    1  0.2719869E-009  0.1167112E+03  0.7561462E-02  0.1248623E+00
          3   -1    0    0  501    0  0.00000000000E+00  0.00000000000E+00  0.78786510530E+02  0.78786510530E+02  0.00000000000E+00 0. -1.
         -3   -1    0    0    0  501 -0.00000000000E+00 -0.00000000000E+00 -0.28294076037E+03  0.28294076037E+03  0.00000000000E+00 0.  1.
         25    2    1    2    0    0 -0.95013298641E+02 -0.10094880113E+02 -0.62416299700E+02  0.16932691952E+03  0.12508548150E+03 0.  0.
          5    1    3    3  502    0 -0.42414559681E+02 -0.53923298329E+02  0.10143579844E+02  0.69477201928E+02  0.41800000000E+01 0.  1.
         -5    1    3    3    0  502 -0.52598738960E+02  0.43828418216E+02 -0.72559879544E+02  0.99849717590E+02  0.41800000000E+01 0.  1.
        -11    1    1    2    0    0  0.53696655848E+02  0.58637726065E+00 -0.14002521159E+03  0.14996911204E+03  0.00000000000E+00 0.  1.
         11    1    1    2    0    0  0.41316642794E+02  0.95085028520E+01 -0.17127385525E+01  0.42431239336E+02  0.00000000000E+00 0. -1.
</event>
<event>
 7    1  0.2719869E-009  0.9573133E+02  0.7561462E-02  0.1289537E+00
         -1   -1    0    0    0  501 -0.00000000000E+00  0.00000000000E+00  0.14162746356E+03  0.14162746356E+03  0.00000000000E+00 0.  1.
          1   -1    0    0  501    0  0.00000000000E+00 -0.00000000000E+00 -0.11102073263E+03  0.11102073263E+03  0.00000000000E+00 0. -1.
         25    2    1    2    0    0 -0.12751046456E+02 -0.20550029278E+01  0.78869142359E+02  0.14843424777E+03  0.12508226122E+03 0.  0.
          5    1    3    3  502    0 -0.58243767886E+02  0.85449318000E+01  0.28144937982E+01  0.59082536611E+02  0.41800000000E+01 0. -1.
         -5    1    3    3    0  502  0.45492721431E+02 -0.10599934728E+02  0.76054648560E+02  0.89351711159E+02  0.41800000000E+01 0. -1.
        -11    1    1    2    0    0  0.20700449925E+02  0.40931533572E+02 -0.45229214563E+02  0.64417240841E+02  0.00000000000E+00 0.  1.
         11    1    1    2    0    0 -0.79494034694E+01 -0.38876530644E+02 -0.30331968662E+01  0.39796707573E+02  0.00000000000E+00 0. -1.
</event>
<event>
 7    1  0.2719869E-009  0.2108705E+03  0.7561462E-02  0.1140878E+00
          1   -1    0    0  501    0  0.00000000000E+00  0.00000000000E+00  0.41759586938E+02  0.41759586938E+02  0.00000000000E+00 0. -1.
         -1   -1    0    0    0  501 -0.00000000000E+00 -0.00000000000E+00 -0.13784786443E+04  0.13784786443E+04  0.00000000000E+00 0.  1.
         25    2    1    2    0    0 -0.19784303196E+03 -0.33486618006E+02 -0.47431334398E+03  0.52998483974E+03  0.12509022023E+03 0.  0.
          5    1    3    3  502    0 -0.18738838938E+03 -0.31854013447E+02 -0.29915707211E+03  0.35445946572E+03  0.41800000000E+01 0.  1.
         -5    1    3    3    0  502 -0.10454642583E+02 -0.16326045586E+01 -0.17515627187E+03  0.17552537402E+03  0.41800000000E+01 0.  1.
        -11    1    1    2    0    0  0.13752857447E+03  0.65084335994E+02 -0.56243273599E+03  0.58264969073E+03  0.00000000000E+00 0. -1.
         11    1    1    2    0    0  0.60314457488E+02 -0.31597717988E+02 -0.29997297743E+03  0.30760370081E+03  0.00000000000E+00 0.  1.
</event>
<event>
 7    1  0.2719869E-009  0.8825633E+02  0.7561462E-02  0.1307130E+00
         -2   -1    0    0    0  501 -0.00000000000E+00  0.00000000000E+00  0.12018285625E+03  0.12018285625E+03  0.00000000000E+00 0.  1.
          2   -1    0    0  501    0  0.00000000000E+00 -0.00000000000E+00 -0.12675137249E+03  0.12675137249E+03  0.00000000000E+00 0. -1.
         25    2    1    2    0    0  0.16634146979E+02 -0.51969984672E+02 -0.30975993955E+02  0.13995946402E+03  0.12510621574E+03 0.  0.
          5    1    3    3  502    0  0.32082101542E+02 -0.79410145273E+02 -0.53454262744E+02  0.10104485646E+03  0.41800000000E+01 0. -1.
         -5    1    3    3    0  502 -0.15447954563E+02  0.27440160602E+02  0.22478268789E+02  0.38914607563E+02  0.41800000000E+01 0. -1.
        -11    1    1    2    0    0  0.15714892028E+01  0.31756356909E+02  0.56543937669E+02  0.64870275701E+02  0.00000000000E+00 0.  1.
         11    1    1    2    0    0 -0.18205636182E+02  0.20213627763E+02 -0.32136459955E+02  0.42104489007E+02  0.00000000000E+00 0. -1.
</event>
<event>
 7    1  0.2719869E-009  0.1117919E+03  0.7561462E-02  0.1257287E+00
         -1   -1    0    0    0  501 -0.00000000000E+00  0.00000000000E+00  0.30971889951E+02  0.30971889951E+02  0.00000000000E+00 0.  1.
          1   -1    0    0  501    0  0.00000000000E+00 -0.00000000000E+00 -0.88378750406E+03  0.88378750406E+03  0.00000000000E+00 0. -1.
         25    2    1    2    0    0  0.46983007126E+02  0.91284548322E+02 -0.64420201855E+03  0.66421701769E+03  0.12509090362E+03 0.  0.
          5    1    3    3  502    0  0.15153721000E+02  0.83744884877E+02 -0.61275239728E+03  0.61864837652E+03  0.41800000000E+01 0.  1.
         -5    1    3    3    0  502  0.31829286126E+02  0.75396634445E+01 -0.31449621273E+02  0.45568641173E+02  0.41800000000E+01 0.  1.
        -11    1    1    2    0    0 -0.40989559401E+02 -0.54837995119E+02 -0.20165007248E+03  0.21295563252E+03  0.00000000000E+00 0. -1.
         11    1    1    2    0    0 -0.59934477250E+01 -0.36446553203E+02 -0.69635230792E+01  0.37586743802E+02  0.00000000000E+00 0.  1.
</event>
<event>
 7    1  0.2719869E-009  0.1314343E+03  0.7561462E-02  0.1225343E+00
          1   -1    0    0  501    0  0.00000000000E+00  0.00000000000E+00  0.23029162573E+03  0.23029162573E+03  0.00000000000E+00 0.  1.
         -1   -1    0    0    0  501 -0.00000000000E+00 -0.00000000000E+00 -0.97593538748E+02  0.97593538748E+02  0.00000000000E+00 0. -1.
         25    2    1    2    0    0 -0.94717306440E+02  0.21743649097E+02  0.11068476306E+03  0.19324405168E+03  0.12509193547E+03 0.  0.
          5    1    3    3  502    0  0.17762819822E+02 -0.29514463092E+02  0.22830327543E+02  0.41536942056E+02  0.41800000000E+01 0.  1.
         -5    1    3    3    0  502 -0.11248012626E+03  0.51258112188E+02  0.87854435516E+02  0.15170710962E+03  0.41800000000E+01 0.  1.
        -11    1    1    2    0    0  0.58873634800E+01 -0.14160847272E+02 -0.28360211904E+02  0.32241157911E+02  0.00000000000E+00 0. -1.
         11    1    1    2    0    0  0.88829942960E+02 -0.75828018241E+01  0.50373535822E+02  0.10239995489E+03  0.00000000000E+00 0.  1.
</event>
<event>
 7    1  0.2719869E-009  0.2090400E+03  0.7561462E-02  0.1142328E+00
         -1   -1    0    0    0  501 -0.00000000000E+00  0.00000000000E+00  0.48707471324E+02  0.48707471324E+02  0.00000000000E+00 0.  1.
          1   -1    0    0  501    0  0.00000000000E+00 -0.00000000000E+00 -0.14327170982E+04  0.14327170982E+04  0.00000000000E+00 0. -1.
         25    2    1    2    0    0 -0.18721793548E+03  0.21954512645E+02 -0.11297857700E+04  0.11522134847E+04  0.12508985679E+03 0.  0.
          5    1    3    3  502    0 -0.58501979442E+02 -0.48021398530E+02 -0.29055208897E+03  0.30027741360E+03  0.41800000000E+01 0. -1.
         -5    1    3    3    0  502 -0.12871595604E+03  0.69975911175E+02 -0.83923368104E+03  0.85193607112E+03  0.41800000000E+01 0. -1.
        -11    1    1    2    0    0  0.10521646044E+03 -0.38532147853E+02 -0.85708442806E+02  0.14107149653E+03  0.00000000000E+00 0.  1.
         11    1    1    2    0    0  0.82001475038E+02  0.16577635208E+02 -0.16851541405E+03  0.18813958825E+03  0.00000000000E+00 0. -1.
</event>
<event>
 7    1  0.2719869E-009  0.1898144E+03  0.7561462E-02  0.1158629E+00
         -2   -1    0    0    0  501 -0.00000000000E+00  0.00000000000E+00  0.80058927075E+02  0.80058927075E+02  0.00000000000E+00 0.  1.
          2   -1    0    0  501    0  0.00000000000E+00 -0.00000000000E+00 -0.55691903752E+03  0.55691903752E+03  0.00000000000E+00 0. -1.
         25    2    1    2    0    0  0.69389589516E+02 -0.15740858328E+03 -0.17046125201E+03  0.27257427297E+03  0.12508924264E+03 0.  0.
          5    1    3    3  502    0  0.85806484134E+02 -0.85258060259E+02 -0.15535560021E+03  0.19693786958E+03  0.41800000000E+01 0.  1.
         -5    1    3    3    0  502 -0.16416894619E+02 -0.72150523022E+02 -0.15105651802E+02  0.75636403389E+02  0.41800000000E+01 0.  1.
        -11    1    1    2    0    0 -0.82369798489E+02  0.12643930091E+03 -0.18656811553E+03  0.23995695916E+03  0.00000000000E+00 0.  1.
         11    1    1    2    0    0  0.12980208973E+02  0.30969282369E+02 -0.11983074291E+03  0.12444673247E+03  0.00000000000E+00 0. -1.
</event>
<event>
 7    1  0.2719869E-009  0.1217672E+03  0.7561462E-02  0.1240210E+00
          2   -1    0    0  501    0  0.00000000000E+00  0.00000000000E+00  0.39975697538E+02  0.39975697538E+02  0.00000000000E+00 0. -1.
         -2   -1    0    0    0  501 -0.00000000000E+00 -0.00000000000E+00 -0.45221541204E+03  0.45221541204E+03  0.00000000000E+00 0.  1.
         25    2    1    2    0    0  0.71498876514E+02  0.17409498982E+01 -0.31003389976E+03  0.34188152445E+03  0.12508731953E+03 0.  0.
          5    1    3    3  502    0  0.10264599020E+03  0.24058179397E+02 -0.23038689680E+03  0.25339808586E+03  0.41800000000E+01 0.  1.
         -5    1    3    3    0  502 -0.31147113686E+02 -0.22317229499E+02 -0.79647002963E+02  0.88483438589E+02  0.41800000000E+01 0.  1.
        -11    1    1    2    0    0 -0.50931013995E+02  0.31865845445E+02 -0.91533292797E+02  0.10948855640E+03  0.00000000000E+00 0. -1.
         11    1    1    2    0    0 -0.20567862519E+02 -0.33606795343E+02 -0.10672521941E+02  0.40821028728E+02  0.00000000000E+00 0.  1.
</event>
<event>
 7    1  0.2719869E-009  0.8725792E+02  0.7561462E-02  0.1309631E+00
         -2   -1    0    0    0  501 -0.00000000000E+00  0.00000000000E+00  0.21929630270E+03  0.21929630270E+03  0.00000000000E+00 0.  1.
          2   -1    0    0  501    0  0.00000000000E+00 -0.00000000000E+00 -0.72208393268E+02  0.72208393268E+02  0.00000000000E+00 0. -1.
         25    2    1    2    0    0  0.18200138273E+02 -0.48557744386E+02  0.12980211392E+03  0.18756886704E+03  0.12507754207E+03 0.  0.
          5    1    3    3  502    0  0.60720809037E+02 -0.50845458811E+02  0.41645030717E+02  0.89577108210E+02  0.41800000000E+01 0.  1.
         -5    1    3    3    0  502 -0.42520670764E+02  0.22877144250E+01  0.88157083200E+02  0.97991758826E+02  0.41800000000E+01 0.  1.
        -11    1    1    2    0    0 -0.75737275387E+01  0.30880378842E+02  0.53514371330E+02  0.62247466496E+02  0.00000000000E+00 0.  1.
         11    1    1    2    0    0 -0.10626410734E+02  0.17677365545E+02 -0.36228575811E+02  0.41688362441E+02  0.00000000000E+00 0. -1.
</event>
<event>
 7    1  0.3489946E-009  0.1194353E+03  0.7561462E-02  0.1244031E+00
          4   -1    0    0  501    0  0.00000000000E+00  0.00000000000E+00  0.12984915445E+04  0.12984915445E+04  0.00000000000E+00 0. -1.
         -4   -1    0    0    0  501 -0.00000000000E+00 -0.00000000000E+00 -0.16148776687E+02  0.16148776687E+02  0.00000000000E+00 0.  1.
         25    2    1    2    0    0 -0.34967665118E+02  0.53009877715E+02  0.10214370887E+04  0.10310276695E+04  0.12510613279E+03 0.  0.
          5    1    3    3  502    0 -0.50448866231E+02 -0.19860702269E+02  0.64363938189E+03  0.64593239733E+03  0.41800000000E+01 0.  1.
         -5    1    3    3    0  502  0.15481201112E+02  0.72870579985E+02  0.37779770681E+03  0.38509527222E+03  0.41800000000E+01 0.  1.
        -11    1    1    2    0    0 -0.19108859398E+02 -0.52424478460E+02  0.11068790215E+03  0.12395679139E+03  0.00000000000E+00 0.  1.
         11    1    1    2    0    0  0.54076524516E+02 -0.58539925493E+00  0.15021777695E+03  0.15965586023E+03  0.00000000000E+00 0. -1.
</event>
<event>
 7    1  0.2719869E-009  0.9891269E+02  0.7561462E-02  0.1282599E+00
         -2   -1    0    0    0  501 -0.00000000000E+00  0.00000000000E+00  0.22884194933E+02  0.22884194933E+02  0.00000000000E+00 0.  1.
          2   -1    0    0  501    0  0.00000000000E+00 -0.00000000000E+00 -0.75673102148E+03  0.75673102148E+03  0.00000000000E+00 0. -1.
         25    2    1    2    0    0 -0.28734540377E+01 -0.29242470837E+02 -0.60462822311E+03  0.61813082854E+03  0.12508818557E+03 0.  0.
          5    1    3    3  502    0 -0.34657526134E+02  0.28577088843E+02 -0.41221889048E+03  0.41468021437E+03  0.41800000000E+01 0. -1.
         -5    1    3    3    0  502  0.31784072096E+02 -0.57819559679E+02 -0.19240933263E+03  0.20345061417E+03  0.41800000000E+01 0. -1.
        -11    1    1    2    0    0  0.30979568192E+02  0.44805129932E+02 -0.42762975241E+02  0.69252475516E+02  0.00000000000E+00 0.  1.
         11    1    1    2    0    0 -0.28106114154E+02 -0.15562659096E+02 -0.86455628192E+02  0.92231912357E+02  0.00000000000E+00 0. -1.
</event>
<event>
 7    1  0.2719869E-009  0.1612428E+03  0.7561462E-02  0.1187301E+00
          1   -1    0    0  501    0  0.00000000000E+00  0.00000000000E+00  0.23512953452E+03  0.23512953452E+03  0.00000000000E+00 0. -1.
         -1   -1    0    0    0  501 -0.00000000000E+00 -0.00000000000E+00 -0.14215323910E+03  0.14215323910E+03  0.00000000000E+00 0.  1.
         25    2    1    2    0    0  0.84425976642E+02  0.12149111596E+03  0.62491073296E+02  0.20356712273E+03  0.12508637986E+03 0.  0.
          5    1    3    3  502    0  0.23252578491E+02 -0.53648992112E+01  0.57709484916E+02  0.62588510123E+02  0.41800000000E+01 0.  1.
         -5    1    3    3    0  502  0.61173398151E+02  0.12685601517E+03  0.47815883792E+01  0.14097861261E+03  0.41800000000E+01 0.  1.
        -11    1    1    2    0    0 -0.89574960567E+02 -0.95778172967E+02  0.50708013453E+02  0.14060026531E+03  0.00000000000E+00 0. -1.
         11    1    1    2    0    0  0.51489839248E+01 -0.25712942989E+02 -0.20222791326E+02  0.33115385573E+02  0.00000000000E+00 0.  1.
</event>
<event>
 7    1  0.6567722E-009  0.1507460E+03  0.7561462E-02  0.1199559E+00
         -2   -1    0    0    0  501 -0.00000000000E+00  0.00000000000E+00  0.26780880070E+02  0.26780880070E+02  0.00000000000E+00 0.  1.
          2   -1    0    0  501    0  0.00000000000E+00 -0.00000000000E+00 -0.10680798162E+04  0.10680798162E+04  0.00000000000E+00 0. -1.
         25    2    1    2    0    0 -0.10650115094E+03 -0.71569005206E+02 -0.50102439485E+03  0.53210553645E+03  0.12508493124E+03 0.  0.
          5    1    3    3  502    0 -0.79037134924E+02  0.67810219952E+01 -0.35773130204E+03  0.36644509522E+03  0.41800000000E+01 0. -1.
         -5    1    3    3    0  502 -0.27464016013E+02 -0.78350027201E+02 -0.14329309282E+03  0.16566044123E+03  0.41800000000E+01 0. -1.
        -11    1    1    2    0    0  0.46255114299E+02  0.62873123667E+02 -0.42783010755E+03  0.43489213169E+03  0.00000000000E+00 0. -1.
         11    1    1    2    0    0  0.60246036638E+02  0.86958815390E+01 -0.11244443370E+03  0.12786302810E+03  0.00000000000E+00 0.  1.
</event>
<event>
 7    1  0.2719869E-009  0.1857107E+03  0.7561462E-02  0.1162388E+00
         -2   -1    0    0    0  501 -0.00000000000E+00  0.00000000000E+00  0.20172229907E+03  0.20172229907E+03  0.00000000000E+00 0.  1.
          2   -1    0    0  501    0  0.00000000000E+00 -0.00000000000E+00 -0.31316731733E+03  0.31316731733E+03  0.00000000000E+00 0. -1.
         25    2    1    2    0    0  0.10209169970E+03  0.13934753172E+03  0.93210887504E+02  0.23275620990E+03  0.12508690561E+03 0.  0.
          5    1    3    3  502    0  0.11045601895E+02 -0.26677047888E+01  0.59444580889E+02  0.60665085239E+02  0.41800000000E+01 0. -1.
         -5    1    3    3    0  502  0.91046097806E+02  0.14201523651E+03  0.33766306615E+02  0.17209112466E+03  0.41800000000E+01 0. -1.
        -11    1    1    2    0    0 -0.48973231760E+02 -0.89741021340E+01 -0.31278684801E+02  0.58798537915E+02  0.00000000000E+00 0.  1.
         11    1    1    2    0    0 -0.53118467942E+02 -0.13037342958E+03 -0.17337722097E+03  0.22333486859E+03  0.00000000000E+00 0. -1.
</event>
<event>
 7    1  0.2719869E-009  0.1065161E+03  0.7561462E-02  0.1267161E+00
          1   -1    0    0  501    0  0.00000000000E+00  0.00000000000E+00  0.47054533863E+03  0.47054533863E+03  0.00000000000E+00 0. -1.
         -1   -1    0    0    0  501 -0.00000000000E+00 -0.00000000000E+00 -0.27212752350E+02  0.27212752350E+02  0.00000000000E+00 0.  1.
         25    2    1    2    0    0  0.14735531805E+01  0.31615358367E+02  0.29182832314E+03  0.31908057253E+03  0.12508772657E+03 0.  0.
          5    1    3    3  502    0 -0.21563000348E+02  0.70045238319E+02  0.23722711557E+03  0.24832534135E+03  0.41800000000E+01 0. -1.
         -5    1    3    3    0  502  0.23036553529E+02 -0.38429879952E+02  0.54601207567E+02  0.70755231180E+02  0.41800000000E+01 0. -1.
        -11    1    1    2    0    0  0.17284537430E+02  0.27568223638E+02  0.48296822285E+02  0.58235257633E+02  0.00000000000E+00 0. -1.
         11    1    1    2    0    0 -0.18758090610E+02 -0.59183582005E+02  0.10320744086E+03  0.12044226082E+03  0.00000000000E+00 0.  1.
</event>
<event>
 7    1  0.3671312E-009  0.1079218E+03  0.7561462E-02  0.1264467E+00
         -2   -1    0    0    0  501 -0.00000000000E+00  0.00000000000E+00  0.26454724644E+02  0.26454724644E+02  0.00000000000E+00 0.  1.
          2   -1    0    0  501    0  0.00000000000E+00 -0.00000000000E+00 -0.85141975892E+03  0.85141975892E+03  0.00000000000E+00 0. -1.
         25    2    1    2    0    0 -0.71796915268E+02 -0.30023949920E+02 -0.64599043286E+03  0.66257620617E+03  0.12508938815E+03 0.  0.
          5    1    3    3  502    0 -0.64887131231E+02 -0.68110190833E+02 -0.30072797158E+03  0.31512556733E+03  0.41800000000E+01 0.  1.
         -5    1    3    3    0  502 -0.69097840369E+01  0.38086240913E+02 -0.34526246128E+03  0.34745063884E+03  0.41800000000E+01 0.  1.
        -11    1    1    2    0    0  0.42338059123E+02  0.32223750842E+02 -0.25490185401E+02  0.58996872124E+02  0.00000000000E+00 0.  1.
         11    1    1    2    0    0  0.29458856145E+02 -0.21998009222E+01 -0.15348441601E+03  0.15630140527E+03  0.00000000000E+00 0. -1.
</event>
<event>
 7    1  0.2719869E-009  0.1599429E+03  0.7561462E-02  0.1188761E+00
         -1   -1    0    0    0  501 -0.00000000000E+00  0.00000000000E+00  0.46234370946E+02  0.46234370946E+02  0.00000000000E+00 0.  1.
          1   -1    0    0  501    0  0.00000000000E+00 -0.00000000000E+00 -0.82448802407E+03  0.82448802407E+03  0.00000000000E+00 0. -1.
         25    2    1    2    0    0 -0.62951458854E+02 -0.12186126721E+03 -0.20985752608E+03  0.28017845703E+03  0.12508689745E+03 0.  0.
          5    1    3    3  502    0  0.26371648016E+02 -0.47236152707E+02 -0.20770668657E+02  0.58100008761E+02  0.41800000000E+01 0.  1.
         -5    1    3    3    0  502 -0.89323106870E+02 -0.74625114506E+02 -0.18908685743E+03  0.22207844827E+03  0.41800000000E+01 0.  1.
        -11    1    1    2    0    0  0.59545422730E+01  0.75365834974E+02 -0.17979890521E+03  0.19504643542E+03  0.00000000000E+00 0.  1.
         11    1    1    2    0    0  0.56996916581E+02  0.46495432238E+02 -0.38859722183E+03  0.39549750256E+03  0.00000000000E+00 0. -1.
</event>
<event>
 7    1  0.2719869E-009  0.1376802E+03  0.7561462E-02  0.1216485E+00
         -2   -1    0    0    0  501 -0.00000000000E+00  0.00000000000E+00  0.31655118351E+02  0.31655118351E+02  0.00000000000E+00 0. -1.
          2   -1    0    0  501    0  0.00000000000E+00 -0.00000000000E+00 -0.10221254972E+04  0.10221254972E+04  0.00000000000E+00 0.  1.
         25    2    1    2    0    0 -0.12823788307E+03 -0.49491943463E+02 -0.61641023594E+03  0.64381992011E+03  0.12509237963E+03 0.  0.
          5    1    3    3  502    0 -0.81800190492E+02 -0.34804920443E+02 -0.56832245875E+03  0.57524824482E+03  0.41800000000E+01 0. -1.
         -5    1    3    3    0  502 -0.46437692576E+02 -0.14687023019E+02 -0.48087777186E+02  0.68571675287E+02  0.41800000000E+01 0. -1.
        -11    1    1    2    0    0  0.77341343347E+02  0.31207132286E+02 -0.32948671065E+03  0.33987800899E+03  0.00000000000E+00 0.  1.
         11    1    1    2    0    0  0.50896539722E+02  0.18284811177E+02 -0.44573432225E+02  0.70082686419E+02  0.00000000000E+00 0. -1.
</event>
<event>
 7    1  0.2719869E-009  0.1014861E+03  0.7561462E-02  0.1277201E+00
          3   -1    0    0  501    0  0.00000000000E+00  0.00000000000E+00  0.42560601594E+03  0.42560601594E+03  0.00000000000E+00 0. -1.
         -3   -1    0    0    0  501 -0.00000000000E+00 -0.00000000000E+00 -0.45410776824E+02  0.45410776824E+02  0.00000000000E+00 0.  1.
         25    2    1    2    0    0  0.49817296262E+02  0.19649374783E+02  0.32603286564E+03  0.35328872072E+03  0.12509048633E+03 0.  0.
          5    1    3    3  502    0 -0.96801474053E+01  0.41630427095E+02  0.35017585978E+02  0.55412105552E+02  0.41800000000E+01 0.  1.
         -5    1    3    3    0  502  0.59497443667E+02 -0.21981052312E+02  0.29101527967E+03  0.29787661517E+03  0.41800000000E+01 0.  1.
        -11    1    1    2    0    0 -0.17439194898E+02 -0.49463570413E+02  0.64954630901E+01  0.52848475451E+02  0.00000000000E+00 0.  1.
         11    1    1    2    0    0 -0.32378101364E+02  0.29814195630E+02  0.47666910384E+02  0.64879596597E+02  0.00000000000E+00 0. -1.
</event>
<event>
 7    1  0.2719869E-009  0.1280190E+03  0.7561462E-02  0.1230425E+00
          1   -1    0    0  501    0  0.00000000000E+00  0.00000000000E+00  0.17920153979E+03  0.17920153979E+03  0.00000000000E+00 0. -1.
         -1   -1    0    0    0  501 -0.00000000000E+00 -0.00000000000E+00 -0.10324820716E+03  0.10324820716E+03  0.00000000000E+00 0.  1.
         25    2    1    2    0    0  0.65353150383E+02 -0.38236589085E+02  0.73030149028E+02  0.16344534979E+03  0.12509160120E+03 0.  0.
          5    1    3    3  502    0 -0.26808427500E+02  0.20446460356E+02  0.41674851655E+01  0.34228494836E+02  0.41800000000E+01 0.  1.
         -5    1    3    3    0  502  0.92161577883E+02 -0.58683049441E+02  0.68862663862E+02  0.12921685495E+03  0.41800000000E+01 0.  1.
        -11    1    1    2    0    0  0.17092669360E+02  0.23364247300E+02  0.17704792791E+02  0.33933863404E+02  0.00000000000E+00 0.  1.
         11    1    1    2    0    0 -0.82445819743E+02  0.14872341785E+02 -0.14781609197E+02  0.85070533757E+02  0.00000000000E+00 0. -1.
</event>
<event>
 7    1  0.3197407E-009  0.1594934E+03  0.7561462E-02  0.1189270E+00
         -1   -1    0    0    0  501 -0.00000000000E+00  0.00000000000E+00  0.26753266213E+03  0.26753266213E+03  0.00000000000E+00 0.  1.
          1   -1    0    0  501    0  0.00000000000E+00 -0.00000000000E+00 -0.12304997187E+03  0.12304997187E+03  0.00000000000E+00 0. -1.
         25    2    1    2    0    0  0.68191004957E+02 -0.11360435454E+03  0.13903963802E+03  0.22920603049E+03  0.12508965163E+03 0.  0.
          5    1    3    3  502    0 -0.31074669160E+02 -0.38584414974E+02  0.11608924128E+02  0.51055182515E+02  0.41800000000E+01 0.  1.
         -5    1    3    3    0  502  0.99265674117E+02 -0.75019939568E+02  0.12743071389E+03  0.17815084797E+03  0.41800000000E+01 0.  1.
        -11    1    1    2    0    0  0.14743025571E+01  0.51271314872E+02  0.36408377293E+02  0.62900645735E+02  0.00000000000E+00 0.  1.
         11    1    1    2    0    0 -0.69665307514E+02  0.62333039670E+02 -0.30965325052E+02  0.98475957782E+02  0.00000000000E+00 0. -1.
</event>
