<event>
 8    1  0.6849590E-009  0.1209698E+03  0.7561462E-02  0.1241506E+00
          2   -1    0    0  501    0  0.00000000000E+00  0.00000000000E+00  0.39153846031E+02  0.39153846031E+02  0.00000000000E+00 0. -1.
         -2   -1    0    0    0  501 -0.00000000000E+00 -0.00000000000E+00 -0.38903627697E+03  0.38903627697E+03  0.00000000000E+00 0.  1.
         25    2    1    2    0    0  0.58112857874E+02 -0.61442570445E+01 -0.16065130158E+03  0.21184019579E+03  0.12511023823E+03 0.  0.
         23    2    1    2    0    0 -0.58112857874E+02  0.61442570445E+01 -0.18923112936E+03  0.21634992720E+03  0.87086247697E+02 0.  0.
          5    1    3    3  502    0  0.94618092582E+02 -0.22394870506E+02 -0.10455393721E+03  0.14283946183E+03  0.41800000000E+01 0. -1.
         -5    1    3    3    0  502 -0.36505234708E+02  0.16250613461E+02 -0.56097364364E+02  0.69000733964E+02  0.41800000000E+01 0. -1.
        -11    1    4    4    0    0 -0.49873327261E+01 -0.36176528476E+02 -0.75793050708E+02  0.84132046427E+02  0.00000000000E+00 0.  1.
         11    1    4    4    0    0 -0.53125525148E+02  0.42320785521E+02 -0.11343807865E+03  0.13221788078E+03  0.00000000000E+00 0. -1.
</event>
<event>
 8    1  0.6849590E-009  0.1584214E+03  0.7561462E-02  0.1190491E+00
          1   -1    0    0  501    0  0.00000000000E+00  0.00000000000E+00  0.70167753013E+03  0.70167753013E+03  0.00000000000E+00 0.  1.
         -1   -1    0    0    0  501 -0.00000000000E+00 -0.00000000000E+00 -0.38552278354E+02  0.38552278354E+02  0.00000000000E+00 0. -1.
         25    2    1    2    0    0  0.11106822871E+03  0.22404013315E+02  0.30932160438E+03  0.35237076934E+03  0.12508882007E+03 0.  0.
         23    2    1    2    0    0 -0.11106822871E+03 -0.22404013315E+02  0.35380364739E+03  0.38785903914E+03  0.11144290957E+03 0.  0.
          5    1    3    3  502    0  0.72283962341E+02 -0.47791591359E+02  0.18553924547E+03  0.20482014410E+03  0.41800000000E+01 0.  1.
         -5    1    3    3    0  502  0.38784266371E+02  0.70195604674E+02  0.12378235891E+03  0.14755062525E+03  0.41800000000E+01 0.  1.
        -11    1    4    4    0    0 -0.17136088318E+01  0.28927433108E+02  0.27653602581E+02  0.40055643511E+02  0.00000000000E+00 0. -1.
         11    1    4    4    0    0 -0.10935461988E+03 -0.51331446422E+02  0.32615004481E+03  0.34780339562E+03  0.00000000000E+00 0.  1.
</event>
<event>
 8    1  0.6849590E-009  0.7792112E+02  0.7561462E-02  0.1335057E+00
         -1   -1    0    0    0  501 -0.00000000000E+00  0.00000000000E+00  0.18141175315E+02  0.18141175315E+02  0.00000000000E+00 0.  1.
          1   -1    0    0  501    0  0.00000000000E+00 -0.00000000000E+00 -0.68028296248E+03  0.68028296248E+03  0.00000000000E+00 0. -1.
         25    2    1    2    0    0  0.97740425620E+01  0.15412192811E+02 -0.43324813248E+03  0.45131481864E+03  0.12509218054E+03 0.  0.
         23    2    1    2    0    0 -0.97740425620E+01 -0.15412192811E+02 -0.22889365469E+03  0.24710931916E+03  0.91310694131E+02 0.  0.
          5    1    3    3  502    0  0.40095946369E+02  0.12402768441E+02 -0.44355267211E+02  0.61207644209E+02  0.41800000000E+01 0.  1.
         -5    1    3    3    0  502 -0.30321903807E+02  0.30094243698E+01 -0.38889286527E+03  0.39010717443E+03  0.41800000000E+01 0.  1.
        -11    1    4    4    0    0  0.35559755160E+02 -0.11644908214E+02 -0.49577535255E+02  0.62113058823E+02  0.00000000000E+00 0.  1.
         11    1    4    4    0    0 -0.45333797722E+02 -0.37672845968E+01 -0.17931611943E+03  0.18499626033E+03  0.00000000000E+00 0. -1.
</event>
<event>
 8    1  0.6849590E-009  0.1198469E+03  0.7561462E-02  0.1243350E+00
          3   -1    0    0  501    0  0.00000000000E+00  0.00000000000E+00  0.68384920815E+02  0.68384920815E+02  0.00000000000E+00 0.  1.
         -3   -1    0    0    0  501 -0.00000000000E+00 -0.00000000000E+00 -0.27657612733E+03  0.27657612733E+03  0.00000000000E+00 0. -1.
         25    2    1    2    0    0  0.56244522760E+02  0.59176480258E+02 -0.13667731911E+03  0.20246916188E+03  0.12509104603E+03 0.  0.
         23    2    1    2    0    0 -0.56244522760E+02 -0.59176480258E+02 -0.71513887404E+02  0.14249188627E+03  0.92327674099E+02 0.  0.
          5    1    3    3  502    0  0.17239476052E+02  0.94688922608E+02 -0.84235074672E+02  0.12796957374E+03  0.41800000000E+01 0. -1.
         -5    1    3    3    0  502  0.39005046708E+02 -0.35512442350E+02 -0.52442244441E+02  0.74499588135E+02  0.41800000000E+01 0. -1.
        -11    1    4    4    0    0 -0.75277305087E+00 -0.25542496015E+02 -0.73250398123E+02  0.77579679009E+02  0.00000000000E+00 0. -1.
         11    1    4    4    0    0 -0.55491749709E+02 -0.33633984244E+02  0.17365107189E+01  0.64912207260E+02  0.00000000000E+00 0.  1.
</event>
<event>
 8    1  0.6849590E-009  0.3742060E+03  0.7561462E-02  0.1053096E+00
          1   -1    0    0  501    0  0.00000000000E+00  0.00000000000E+00  0.22636280822E+03  0.22636280822E+03  0.00000000000E+00 0. -1.
         -1   -1    0    0    0  501 -0.00000000000E+00 -0.00000000000E+00 -0.64582667154E+03  0.64582667154E+03  0.00000000000E+00 0.  1.
         25    2    1    2    0    0 -0.33983324140E+03  0.12881521548E+03 -0.15723809062E+03  0.41527476913E+03  0.12509726228E+03 0.  0.
         23    2    1    2    0    0  0.33983324140E+03 -0.12881521548E+03 -0.26222577270E+03  0.45691471064E+03  0.89043277293E+02 0.  0.
          5    1    3    3  502    0 -0.54530913606E+02  0.62441932574E+02 -0.72772753004E+02  0.11039004241E+03  0.41800000000E+01 0. -1.
         -5    1    3    3    0  502 -0.28530232780E+03  0.66373282904E+02 -0.84465337617E+02  0.30488472672E+03  0.41800000000E+01 0. -1.
        -11    1    4    4    0    0  0.73199464910E+02 -0.65911006552E+02 -0.89259131026E+02  0.13292710378E+03  0.00000000000E+00 0.  1.
         11    1    4    4    0    0  0.26663377649E+03 -0.62904208926E+02 -0.17296664167E+03  0.32398760686E+03  0.00000000000E+00 0. -1.
</event>
<event>
 8    1  0.6849590E-009  0.1124281E+03  0.7561462E-02  0.1256138E+00
          1   -1    0    0  501    0  0.00000000000E+00  0.00000000000E+00  0.22493851458E+03  0.22493851458E+03  0.00000000000E+00 0. -1.
         -1   -1    0    0    0  501 -0.00000000000E+00 -0.00000000000E+00 -0.11155835216E+03  0.11155835216E+03  0.00000000000E+00 0.  1.
         25    2    1    2    0    0 -0.14556969717E+02 -0.29965845124E+02 -0.55406859849E+02  0.14080465647E+03  0.12508466703E+03 0.  0.
         23    2    1    2    0    0  0.14556969717E+02  0.29965845124E+02  0.16878702227E+03  0.19569221027E+03  0.93255160883E+02 0.  0.
          5    1    3    3  502    0 -0.48123432460E+02 -0.62886442877E+02 -0.48886211785E+02  0.93155265831E+02  0.41800000000E+01 0. -1.
         -5    1    3    3    0  502  0.33566462743E+02  0.32920597753E+02 -0.65206480648E+01  0.47649390643E+02  0.41800000000E+01 0. -1.
        -11    1    4    4    0    0  0.48834131015E+02  0.39466523486E+02  0.96513557822E+02  0.11514011322E+03  0.00000000000E+00 0. -1.
         11    1    4    4    0    0 -0.34277161298E+02 -0.95006783620E+01  0.72273464448E+02  0.80552097051E+02  0.00000000000E+00 0.  1.
</event>
<event>
 8    1  0.6849590E-009  0.1896716E+03  0.7561462E-02  0.1158758E+00
         -1   -1    0    0    0  501 -0.00000000000E+00  0.00000000000E+00  0.38045558585E+03  0.38045558585E+03  0.00000000000E+00 0.  1.
          1   -1    0    0  501    0  0.00000000000E+00 -0.00000000000E+00 -0.12375831383E+03  0.12375831383E+03  0.00000000000E+00 0. -1.
         25    2    1    2    0    0  0.72564834826E+02  0.15768331962E+03  0.50897425173E+02  0.21992700837E+03  0.12509059349E+03 0.  0.
         23    2    1    2    0    0 -0.72564834826E+02 -0.15768331962E+03  0.20579984684E+03  0.28428689131E+03  0.91300465882E+02 0.  0.
          5    1    3    3  502    0  0.24855443239E+01  0.12644089736E+03 -0.21506687949E+01  0.12655266189E+03  0.41800000000E+01 0. -1.
         -5    1    3    3    0  502  0.70079290502E+02  0.31242422260E+02  0.53048093968E+02  0.93374346475E+02  0.41800000000E+01 0. -1.
        -11    1    4    4    0    0 -0.25598011498E+02 -0.90104897062E+02  0.17091847553E+03  0.19490324765E+03  0.00000000000E+00 0.  1.
         11    1    4    4    0    0 -0.46966823328E+02 -0.67578422558E+02  0.34881371310E+02  0.89383643658E+02  0.00000000000E+00 0. -1.
</event>
<event>
 6    1  0.6849590E-009  0.1551264E+03  0.7561462E-02  0.1194312E+00
         -2   -1    0    0    0  501 -0.00000000000E+00  0.00000000000E+00  0.39239386213E+02  0.39239386213E+02  0.00000000000E+00 0.  1.
          2   -1    0    0  501    0  0.00000000000E+00 -0.00000000000E+00 -0.83016939112E+03  0.83016939112E+03  0.00000000000E+00 0. -1.
          5    1    1    2  502    0 -0.58730770973E+02 -0.39943333064E+01 -0.46250104796E+02  0.74978681979E+02  0.41800000000E+01 0. -1.
         -5    1    1    2    0  502  0.38406107047E+02 -0.82212939423E+02 -0.12877338073E+03  0.15758823703E+03  0.41800000000E+01 0. -1.
        -11    1    1    2    0    0 -0.49515565547E+02  0.80605859497E-01 -0.23299012616E+03  0.23819361162E+03  0.00000000000E+00 0. -1.
         11    1    1    2    0    0  0.69840229473E+02  0.86126666870E+02 -0.38291639323E+03  0.39864824671E+03  0.00000000000E+00 0.  1.
</event>
<event>
 8    1  0.6849590E-009  0.7471308E+02  0.7561462E-02  0.1344762E+00
          1   -1    0    0  501    0  0.00000000000E+00  0.00000000000E+00  0.26433745171E+03  0.26433745171E+03  0.00000000000E+00 0. -1.
         -1   -1    0    0    0  501 -0.00000000000E+00 -0.00000000000E+00 -0.46937880719E+02  0.46937880719E+02  0.00000000000E+00 0.  1.
         25    2    1    2    0    0  0.92919314217E+01 -0.31582884988E+02  0.14202334014E+03  0.19210001774E+03  0.12509184250E+03 0.  0.
         23    2    1    2    0    0 -0.92919314217E+01  0.31582884988E+02  0.75376230847E+02  0.11917531468E+03  0.86240134734E+02 0.  0.
          5    1    3    3  502    0  0.32531287035E+02  0.82291573188E+01 -0.82937653009E+01  0.34817561793E+02  0.41800000000E+01 0. -1.
         -5    1    3    3    0  502 -0.23239355613E+02 -0.39812042307E+02  0.15031710544E+03  0.15728245595E+03  0.41800000000E+01 0. -1.
        -11    1    4    4    0    0 -0.14142701432E+02  0.49126340816E+02  0.84541603743E+02  0.98796235400E+02  0.00000000000E+00 0. -1.
         11    1    4    4    0    0  0.48507700101E+01 -0.17543455827E+02 -0.91653728954E+01  0.20379079282E+02  0.00000000000E+00 0.  1.
</event>
<event>
 8    1  0.6849590E-009  0.9194241E+02  0.7561462E-02  0.1298215E+00
          2   -1    0    0  501    0  0.00000000000E+00  0.00000000000E+00  0.54342749039E+03  0.54342749039E+03  0.00000000000E+00 0. -1.
         -2   -1    0    0    0  501 -0.00000000000E+00 -0.00000000000E+00 -0.41517528567E+02  0.41517528567E+02  0.00000000000E+00 0.  1.
         25    2    1    2    0    0  0.86960028343E+02  0.26410355914E+02  0.17025398883E+03  0.22998607762E+03  0.12509045429E+03 0.  0.
         23    2    1    2    0    0 -0.86960028343E+02 -0.26410355914E+02  0.33165597299E+03  0.35495894134E+03  0.87980748968E+02 0.  0.
          5    1    3    3  502    0  0.57979653848E+02  0.13473756825E+02  0.30539180799E+01  0.59749319653E+02  0.41800000000E+01 0.  1.
         -5    1    3    3    0  502  0.28980374495E+02  0.12936599089E+02  0.16720007075E+03  0.17023675796E+03  0.41800000000E+01 0.  1.
        -11    1    4    4    0    0 -0.54276023720E+02 -0.24251329547E+02  0.31010084743E+03  0.31574760381E+03  0.00000000000E+00 0. -1.
         11    1    4    4    0    0 -0.32684004623E+02 -0.21590263668E+01  0.21555125562E+02  0.39211337532E+02  0.00000000000E+00 0.  1.
</event>
<event>
 8    1  0.6849590E-009  0.1272981E+03  0.7561462E-02  0.1231521E+00
         -1   -1    0    0    0  501 -0.00000000000E+00  0.00000000000E+00  0.18523786002E+02  0.18523786002E+02  0.00000000000E+00 0.  1.
          1   -1    0    0  501    0  0.00000000000E+00 -0.00000000000E+00 -0.97286313386E+03  0.97286313386E+03  0.00000000000E+00 0. -1.
         25    2    1    2    0    0  0.91118488846E+01  0.76135372279E+02 -0.45468593229E+03  0.47776870832E+03  0.12507606055E+03 0.  0.
         23    2    1    2    0    0 -0.91118488846E+01 -0.76135372279E+02 -0.49965341557E+03  0.51361821154E+03  0.90942348979E+02 0.  0.
          5    1    3    3  502    0 -0.10435269840E+02  0.10753061428E+03 -0.36473615118E+03  0.38042300172E+03  0.41800000000E+01 0. -1.
         -5    1    3    3    0  502  0.19547118724E+02 -0.31395241997E+02 -0.89949781110E+02  0.97345706593E+02  0.41800000000E+01 0. -1.
        -11    1    4    4    0    0 -0.26874789930E+02  0.40086893834E+01 -0.53817595235E+02  0.60288120564E+02  0.00000000000E+00 0.  1.
         11    1    4    4    0    0  0.17762941045E+02 -0.80144061663E+02 -0.44583582033E+03  0.45333009098E+03  0.00000000000E+00 0. -1.
</event>
<event>
 8    1  0.6849590E-009  0.1618644E+03  0.7561462E-02  0.1186608E+00
         -2   -1    0    0    0  501 -0.00000000000E+00  0.00000000000E+00  0.15811615960E+03  0.15811615960E+03  0.00000000000E+00 0.  1.
          2   -1    0    0  501    0  0.00000000000E+00 -0.00000000000E+00 -0.18993133821E+03  0.18993133821E+03  0.00000000000E+00 0. -1.
         25    2    1    2    0    0  0.11384283431E+03  0.71114869887E+02 -0.25481883542E+02  0.18524411807E+03  0.12509412955E+03 0.  0.
         23    2    1    2    0    0 -0.11384283431E+03 -0.71114869887E+02 -0.63332950639E+01  0.16280337974E+03  0.91909271487E+02 0.  0.
          5    1    3    3  502    0  0.12449333317E+03  0.93470875478E+02 -0.10694072971E+02  0.15610006459E+03  0.41800000000E+01 0. -1.
         -5    1    3    3    0  502 -0.10650498862E+02 -0.22356005591E+02 -0.14787810572E+02  0.29144053484E+02  0.41800000000E+01 0. -1.
        -11    1    4    4    0    0 -0.25380594569E+02  0.53666618118E+01  0.30649798821E+02  0.40154524121E+02  0.00000000000E+00 0.  1.
         11    1    4    4    0    0 -0.88462239743E+02 -0.76481531699E+02 -0.36983093884E+02  0.12264885562E+03  0.00000000000E+00 0. -1.
</event>
<event>
 8    1  0.6849590E-009  0.1554677E+03  0.7561462E-02  0.1193911E+00
         -1   -1    0    0    0  501 -0.00000000000E+00  0.00000000000E+00  0.11597993489E+03  0.11597993489E+03  0.00000000000E+00 0.  1.
          1   -1    0    0  501    0  0.00000000000E+00 -0.00000000000E+00 -0.26080448237E+03  0.26080448237E+03  0.00000000000E+00 0. -1.
         25    2    1    2    0    0 -0.13207363040E+03  0.13044023837E+02 -0.10107092554E+03  0.20850895396E+03  0.12508821482E+03 0.  0.
         23    2    1    2    0    0  0.13207363040E+03 -0.13044023837E+02 -0.43753621947E+02  0.16827546330E+03  0.93747862425E+02 0.  0.
          5    1    3    3  502    0 -0.22379680270E+01  0.44243091465E+02 -0.68305072756E+01  0.45017639575E+02  0.41800000000E+01 0.  1.
         -5    1    3    3    0  502 -0.12983566238E+03 -0.31199067629E+02 -0.94240418261E+02  0.16349131439E+03  0.41800000000E+01 0.  1.
        -11    1    4    4    0    0  0.77918199573E+02 -0.10549066528E+02  0.23336787914E+02  0.82019109356E+02  0.00000000000E+00 0.  1.
         11    1    4    4    0    0  0.54155430830E+02 -0.24949573088E+01 -0.67090409861E+02  0.86256353943E+02  0.00000000000E+00 0. -1.
</event>
<event>
 8    1  0.6849590E-009  0.2898935E+03  0.7561462E-02  0.1090405E+00
          1   -1    0    0  501    0  0.00000000000E+00  0.00000000000E+00  0.68375651349E+03  0.68375651349E+03  0.00000000000E+00 0. -1.
         -1   -1    0    0    0  501 -0.00000000000E+00 -0.00000000000E+00 -0.13706959668E+03  0.13706959668E+03  0.00000000000E+00 0.  1.
         25    2    1    2    0    0  0.23247922690E+03 -0.14993703257E+03  0.18064367367E+03  0.35328057797E+03  0.12508926916E+03 0.  0.
         23    2    1    2    0    0 -0.23247922690E+03  0.14993703257E+03  0.36604324314E+03  0.46754553220E+03  0.89908087241E+02 0.  0.
          5    1    3    3  502    0  0.47011787472E+02 -0.99701618646E+02  0.80507831989E+02  0.13656318806E+03  0.41800000000E+01 0. -1.
         -5    1    3    3    0  502  0.18546743942E+03 -0.50235413927E+02  0.10013584168E+03  0.21671738991E+03  0.41800000000E+01 0. -1.
        -11    1    4    4    0    0 -0.41652223884E+02  0.18535232761E+02  0.17110293449E+02  0.48695223071E+02  0.00000000000E+00 0.  1.
         11    1    4    4    0    0 -0.19082700301E+03  0.13140179981E+03  0.34893294970E+03  0.41885030913E+03  0.00000000000E+00 0. -1.
</event>
<event>
 8    1  0.6849590E-009  0.1208048E+03  0.7561462E-02  0.1241775E+00
         -2   -1    0    0    0  501 -0.00000000000E+00  0.00000000000E+00  0.27163206271E+02  0.27163206271E+02  0.00000000000E+00 0. -1.
          2   -1    0    0  501    0  0.00000000000E+00 -0.00000000000E+00 -0.11098544731E+04  0.11098544731E+04  0.00000000000E+00 0.  1.
         25    2    1    2    0    0  0.78404044439E+02 -0.65058052862E+02 -0.86607183262E+03  0.88097021766E+03  0.12509340795E+03 0.  0.
         23    2    1    2    0    0 -0.78404044439E+02  0.65058052862E+02 -0.21661943422E+03  0.25604746172E+03  0.90865719320E+02 0.  0.
          5    1    3    3  502    0  0.52657968563E+02  0.15222442779E+02 -0.58285625750E+03  0.58544297222E+03  0.41800000000E+01 0. -1.
         -5    1    3    3    0  502  0.25746075876E+02 -0.80280495641E+02 -0.28321557512E+03  0.29552724544E+03  0.41800000000E+01 0. -1.
        -11    1    4    4    0    0 -0.44788953370E+02  0.31737008069E+02 -0.19752301602E+03  0.20500885318E+03  0.00000000000E+00 0.  1.
         11    1    4    4    0    0 -0.33615091069E+02  0.33321044794E+02 -0.19096418195E+02  0.51038608539E+02  0.00000000000E+00 0. -1.
</event>
<event>
 8    1  0.6849590E-009  0.1502726E+03  0.7561462E-02  0.1200138E+00
         -1   -1    0    0    0  501 -0.00000000000E+00  0.00000000000E+00  0.77475611556E+03  0.77475611556E+03  0.00000000000E+00 0.  1.
          1   -1    0    0  501    0  0.00000000000E+00 -0.00000000000E+00 -0.58725300499E+02  0.58725300499E+02  0.00000000000E+00 0. -1.
         25    2    1    2    0    0  0.43581674699E+02 -0.12530764206E+03  0.61805738302E+03  0.64439392007E+03  0.12508888037E+03 0.  0.
         23    2    1    2    0    0 -0.43581674699E+02  0.12530764206E+03  0.97973432043E+02  0.18908749599E+03  0.92487405761E+02 0.  0.
          5    1    3    3  502    0  0.35158705231E+02 -0.34672200829E+02  0.55087460501E+02  0.74097211609E+02  0.41800000000E+01 0. -1.
         -5    1    3    3    0  502  0.84229694677E+01 -0.90635441234E+02  0.56296992252E+03  0.57029670846E+03  0.41800000000E+01 0. -1.
        -11    1    4    4    0    0 -0.25310131193E+02  0.13624272758E+03  0.93943177719E+02  0.16741566295E+03  0.00000000000E+00 0. -1.
         11    1    4    4    0    0 -0.18271543505E+02 -0.10935085522E+02  0.40302543244E+01  0.21671833041E+02  0.00000000000E+00 0.  1.
</event>
<event>
 8    1  0.6849590E-009  0.9968188E+02  0.7561462E-02  0.1280966E+00
         -1   -1    0    0    0  501 -0.00000000000E+00  0.00000000000E+00  0.22547517964E+02  0.22547517964E+02  0.00000000000E+00 0.  1.
          1   -1    0    0  501    0  0.00000000000E+00 -0.00000000000E+00 -0.71257537084E+03  0.71257537084E+03  0.00000000000E+00 0. -1.
         25    2    1    2    0    0  0.41733441077E+01  0.12282535719E+02 -0.58307101270E+03  0.59647992350E+03  0.12509282877E+03 0.  0.
         23    2    1    2    0    0 -0.41733441077E+01 -0.12282535719E+02 -0.10695684018E+03  0.13864296530E+03  0.87257255752E+02 0.  0.
          5    1    3    3  502    0 -0.99393229107E+01  0.60130160888E+02 -0.17513122720E+03  0.18548004078E+03  0.41800000000E+01 0. -1.
         -5    1    3    3    0  502  0.14112667018E+02 -0.47847625168E+02 -0.40793978550E+03  0.41099988272E+03  0.41800000000E+01 0. -1.
        -11    1    4    4    0    0 -0.21851778111E+02  0.33013640869E+02 -0.47530098021E+02  0.61858798145E+02  0.00000000000E+00 0.  1.
         11    1    4    4    0    0  0.17678434003E+02 -0.45296176588E+02 -0.59426742155E+02  0.76784167153E+02  0.00000000000E+00 0. -1.
</event>
<event>
 8    1  0.6849590E-009  0.9075295E+02  0.7561462E-02  0.1301039E+00
          1   -1    0    0  501    0  0.00000000000E+00  0.00000000000E+00  0.49275414554E+03  0.49275414554E+03  0.00000000000E+00 0. -1.
         -1   -1    0    0    0  501 -0.00000000000E+00 -0.00000000000E+00 -0.33958574734E+02  0.33958574734E+02  0.00000000000E+00 0.  1.
         25    2    1    2    0    0 -0.22743764475E+02  0.23547710046E+02  0.12804740627E+03  0.18197576248E+03  0.12508903392E+03 0.  0.
         23    2    1    2    0    0  0.22743764475E+02 -0.23547710046E+02  0.33074816453E+03  0.34473695779E+03  0.91528401344E+02 0.  0.
          5    1    3    3  502    0  0.22229620676E+02 -0.28540378641E+02 -0.14808446360E+00  0.36417078100E+02  0.41800000000E+01 0.  1.
         -5    1    3    3    0  502 -0.44973385151E+02  0.52088088686E+02  0.12819549073E+03  0.14555868438E+03  0.41800000000E+01 0.  1.
        -11    1    4    4    0    0 -0.21591843719E+02  0.65444829489E+01  0.22490663297E+02  0.31856991505E+02  0.00000000000E+00 0.  1.
         11    1    4    4    0    0  0.44335608193E+02 -0.30092192995E+02  0.30825750123E+03  0.31287996628E+03  0.00000000000E+00 0. -1.
</event>
<event>
 8    1  0.6849590E-009  0.9936469E+02  0.7561462E-02  0.1281638E+00
          1   -1    0    0  501    0  0.00000000000E+00  0.00000000000E+00  0.36422862124E+03  0.36422862124E+03  0.00000000000E+00 0. -1.
         -1   -1    0    0    0  501 -0.00000000000E+00 -0.00000000000E+00 -0.39167360665E+02  0.39167360665E+02  0.00000000000E+00 0.  1.
         25    2    1    2    0    0  0.89375139380E+00 -0.20853892220E+02  0.10472740044E+03  0.16447009151E+03  0.12508756527E+03 0.  0.
         23    2    1    2    0    0 -0.89375139380E+00  0.20853892220E+02  0.22033386013E+03  0.23892589040E+03  0.90016040614E+02 0.  0.
          5    1    3    3  502    0  0.59880683792E+02 -0.17408549079E+02  0.30618414307E+02  0.69596792793E+02  0.41800000000E+01 0.  1.
         -5    1    3    3    0  502 -0.58986932398E+02 -0.34453431412E+01  0.74108986132E+02  0.94873298713E+02  0.41800000000E+01 0.  1.
        -11    1    4    4    0    0 -0.33698375333E+02 -0.64543445859E+01  0.36067675633E+02  0.49780681893E+02  0.00000000000E+00 0.  1.
         11    1    4    4    0    0  0.32804623940E+02  0.27308236806E+02  0.18426618450E+03  0.18914520850E+03  0.00000000000E+00 0. -1.
</event>
<event>
 8    1  0.6849590E-009  0.1927736E+03  0.7561462E-02  0.1155983E+00
          1   -1    0    0  501    0  0.00000000000E+00  0.00000000000E+00  0.22371856773E+03  0.22371856773E+03  0.00000000000E+00 0. -1.
         -1   -1    0    0    0  501 -0.00000000000E+00 -0.00000000000E+00 -0.23327941632E+03  0.23327941632E+03  0.00000000000E+00 0.  1.
         25    2    1    2    0    0  0.83161366752E+02  0.16418011158E+03 -0.83347942713E+02  0.23762161568E+03  0.12508489407E+03 0.  0.
         23    2    1    2    0    0 -0.83161366752E+02 -0.16418011158E+03  0.73787094119E+02  0.21937636836E+03  0.93864443632E+02 0.  0.
          5    1    3    3  502    0  0.42531353023E+02  0.75375407086E+02 -0.10637486289E+03  0.13719858541E+03  0.41800000000E+01 0.  1.
         -5    1    3    3    0  502  0.40630013729E+02  0.88804704498E+02  0.23026920175E+02  0.10042303027E+03  0.41800000000E+01 0.  1.
        -11    1    4    4    0    0 -0.10772283161E+00 -0.89380210116E+02  0.57864897030E+02  0.10647619393E+03  0.00000000000E+00 0. -1.
         11    1    4    4    0    0 -0.83053643920E+02 -0.74799901468E+02  0.15922197089E+02  0.11290017444E+03  0.00000000000E+00 0.  1.
</event>
<event>
 8    1  0.6849590E-009  0.1298730E+03  0.7561462E-02  0.1227644E+00
          1   -1    0    0  501    0  0.00000000000E+00  0.00000000000E+00  0.79619040779E+02  0.79619040779E+02  0.00000000000E+00 0. -1.
         -1   -1    0    0    0  501 -0.00000000000E+00 -0.00000000000E+00 -0.46401573102E+03  0.46401573102E+03  0.00000000000E+00 0.  1.
         25    2    1    2    0    0 -0.85527760453E+02 -0.82733532282E+02 -0.34907060956E+03  0.38943221289E+03  0.12508925936E+03 0.  0.
         23    2    1    2    0    0  0.85527760453E+02  0.82733532282E+02 -0.35326080685E+02  0.15420255891E+03  0.91491322138E+02 0.  0.
          5    1    3    3  502    0 -0.83168919380E+02 -0.65315879463E+02 -0.12143692543E+03  0.16108268845E+03  0.41800000000E+01 0. -1.
         -5    1    3    3    0  502 -0.23588410730E+01 -0.17417652819E+02 -0.22763368413E+03  0.22834952444E+03  0.41800000000E+01 0. -1.
        -11    1    4    4    0    0  0.48239800856E+02  0.85800579708E+02  0.58023715705E+01  0.98602664166E+02  0.00000000000E+00 0.  1.
         11    1    4    4    0    0  0.37287959598E+02 -0.30670474261E+01 -0.41128452255E+02  0.55599894746E+02  0.00000000000E+00 0. -1.
</event>
<event>
 8    1  0.6849590E-009  0.1186458E+03  0.7561462E-02  0.1245348E+00
         -1   -1    0    0    0  501 -0.00000000000E+00  0.00000000000E+00  0.18711568937E+03  0.18711568937E+03  0.00000000000E+00 0. -1.
          1   -1    0    0  501    0  0.00000000000E+00 -0.00000000000E+00 -0.92126975206E+02  0.92126975206E+02  0.00000000000E+00 0.  1.
         25    2    1    2    0    0 -0.15477677512E+02  0.74556674281E+02  0.41733929652E+02  0.15227571531E+03  0.12509163205E+03 0.  0.
         23    2    1    2    0    0  0.15477677512E+02 -0.74556674281E+02  0.53254784515E+02  0.12696694927E+03  0.86523279825E+02 0.  0.
          5    1    3    3  502    0  0.26600965786E+02  0.84098388774E+02 -0.51099942205E+01  0.88451878533E+02  0.41800000000E+01 0.  1.
         -5    1    3    3    0  502 -0.42078643299E+02 -0.95417144932E+01  0.46843923873E+02  0.63823836779E+02  0.41800000000E+01 0.  1.
        -11    1    4    4    0    0 -0.19084038377E+02 -0.67784334264E+02  0.99034657133E+01  0.71112552517E+02  0.00000000000E+00 0.  1.
         11    1    4    4    0    0  0.34561715890E+02 -0.67723400167E+01  0.43351318801E+02  0.55854396750E+02  0.00000000000E+00 0. -1.
</event>
<event>
 8    1  0.6849590E-009  0.8419819E+02  0.7561462E-02  0.1317543E+00
          2   -1    0    0  501    0  0.00000000000E+00  0.00000000000E+00  0.70484805069E+02  0.70484805069E+02  0.00000000000E+00 0. -1.
         -2   -1    0    0    0  501 -0.00000000000E+00 -0.00000000000E+00 -0.33861616666E+03  0.33861616666E+03  0.00000000000E+00 0.  1.
         25    2    1    2    0    0  0.36470310579E+02  0.44160608200E+02 -0.26852416751E+03  0.30171664735E+03  0.12508982324E+03 0.  0.
         23    2    1    2    0    0 -0.36470310579E+02 -0.44160608200E+02  0.39280592543E+00  0.10738432438E+03  0.90834993010E+02 0.  0.
          5    1    3    3  502    0  0.41954821314E+02  0.15414997285E+02 -0.26842730726E+03  0.27215532487E+03  0.41800000000E+01 0.  1.
         -5    1    3    3    0  502 -0.54845107348E+01  0.28745610916E+02 -0.96860255865E-01  0.29561322481E+02  0.41800000000E+01 0.  1.
        -11    1    4    4    0    0 -0.57129762760E+02 -0.16587838623E+02 -0.25056269701E+02  0.64550622263E+02  0.00000000000E+00 0.  1.
         11    1    4    4    0    0  0.20659452181E+02 -0.27572769577E+02  0.25449075627E+02  0.42833702114E+02  0.00000000000E+00 0. -1.
</event>
<event>
 8    1  0.6849590E-009  0.1160130E+03  0.7561462E-02  0.1249823E+00
          2   -1    0    0  501    0  0.00000000000E+00  0.00000000000E+00  0.95120607718E+03  0.95120607718E+03  0.00000000000E+00 0. -1.
         -2   -1    0    0    0  501 -0.00000000000E+00 -0.00000000000E+00 -0.14225837142E+02  0.14225837142E+02  0.00000000000E+00 0.  1.
         25    2    1    2    0    0 -0.38510696214E+02 -0.14521560422E+02  0.53181129886E+03  0.54787215930E+03  0.12508675347E+03 0.  0.
         23    2    1    2    0    0  0.38510696214E+02  0.14521560422E+02  0.40516894117E+03  0.41755975502E+03  0.92197227094E+02 0.  0.
          5    1    3    3  502    0  0.29243065465E+02 -0.47621332440E+02  0.23825915942E+03  0.24476079676E+03  0.41800000000E+01 0. -1.
         -5    1    3    3    0  502 -0.67753761679E+02  0.33099772018E+02  0.29355213944E+03  0.30311136254E+03  0.41800000000E+01 0. -1.
        -11    1    4    4    0    0  0.47647875678E+02 -0.29143068434E+02  0.24570758309E+03  0.25197590139E+03  0.00000000000E+00 0. -1.
         11    1    4    4    0    0 -0.91371794645E+01  0.43664628856E+02  0.15946135808E+03  0.16558385363E+03  0.00000000000E+00 0.  1.
</event>
<event>
 8    1  0.6849590E-009  0.7559314E+02  0.7561462E-02  0.1342044E+00
          2   -1    0    0  501    0  0.00000000000E+00  0.00000000000E+00  0.31864331538E+03  0.31864331538E+03  0.00000000000E+00 0.  1.
         -2   -1    0    0    0  501 -0.00000000000E+00 -0.00000000000E+00 -0.42504891655E+02  0.42504891655E+02  0.00000000000E+00 0. -1.
         25    2    1    2    0    0  0.41117720392E+02 -0.34747248887E+00  0.23850367260E+03  0.27243762880E+03  0.12508985600E+03 0.  0.
         23    2    1    2    0    0 -0.41117720392E+02  0.34747248887E+00  0.37634751118E+02  0.88710578230E+02  0.69010177009E+02 0.  0.
          5    1    3    3  502    0 -0.43969114197E+01  0.25840161291E+02 -0.16312962034E+01  0.26592861690E+02  0.41800000000E+01 0. -1.
         -5    1    3    3    0  502  0.45514631812E+02 -0.26187633780E+02  0.24013496881E+03  0.24584476711E+03  0.41800000000E+01 0. -1.
        -11    1    4    4    0    0  0.15319088069E+02 -0.21794365411E+01 -0.67356569968E+01  0.16875825256E+02  0.00000000000E+00 0. -1.
         11    1    4    4    0    0 -0.56436808461E+02  0.25269090299E+01  0.44370408115E+02  0.71834752974E+02  0.00000000000E+00 0.  1.
</event>
<event>
 8    1  0.6849590E-009  0.1048961E+03  0.7561462E-02  0.1270324E+00
         -2   -1    0    0    0  501 -0.00000000000E+00  0.00000000000E+00  0.55020135145E+03  0.55020135145E+03  0.00000000000E+00 0.  1.
          2   -1    0    0  501    0  0.00000000000E+00 -0.00000000000E+00 -0.28808680743E+02  0.28808680743E+02  0.00000000000E+00 0. -1.
         25    2    1    2    0    0 -0.98828013385E+01  0.30285789583E+02  0.16055954808E+03  0.20601557943E+03  0.12509257242E+03 0.  0.
         23    2    1    2    0    0  0.98828013385E+01 -0.30285789583E+02  0.36083312262E+03  0.37299445276E+03  0.88934923379E+02 0.  0.
          5    1    3    3  502    0 -0.32009768406E+01  0.75957030601E+02  0.12949862603E+03  0.15022344456E+03  0.41800000000E+01 0. -1.
         -5    1    3    3    0  502 -0.66818244979E+01 -0.45671241018E+02  0.31060922047E+02  0.55792134868E+02  0.41800000000E+01 0. -1.
        -11    1    4    4    0    0  0.44923627314E+02 -0.75964453315E+01  0.11597916902E+03  0.12460740716E+03  0.00000000000E+00 0. -1.
         11    1    4    4    0    0 -0.35040825975E+02 -0.22689344251E+02  0.24485395360E+03  0.24838704560E+03  0.00000000000E+00 0.  1.
</event>
<event>
 8    1  0.6849590E-009  0.1233955E+03  0.7561462E-02  0.1237598E+00
         -2   -1    0    0    0  501 -0.00000000000E+00  0.00000000000E+00  0.52244277691E+02  0.52244277691E+02  0.00000000000E+00 0.  1.
          2   -1    0    0  501    0  0.00000000000E+00 -0.00000000000E+00 -0.43167006787E+03  0.43167006787E+03  0.00000000000E+00 0. -1.
         25    2    1    2    0    0 -0.34286255081E+02 -0.79990208267E+02 -0.11259735243E+03  0.18947250142E+03  0.12509070434E+03 0.  0.
         23    2    1    2    0    0  0.34286255081E+02  0.79990208267E+02 -0.26682843775E+03  0.29444184415E+03  0.89020243138E+02 0.  0.
          5    1    3    3  502    0 -0.52080582511E+02 -0.29539547214E+01 -0.94856122784E+02  0.10833406368E+03  0.41800000000E+01 0.  1.
         -5    1    3    3    0  502  0.17794327430E+02 -0.77036253546E+02 -0.17741229650E+02  0.81138437738E+02  0.41800000000E+01 0.  1.
        -11    1    4    4    0    0 -0.24229825862E+02  0.27782881477E+02 -0.14455598160E+03  0.14918245467E+03  0.00000000000E+00 0. -1.
         11    1    4    4    0    0  0.58516080943E+02  0.52207326791E+02 -0.12227245614E+03  0.14525938948E+03  0.00000000000E+00 0.  1.
</event>
<event>
 8    1  0.6849590E-009  0.8584134E+02  0.7561462E-02  0.1313247E+00
          2   -1    0    0  501    0  0.00000000000E+00  0.00000000000E+00  0.10893592052E+03  0.10893592052E+03  0.00000000000E+00 0. -1.
         -2   -1    0    0    0  501 -0.00000000000E+00 -0.00000000000E+00 -0.14269400673E+03  0.14269400673E+03  0.00000000000E+00 0.  1.
         25    2    1    2    0    0 -0.53891324884E+01  0.60251326437E+02 -0.23602387771E+02  0.14094095326E+03  0.12509202417E+03 0.  0.
         23    2    1    2    0    0  0.53891324884E+01 -0.60251326437E+02 -0.10155698442E+02  0.11068897399E+03  0.92139273199E+02 0.  0.
          5    1    3    3  502    0 -0.67860266098E+01  0.29092037491E+02  0.51403854357E+02  0.59600549035E+02  0.41800000000E+01 0. -1.
         -5    1    3    3    0  502  0.13968941214E+01  0.31159288946E+02 -0.75006242128E+02  0.81340404221E+02  0.41800000000E+01 0. -1.
        -11    1    4    4    0    0  0.25004795294E+02  0.17071772401E+02 -0.55698219116E+01  0.30784868308E+02  0.00000000000E+00 0.  1.
         11    1    4    4    0    0 -0.19615662806E+02 -0.77323098838E+02 -0.45858765304E+01  0.79904105681E+02  0.00000000000E+00 0. -1.
</event>
<event>
 8    1  0.6849590E-009  0.1222673E+03  0.7561462E-02  0.1239403E+00
          2   -1    0    0  501    0  0.00000000000E+00  0.00000000000E+00  0.58869600094E+02  0.58869600094E+02  0.00000000000E+00 0.  1.
         -2   -1    0    0    0  501 -0.00000000000E+00 -0.00000000000E+00 -0.40730893975E+03  0.40730893975E+03  0.00000000000E+00 0. -1.
         25    2    1    2    0    0 -0.49377055783E+02  0.79529020527E+02 -0.99735499314E+02  0.18535757299E+03  0.12508917338E+03 0.  0.
         23    2    1    2    0    0  0.49377055783E+02 -0.79529020527E+02 -0.24870384034E+03  0.28082096685E+03  0.90795685356E+02 0.  0.
          5    1    3    3  502    0 -0.47936925327E+02  0.10804194325E+03 -0.10231771056E+03  0.15638860766E+03  0.41800000000E+01 0. -1.
         -5    1    3    3    0  502 -0.14401304569E+01 -0.28512922718E+02  0.25822112474E+01  0.28968965335E+02  0.41800000000E+01 0. -1.
        -11    1    4    4    0    0  0.31047186058E+02 -0.24940132203E+02 -0.19213740537E+02  0.44216578133E+02  0.00000000000E+00 0.  1.
         11    1    4    4    0    0  0.18329869726E+02 -0.54588888324E+02 -0.22949009980E+03  0.23660438872E+03  0.00000000000E+00 0. -1.
</event>
<event>
 8    1  0.6849590E-009  0.1072973E+03  0.7561462E-02  0.1265658E+00
         -2   -1    0    0    0  501 -0.00000000000E+00  0.00000000000E+00  0.10147872410E+03  0.10147872410E+03  0.00000000000E+00 0.  1.
          2   -1    0    0  501    0  0.00000000000E+00 -0.00000000000E+00 -0.15481847632E+03  0.15481847632E+03  0.00000000000E+00 0. -1.
         25    2    1    2    0    0  0.51328314282E+02 -0.28037547771E+02 -0.56792448751E+01  0.13820945471E+03  0.12509556194E+03 0.  0.
         23    2    1    2    0    0 -0.51328314282E+02  0.28037547771E+02 -0.47660507336E+02  0.11808774571E+03  0.90843226463E+02 0.  0.
          5    1    3    3  502    0  0.71275333585E+02 -0.61917045427E+02  0.11303227287E+02  0.95179457023E+02  0.41800000000E+01 0.  1.
         -5    1    3    3    0  502 -0.19947019304E+02  0.33879497656E+02 -0.16982472162E+02  0.43029997691E+02  0.41800000000E+01 0.  1.
        -11    1    4    4    0    0  0.14298938597E+01 -0.13393735997E+02 -0.49177350187E+02  0.50988709847E+02  0.00000000000E+00 0. -1.
         11    1    4    4    0    0 -0.52758208141E+02  0.41431283768E+02  0.15168428509E+01  0.67099035859E+02  0.00000000000E+00 0.  1.
</event>
<event>
 8    1  0.6849590E-009  0.8184942E+02  0.7561462E-02  0.1323884E+00
         -1   -1    0    0    0  501 -0.00000000000E+00  0.00000000000E+00  0.11952379453E+02  0.11952379453E+02  0.00000000000E+00 0.  1.
          1   -1    0    0  501    0  0.00000000000E+00 -0.00000000000E+00 -0.11247370241E+04  0.11247370241E+04  0.00000000000E+00 0. -1.
         25    2    1    2    0    0 -0.19013769898E+02  0.50903191687E+01 -0.77351326292E+03  0.78381031384E+03  0.12509358644E+03 0.  0.
         23    2    1    2    0    0  0.19013769898E+02 -0.50903191687E+01 -0.33927138168E+03  0.35287908967E+03  0.95032345569E+02 0.  0.
          5    1    3    3  502    0  0.11147055789E+02 -0.25599463093E+02 -0.68215879748E+03  0.68274276763E+03  0.41800000000E+01 0.  1.
         -5    1    3    3    0  502 -0.30160825687E+02  0.30689782262E+02 -0.91354465438E+02  0.10106754621E+03  0.41800000000E+01 0.  1.
        -11    1    4    4    0    0  0.26193013787E+02 -0.44792329525E+02 -0.24330589032E+03  0.24877737642E+03  0.00000000000E+00 0.  1.
         11    1    4    4    0    0 -0.71792438890E+01  0.39702010356E+02 -0.95965491368E+02  0.10410171326E+03  0.00000000000E+00 0. -1.
</event>
<event>
 8    1  0.6849590E-009  0.2775181E+03  0.7561462E-02  0.1097052E+00
          1   -1    0    0  501    0  0.00000000000E+00  0.00000000000E+00  0.12586458228E+04  0.12586458228E+04  0.00000000000E+00 0. -1.
         -1   -1    0    0    0  501 -0.00000000000E+00 -0.00000000000E+00 -0.79009965182E+02  0.79009965182E+02  0.00000000000E+00 0.  1.
         25    2    1    2    0    0  0.25877101116E+03  0.68052724551E+02  0.33103732698E+03  0.44365172553E+03  0.12509009624E+03 0.  0.
         23    2    1    2    0    0 -0.25877101116E+03 -0.68052724551E+02  0.84859853069E+03  0.89400406250E+03  0.86776655502E+02 0.  0.
          5    1    3    3  502    0  0.22906179082E+03  0.19883749674E+02  0.30292154505E+03  0.38032039436E+03  0.41800000000E+01 0. -1.
         -5    1    3    3    0  502  0.29709220347E+02  0.48168974876E+02  0.28115781930E+02  0.63331331170E+02  0.41800000000E+01 0. -1.
        -11    1    4    4    0    0 -0.14534511139E+03 -0.27866371562E+02  0.33061355914E+03  0.36222515313E+03  0.00000000000E+00 0.  1.
         11    1    4    4    0    0 -0.11342589978E+03 -0.40186352989E+02  0.51798497154E+03  0.53177890937E+03  0.00000000000E+00 0. -1.
</event>
<event>
 8    1  0.6849590E-009  0.1080327E+03  0.7561462E-02  0.1264257E+00
          1   -1    0    0  501    0  0.00000000000E+00  0.00000000000E+00  0.56480051869E+03  0.56480051869E+03  0.00000000000E+00 0. -1.
         -1   -1    0    0    0  501 -0.00000000000E+00 -0.00000000000E+00 -0.26154599084E+02  0.26154599084E+02  0.00000000000E+00 0.  1.
         25    2    1    2    0    0  0.12280200586E+02  0.33587954479E+02  0.40557941482E+03  0.42593563237E+03  0.12509015620E+03 0.  0.
         23    2    1    2    0    0 -0.12280200586E+02 -0.33587954479E+02  0.13306650479E+03  0.16501948541E+03  0.90806287539E+02 0.  0.
          5    1    3    3  502    0 -0.17551082718E+02 -0.37468902509E+02  0.23578057597E+03  0.23941994814E+03  0.41800000000E+01 0. -1.
         -5    1    3    3    0  502  0.29831283303E+02  0.71056856988E+02  0.16979883885E+03  0.18651568423E+03  0.41800000000E+01 0. -1.
        -11    1    4    4    0    0  0.38621814414E+02 -0.50659614900E+01  0.47080131904E+02  0.61105215281E+02  0.00000000000E+00 0. -1.
         11    1    4    4    0    0 -0.50902015000E+02 -0.28521992989E+02  0.85986372881E+02  0.10391427013E+03  0.00000000000E+00 0.  1.
</event>
<event>
 8    1  0.6849590E-009  0.7084691E+02  0.7561462E-02  0.1357237E+00
          1   -1    0    0  501    0  0.00000000000E+00  0.00000000000E+00  0.99593087097E+02  0.99593087097E+02  0.00000000000E+00 0. -1.
         -1   -1    0    0    0  501 -0.00000000000E+00 -0.00000000000E+00 -0.13051630214E+03  0.13051630214E+03  0.00000000000E+00 0.  1.
         25    2    1    2    0    0  0.31703951016E+02 -0.14792223511E+02 -0.16773409322E+02  0.13096779390E+03  0.12508902986E+03 0.  0.
         23    2    1    2    0    0 -0.31703951016E+02  0.14792223511E+02 -0.14149805722E+02  0.99141595339E+02  0.91678179181E+02 0.  0.
          5    1    3    3  502    0 -0.23139515341E+01 -0.32364186999E+02  0.46522936728E+02  0.56873992419E+02  0.41800000000E+01 0. -1.
         -5    1    3    3    0  502  0.34017902550E+02  0.17571963488E+02 -0.63296346050E+02  0.74093801482E+02  0.41800000000E+01 0. -1.
        -11    1    4    4    0    0 -0.37626809735E+02 -0.14689329708E+02 -0.41917059390E+02  0.58211623290E+02  0.00000000000E+00 0.  1.
         11    1    4    4    0    0  0.59228587197E+01  0.29481553219E+02  0.27767253668E+02  0.40929972049E+02  0.00000000000E+00 0. -1.
</event>
<event>
 8    1  0.6849590E-009  0.1793344E+03  0.7561462E-02  0.1168449E+00
          1   -1    0    0  501    0  0.00000000000E+00  0.00000000000E+00  0.14537999754E+04  0.14537999754E+04  0.00000000000E+00 0. -1.
         -1   -1    0    0    0  501 -0.00000000000E+00 -0.00000000000E+00 -0.34294621580E+02  0.34294621580E+02  0.00000000000E+00 0.  1.
         25    2    1    2    0    0  0.17657150362E+03 -0.15557133236E+02  0.10071695884E+04  0.10302708961E+04  0.12509204281E+03 0.  0.
         23    2    1    2    0    0 -0.17657150362E+03  0.15557133236E+02  0.41233576540E+03  0.45782370091E+03  0.90345101675E+02 0.  0.
          5    1    3    3  502    0  0.89559597071E+02 -0.14144730135E+02  0.80535342893E+03  0.81045210389E+03  0.41800000000E+01 0. -1.
         -5    1    3    3    0  502  0.87011906553E+02 -0.14124031008E+01  0.20181615951E+03  0.21981879220E+03  0.41800000000E+01 0. -1.
        -11    1    4    4    0    0 -0.62081666715E+02 -0.11494666094E+02  0.24676734547E+03  0.25471628036E+03  0.00000000000E+00 0. -1.
         11    1    4    4    0    0 -0.11448983691E+03  0.27051799330E+02  0.16556841993E+03  0.20310742055E+03  0.00000000000E+00 0.  1.
</event>
<event>
 8    1  0.6849590E-009  0.1491460E+03  0.7561462E-02  0.1201526E+00
         -1   -1    0    0    0  501 -0.00000000000E+00  0.00000000000E+00  0.97527584637E+02  0.97527584637E+02  0.00000000000E+00 0.  1.
          1   -1    0    0  501    0  0.00000000000E+00 -0.00000000000E+00 -0.29541785523E+03  0.29541785523E+03  0.00000000000E+00 0. -1.
         25    2    1    2    0    0 -0.11709228680E+03 -0.35895632553E+02 -0.15761807523E+03  0.23556384250E+03  0.12509103160E+03 0.  0.
         23    2    1    2    0    0  0.11709228680E+03  0.35895632553E+02 -0.40272195354E+02  0.15738159737E+03  0.90266369191E+02 0.  0.
          5    1    3    3  502    0 -0.73375764401E+02 -0.79307408370E+02 -0.12650634830E+03  0.16641813719E+03  0.41800000000E+01 0. -1.
         -5    1    3    3    0  502 -0.43716522397E+02  0.43411775817E+02 -0.31111726931E+02  0.69145705310E+02  0.41800000000E+01 0. -1.
        -11    1    4    4    0    0  0.72674500802E+02  0.41429858958E+02 -0.65277705276E+02  0.10610935438E+03  0.00000000000E+00 0. -1.
         11    1    4    4    0    0  0.44417785996E+02 -0.55342264053E+01  0.25005509922E+02  0.51272242989E+02  0.00000000000E+00 0.  1.
</event>
<event>
 8    1  0.6849590E-009  0.1151704E+03  0.7561462E-02  0.1251284E+00
         -2   -1    0    0    0  501 -0.00000000000E+00  0.00000000000E+00  0.10118982518E+03  0.10118982518E+03  0.00000000000E+00 0.  1.
          2   -1    0    0  501    0  0.00000000000E+00 -0.00000000000E+00 -0.16917721839E+03  0.16917721839E+03  0.00000000000E+00 0. -1.
         25    2    1    2    0    0  0.41220020632E+02 -0.41717985014E+02  0.72294469852E+01  0.13833290163E+03  0.12507696189E+03 0.  0.
         23    2    1    2    0    0 -0.41220020632E+02  0.41717985014E+02 -0.75216840197E+02  0.13203414195E+03  0.91301485291E+02 0.  0.
          5    1    3    3  502    0 -0.36616809436E+02 -0.18034641144E+02 -0.27896201961E+02  0.49615617484E+02  0.41800000000E+01 0.  1.
         -5    1    3    3    0  502  0.77836830068E+02 -0.23683343870E+02  0.35125648947E+02  0.88717284144E+02  0.41800000000E+01 0.  1.
        -11    1    4    4    0    0 -0.60195245118E+02  0.57437736871E+02 -0.51602947582E+02  0.97905185516E+02  0.00000000000E+00 0. -1.
         11    1    4    4    0    0  0.18975224486E+02 -0.15719751858E+02 -0.23613892615E+02  0.34128956433E+02  0.00000000000E+00 0.  1.
</event>
<event>
 8    1  0.6849590E-009  0.8696938E+02  0.7561462E-02  0.1310361E+00
         -1   -1    0    0    0  501 -0.00000000000E+00  0.00000000000E+00  0.70512253130E+02  0.70512253130E+02  0.00000000000E+00 0.  1.
          1   -1    0    0  501    0  0.00000000000E+00 -0.00000000000E+00 -0.17191316578E+03  0.17191316578E+03  0.00000000000E+00 0. -1.
         25    2    1    2    0    0  0.11652224438E+01  0.13180999361E+02 -0.77979641269E+02  0.14799909766E+03  0.12509121459E+03 0.  0.
         23    2    1    2    0    0 -0.11652224438E+01 -0.13180999361E+02 -0.23421271379E+02  0.94426321250E+02  0.90513411738E+02 0.  0.
          5    1    3    3  502    0 -0.80068518761E+01 -0.55561557975E+02 -0.33571289884E+02  0.65541592184E+02  0.41800000000E+01 0.  1.
         -5    1    3    3    0  502  0.91720743199E+01  0.68742557335E+02 -0.44408351385E+02  0.82457505474E+02  0.41800000000E+01 0.  1.
        -11    1    4    4    0    0 -0.13928165862E+02  0.12994680812E+02 -0.50924312908E+02  0.54370407198E+02  0.00000000000E+00 0. -1.
         11    1    4    4    0    0  0.12762943418E+02 -0.26175680173E+02  0.27503041530E+02  0.40055914052E+02  0.00000000000E+00 0.  1.
</event>
<event>
 8    1  0.6849590E-009  0.1764752E+03  0.7561462E-02  0.1171259E+00
          2   -1    0    0  501    0  0.00000000000E+00  0.00000000000E+00  0.47773960950E+03  0.47773960950E+03  0.00000000000E+00 0. -1.
         -2   -1    0    0    0  501 -0.00000000000E+00 -0.00000000000E+00 -0.79102856871E+02  0.79102856871E+02  0.00000000000E+00 0.  1.
         25    2    1    2    0    0  0.13806492718E+03 -0.69375427044E+02  0.13737101440E+03  0.24164799970E+03  0.12509231059E+03 0.  0.
         23    2    1    2    0    0 -0.13806492718E+03  0.69375427044E+02  0.26126573822E+03  0.31519446667E+03  0.84928745742E+02 0.  0.
          5    1    3    3  502    0  0.11003719067E+03  0.13210195189E+02  0.67611893455E+02  0.12989046587E+03  0.41800000000E+01 0.  1.
         -5    1    3    3    0  502  0.28027736509E+02 -0.82585622233E+02  0.69759120949E+02  0.11175753384E+03  0.41800000000E+01 0.  1.
        -11    1    4    4    0    0 -0.95054070644E+02  0.51964938733E+02  0.24164266801E+03  0.26481467144E+03  0.00000000000E+00 0. -1.
         11    1    4    4    0    0 -0.43010856533E+02  0.17410488311E+02  0.19623070211E+02  0.50379795230E+02  0.00000000000E+00 0.  1.
</event>
<event>
 8    1  0.6849590E-009  0.9774058E+02  0.7561462E-02  0.1285120E+00
          3   -1    0    0  501    0  0.00000000000E+00  0.00000000000E+00  0.31040831900E+03  0.31040831900E+03  0.00000000000E+00 0. -1.
         -3   -1    0    0    0  501 -0.00000000000E+00 -0.00000000000E+00 -0.44433199111E+02  0.44433199111E+02  0.00000000000E+00 0.  1.
         25    2    1    2    0    0  0.10293526809E+02  0.41711356023E+02  0.10701156513E+03  0.17013299902E+03  0.12509183973E+03 0.  0.
         23    2    1    2    0    0 -0.10293526809E+02 -0.41711356023E+02  0.15896355476E+03  0.18470851910E+03  0.83678141518E+02 0.  0.
          5    1    3    3  502    0  0.50227198605E+02 -0.19313407373E+02  0.69554511174E+02  0.88040227219E+02  0.41800000000E+01 0. -1.
         -5    1    3    3    0  502 -0.39933671796E+02  0.61024763396E+02  0.37457053952E+02  0.82092771798E+02  0.41800000000E+01 0. -1.
        -11    1    4    4    0    0 -0.12646784099E+02  0.10350468279E+02 -0.10953129316E+01  0.16379043075E+02  0.00000000000E+00 0.  1.
         11    1    4    4    0    0  0.23532572899E+01 -0.52061824302E+02  0.16005886770E+03  0.16832947602E+03  0.00000000000E+00 0. -1.
</event>
<event>
 8    1  0.6849590E-009  0.1203020E+03  0.7561462E-02  0.1242600E+00
         -1   -1    0    0    0  501 -0.00000000000E+00  0.00000000000E+00  0.21994907308E+02  0.21994907308E+02  0.00000000000E+00 0.  1.
          1   -1    0    0  501    0  0.00000000000E+00 -0.00000000000E+00 -0.10008465615E+04  0.10008465615E+04  0.00000000000E+00 0. -1.
         25    2    1    2    0    0  0.59959166031E+02  0.68737736813E+02 -0.67921568184E+03  0.69663453095E+03  0.12508296925E+03 0.  0.
         23    2    1    2    0    0 -0.59959166031E+02 -0.68737736813E+02 -0.29963597235E+03  0.32620693786E+03  0.91155210096E+02 0.  0.
          5    1    3    3  502    0 -0.25066984565E+02  0.45639201140E+02 -0.41053941339E+03  0.41384945661E+03  0.41800000000E+01 0.  1.
         -5    1    3    3    0  502  0.85026150596E+02  0.23098535673E+02 -0.26867626845E+03  0.28278507433E+03  0.41800000000E+01 0.  1.
        -11    1    4    4    0    0 -0.23450816452E+02 -0.57281449741E+02 -0.70149756495E+02  0.93552624833E+02  0.00000000000E+00 0.  1.
         11    1    4    4    0    0 -0.36508349579E+02 -0.11456287072E+02 -0.22948621585E+03  0.23265431302E+03  0.00000000000E+00 0. -1.
</event>
<event>
 8    1  0.6849590E-009  0.1242833E+03  0.7561462E-02  0.1236194E+00
          1   -1    0    0  501    0  0.00000000000E+00  0.00000000000E+00  0.83725427173E+02  0.83725427173E+02  0.00000000000E+00 0. -1.
         -1   -1    0    0    0  501 -0.00000000000E+00 -0.00000000000E+00 -0.20136178722E+03  0.20136178722E+03  0.00000000000E+00 0.  1.
         25    2    1    2    0    0 -0.29468609611E+02  0.63938420577E+02 -0.69607420550E+02  0.15952856452E+03  0.12509056449E+03 0.  0.
         23    2    1    2    0    0  0.29468609611E+02 -0.63938420577E+02 -0.48028939493E+02  0.12555864987E+03  0.92204527816E+02 0.  0.
          5    1    3    3  502    0 -0.44578436191E+02 -0.18736178784E+02 -0.56302656266E+02  0.74335340662E+02  0.41800000000E+01 0.  1.
         -5    1    3    3    0  502  0.15109826580E+02  0.82674599361E+02 -0.13304764284E+02  0.85193223858E+02  0.41800000000E+01 0.  1.
        -11    1    4    4    0    0 -0.29255215091E+01 -0.79772265601E+02 -0.35782597213E+02  0.87478953461E+02  0.00000000000E+00 0. -1.
         11    1    4    4    0    0  0.32394131120E+02  0.15833845025E+02 -0.12246342280E+02  0.38079696408E+02  0.00000000000E+00 0.  1.
</event>
<event>
 8    1  0.6849590E-009  0.1326333E+03  0.7561462E-02  0.1223600E+00
         -1   -1    0    0    0  501 -0.00000000000E+00  0.00000000000E+00  0.34028364032E+03  0.34028364032E+03  0.00000000000E+00 0.  1.
          1   -1    0    0  501    0  0.00000000000E+00 -0.00000000000E+00 -0.63439718688E+02  0.63439718688E+02  0.00000000000E+00 0. -1.
         25    2    1    2    0    0 -0.46861059497E+02  0.61149156330E+02  0.65122534316E+02  0.16069770162E+03  0.12509048171E+03 0.  0.
         23    2    1    2    0    0  0.46861059497E+02 -0.61149156330E+02  0.21172138732E+03  0.24302565739E+03  0.91106235150E+02 0.  0.
          5    1    3    3  502    0  0.43091732529E+02  0.17573789321E+02  0.24106570090E+02  0.52576939859E+02  0.41800000000E+01 0.  1.
         -5    1    3    3    0  502 -0.89952792025E+02  0.43575367009E+02  0.41015964226E+02  0.10812076176E+03  0.41800000000E+01 0.  1.
        -11    1    4    4    0    0  0.53929948160E+02  0.29543231135E+01  0.11070343481E+03  0.12317636872E+03  0.00000000000E+00 0. -1.
         11    1    4    4    0    0 -0.70688886634E+01 -0.64103479443E+02  0.10101795251E+03  0.11984928866E+03  0.00000000000E+00 0.  1.
</event>
<event>
 8    1  0.6849590E-009  0.1899207E+03  0.7561462E-02  0.1158533E+00
         -1   -1    0    0    0  501 -0.00000000000E+00  0.00000000000E+00  0.18063586424E+03  0.18063586424E+03  0.00000000000E+00 0.  1.
          1   -1    0    0  501    0  0.00000000000E+00 -0.00000000000E+00 -0.21721554131E+03  0.21721554131E+03  0.00000000000E+00 0. -1.
         25    2    1    2    0    0  0.15447466874E+02  0.16168328139E+03 -0.49397183658E+02  0.21087403648E+03  0.12509064632E+03 0.  0.
         23    2    1    2    0    0 -0.15447466874E+02 -0.16168328139E+03  0.12817506594E+02  0.18697736906E+03  0.91739524490E+02 0.  0.
          5    1    3    3  502    0 -0.14765370400E+02  0.16211973252E+03 -0.12967588229E+02  0.16335989281E+03  0.41800000000E+01 0.  1.
         -5    1    3    3    0  502  0.30212837274E+02 -0.43645113202E+00 -0.36429595428E+02  0.47514143672E+02  0.41800000000E+01 0.  1.
        -11    1    4    4    0    0  0.38469729484E+02 -0.57450407465E+02  0.27843687549E+01  0.69196980526E+02  0.00000000000E+00 0.  1.
         11    1    4    4    0    0 -0.53917196359E+02 -0.10423287392E+03  0.10033137839E+02  0.11778038854E+03  0.00000000000E+00 0. -1.
</event>
<event>
 8    1  0.6849590E-009  0.1195778E+03  0.7561462E-02  0.1243795E+00
          2   -1    0    0  501    0  0.00000000000E+00  0.00000000000E+00  0.14558860268E+03  0.14558860268E+03  0.00000000000E+00 0.  1.
         -2   -1    0    0    0  501 -0.00000000000E+00 -0.00000000000E+00 -0.15792262548E+03  0.15792262548E+03  0.00000000000E+00 0. -1.
         25    2    1    2    0    0 -0.40886620675E+01 -0.54049126871E+02 -0.98109994355E+02  0.16797143098E+03  0.12510317886E+03 0.  0.
         23    2    1    2    0    0  0.40886620675E+01  0.54049126871E+02  0.85775971556E+02  0.13553979718E+03  0.89863752699E+02 0.  0.
          5    1    3    3  502    0  0.21622484076E+02 -0.89344903737E+02 -0.59911077549E+02  0.10980370328E+03  0.41800000000E+01 0.  1.
         -5    1    3    3    0  502 -0.25711146144E+02  0.35295776866E+02 -0.38198916806E+02  0.58167727700E+02  0.41800000000E+01 0.  1.
        -11    1    4    4    0    0  0.45993378167E+02  0.25848620298E+02  0.31732298445E+02  0.61566880472E+02  0.00000000000E+00 0.  1.
         11    1    4    4    0    0 -0.41904716099E+02  0.28200506573E+02  0.54043673111E+02  0.73972916704E+02  0.00000000000E+00 0. -1.
</event>
<event>
 8    1  0.6849590E-009  0.1374289E+03  0.7561462E-02  0.1216831E+00
          1   -1    0    0  501    0  0.00000000000E+00  0.00000000000E+00  0.90148340014E+03  0.90148340014E+03  0.00000000000E+00 0. -1.
         -1   -1    0    0    0  501 -0.00000000000E+00 -0.00000000000E+00 -0.38282770338E+02  0.38282770338E+02  0.00000000000E+00 0.  1.
         25    2    1    2    0    0  0.51484454469E+02  0.59209037562E+02  0.13527063228E+03  0.20025490955E+03  0.12509007019E+03 0.  0.
         23    2    1    2    0    0 -0.51484454469E+02 -0.59209037562E+02  0.72792999753E+03  0.73951126093E+03  0.10410794670E+03 0.  0.
          5    1    3    3  502    0 -0.35672789549E+02  0.42576614533E+02  0.32799239104E+02  0.64641925289E+02  0.41800000000E+01 0.  1.
         -5    1    3    3    0  502  0.87157244018E+02  0.16632423029E+02  0.10247139317E+03  0.13561298426E+03  0.41800000000E+01 0.  1.
        -11    1    4    4    0    0  0.20789716017E+02  0.15838827076E+02  0.15320906573E+03  0.15542232323E+03  0.00000000000E+00 0.  1.
         11    1    4    4    0    0 -0.72274170486E+02 -0.75047864638E+02  0.57472093179E+03  0.58408893770E+03  0.00000000000E+00 0. -1.
</event>
<event>
 8    1  0.6849590E-009  0.1158617E+03  0.7561462E-02  0.1250084E+00
          2   -1    0    0  501    0  0.00000000000E+00  0.00000000000E+00  0.95813844465E+03  0.95813844465E+03  0.00000000000E+00 0. -1.
         -2   -1    0    0    0  501 -0.00000000000E+00 -0.00000000000E+00 -0.17114981234E+02  0.17114981234E+02  0.00000000000E+00 0.  1.
         25    2    1    2    0    0 -0.50121192651E+01  0.64336341597E+02  0.43683721958E+03  0.45895338043E+03  0.12508861979E+03 0.  0.
         23    2    1    2    0    0  0.50121192651E+01 -0.64336341597E+02  0.50418624384E+03  0.51630004546E+03  0.90541053012E+02 0.  0.
          5    1    3    3  502    0  0.48150648698E+02  0.38528504954E+02  0.33890973846E+03  0.34449994759E+03  0.41800000000E+01 0.  1.
         -5    1    3    3    0  502 -0.53162767963E+02  0.25807836642E+02  0.97927481124E+02  0.11445343284E+03  0.41800000000E+01 0.  1.
        -11    1    4    4    0    0 -0.39783228802E+02 -0.11523358294E+02  0.21327926914E+03  0.21726375612E+03  0.00000000000E+00 0.  1.
         11    1    4    4    0    0  0.44795348068E+02 -0.52812983303E+02  0.29090697470E+03  0.29903628934E+03  0.00000000000E+00 0. -1.
</event>
<event>
 8    1  0.6849590E-009  0.1032143E+03  0.7561462E-02  0.1273678E+00
         -2   -1    0    0    0  501 -0.00000000000E+00  0.00000000000E+00  0.10807313236E+03  0.10807313236E+03  0.00000000000E+00 0. -1.
          2   -1    0    0  501    0  0.00000000000E+00 -0.00000000000E+00 -0.13831265245E+03  0.13831265245E+03  0.00000000000E+00 0.  1.
         25    2    1    2    0    0  0.25438705120E+02 -0.45865162571E+02 -0.44092273848E+02  0.14262474397E+03  0.12508776169E+03 0.  0.
         23    2    1    2    0    0 -0.25438705120E+02  0.45865162571E+02  0.13852753760E+02  0.10376104084E+03  0.88451760597E+02 0.  0.
          5    1    3    3  502    0  0.65301289923E+02  0.64392501654E+01 -0.39195615510E+02  0.76547312713E+02  0.41800000000E+01 0. -1.
         -5    1    3    3    0  502 -0.39862584803E+02 -0.52304412736E+02 -0.48966583378E+01  0.66077431259E+02  0.41800000000E+01 0. -1.
        -11    1    4    4    0    0  0.11268803226E+02  0.34593688166E+02 -0.28776420583E+02  0.46387407436E+02  0.00000000000E+00 0.  1.
         11    1    4    4    0    0 -0.36707508346E+02  0.11271474405E+02  0.42629174343E+02  0.57373633399E+02  0.00000000000E+00 0. -1.
</event>
<event>
 8    1  0.6849590E-009  0.8046388E+02  0.7561462E-02  0.1327740E+00
          2   -1    0    0  501    0  0.00000000000E+00  0.00000000000E+00  0.24787499689E+03  0.24787499689E+03  0.00000000000E+00 0. -1.
         -2   -1    0    0    0  501 -0.00000000000E+00 -0.00000000000E+00 -0.55920874066E+02  0.55920874066E+02  0.00000000000E+00 0.  1.
         25    2    1    2    0    0 -0.37191308884E+02 -0.26107522253E+02  0.98374522993E+02  0.16549892981E+03  0.12509017875E+03 0.  0.
         23    2    1    2    0    0  0.37191308884E+02  0.26107522253E+02  0.93579599834E+02  0.13829694114E+03  0.91126868981E+02 0.  0.
          5    1    3    3  502    0 -0.11622957258E+02  0.23724258954E+02  0.10554268557E+03  0.10887912782E+03  0.41800000000E+01 0. -1.
         -5    1    3    3    0  502 -0.25568351626E+02 -0.49831781207E+02 -0.71681625735E+01  0.56619801993E+02  0.41800000000E+01 0. -1.
        -11    1    4    4    0    0  0.50647104003E+02  0.35287134579E+02  0.23018123359E+02  0.65879776970E+02  0.00000000000E+00 0.  1.
         11    1    4    4    0    0 -0.13455795119E+02 -0.91796123267E+01  0.70561476475E+02  0.72417164174E+02  0.00000000000E+00 0. -1.
</event>
<event>
 8    1  0.6849590E-009  0.1560679E+03  0.7561462E-02  0.1193209E+00
         -2   -1    0    0    0  501 -0.00000000000E+00  0.00000000000E+00  0.56165434705E+02  0.56165434705E+02  0.00000000000E+00 0.  1.
          2   -1    0    0  501    0  0.00000000000E+00 -0.00000000000E+00 -0.50864921029E+03  0.50864921029E+03  0.00000000000E+00 0. -1.
         25    2    1    2    0    0 -0.12028774173E+03  0.47451727433E+02 -0.23506571731E+03  0.29601246482E+03  0.12508669245E+03 0.  0.
         23    2    1    2    0    0  0.12028774173E+03 -0.47451727433E+02 -0.21741805828E+03  0.26880218018E+03  0.90902105348E+02 0.  0.
          5    1    3    3  502    0  0.20683385563E+02 -0.99434562326E+01 -0.57799722088E+02  0.62329407455E+02  0.41800000000E+01 0. -1.
         -5    1    3    3    0  502 -0.14097112729E+03  0.57395183665E+02 -0.17726599523E+03  0.23368305737E+03  0.41800000000E+01 0. -1.
        -11    1    4    4    0    0  0.41595142946E+02 -0.39650504512E+02 -0.16293534784E+03  0.17277223735E+03  0.00000000000E+00 0. -1.
         11    1    4    4    0    0  0.78692598783E+02 -0.78012229210E+01 -0.54482710439E+02  0.96029942825E+02  0.00000000000E+00 0.  1.
</event>
<event>
 8    1  0.6849590E-009  0.1029339E+03  0.7561462E-02  0.1274245E+00
          2   -1    0    0  501    0  0.00000000000E+00  0.00000000000E+00  0.54408452099E+03  0.54408452099E+03  0.00000000000E+00 0. -1.
         -2   -1    0    0    0  501 -0.00000000000E+00 -0.00000000000E+00 -0.23561014424E+02  0.23561014424E+02  0.00000000000E+00 0.  1.
         25    2    1    2    0    0  0.10257471989E+02  0.27279655280E+02  0.25797469118E+03  0.28818134307E+03  0.12509256525E+03 0.  0.
         23    2    1    2    0    0 -0.10257471989E+02 -0.27279655280E+02  0.26254881539E+03  0.27946419235E+03  0.91208327567E+02 0.  0.
          5    1    3    3  502    0  0.11535706528E+02  0.68244086135E+02  0.22491239016E+03  0.23535799002E+03  0.41800000000E+01 0.  1.
         -5    1    3    3    0  502 -0.12782345386E+01 -0.40964430855E+02  0.33062301013E+02  0.52823353047E+02  0.41800000000E+01 0.  1.
        -11    1    4    4    0    0 -0.39143385330E+02 -0.46389506814E+02  0.17941431227E+03  0.18940350156E+03  0.00000000000E+00 0.  1.
         11    1    4    4    0    0  0.28885913341E+02  0.19109851535E+02  0.83134503127E+02  0.90060690789E+02  0.00000000000E+00 0. -1.
</event>
<event>
 8    1  0.6849590E-009  0.9579953E+02  0.7561462E-02  0.1289385E+00
         -2   -1    0    0    0  501 -0.00000000000E+00  0.00000000000E+00  0.21815765394E+03  0.21815765394E+03  0.00000000000E+00 0.  1.
          2   -1    0    0  501    0  0.00000000000E+00 -0.00000000000E+00 -0.57026664200E+02  0.57026664200E+02  0.00000000000E+00 0. -1.
         25    2    1    2    0    0 -0.91000337651E+01 -0.41771570502E+01  0.12078068899E+03  0.17417437880E+03  0.12509388531E+03 0.  0.
         23    2    1    2    0    0  0.91000337651E+01  0.41771570502E+01  0.40350300744E+02  0.10100993934E+03  0.92057600551E+02 0.  0.
          5    1    3    3  502    0 -0.59177444838E+02  0.87550712153E+01  0.10325518921E+03  0.11940572745E+03  0.41800000000E+01 0.  1.
         -5    1    3    3    0  502  0.50077411073E+02 -0.12932228266E+02  0.17525499778E+02  0.54768651345E+02  0.41800000000E+01 0.  1.
        -11    1    4    4    0    0 -0.18265700381E+02 -0.30510333713E+02  0.44120336476E+02  0.56666748313E+02  0.00000000000E+00 0.  1.
         11    1    4    4    0    0  0.27365734146E+02  0.34687490763E+02 -0.37700357315E+01  0.44343191024E+02  0.00000000000E+00 0. -1.
</event>
<event>
 8    1  0.6849590E-009  0.1801781E+03  0.7561462E-02  0.1167631E+00
          1   -1    0    0  501    0  0.00000000000E+00  0.00000000000E+00  0.67864002233E+03  0.67864002233E+03  0.00000000000E+00 0. -1.
         -1   -1    0    0    0  501 -0.00000000000E+00 -0.00000000000E+00 -0.69007368677E+02  0.69007368677E+02  0.00000000000E+00 0.  1.
         25    2    1    2    0    0  0.12930957275E+03 -0.88289856204E+02  0.49457029565E+03  0.53363603443E+03  0.12510625721E+03 0.  0.
         23    2    1    2    0    0 -0.12930957275E+03  0.88289856204E+02  0.11506235801E+03  0.21401135658E+03  0.89696433598E+02 0.  0.
          5    1    3    3  502    0 -0.24099945525E+02 -0.12320438393E+02  0.46599586706E+02  0.54051775713E+02  0.41800000000E+01 0.  1.
         -5    1    3    3    0  502  0.15340951828E+03 -0.75969417811E+02  0.44797070894E+03  0.47958425872E+03  0.41800000000E+01 0.  1.
        -11    1    4    4    0    0 -0.55904846065E+02  0.62668852348E+02  0.10674432475E+03  0.13582005645E+03  0.00000000000E+00 0. -1.
         11    1    4    4    0    0 -0.73404726688E+02  0.25621003856E+02  0.83180332622E+01  0.78191300130E+02  0.00000000000E+00 0.  1.
</event>
<event>
 8    1  0.6849590E-009  0.1023742E+03  0.7561462E-02  0.1275381E+00
          1   -1    0    0  501    0  0.00000000000E+00  0.00000000000E+00  0.49904268577E+03  0.49904268577E+03  0.00000000000E+00 0. -1.
         -1   -1    0    0    0  501 -0.00000000000E+00 -0.00000000000E+00 -0.30088586742E+02  0.30088586742E+02  0.00000000000E+00 0.  1.
         25    2    1    2    0    0  0.40618910691E+02 -0.34941317259E+02  0.22160270668E+03  0.26004360453E+03  0.12507647696E+03 0.  0.
         23    2    1    2    0    0 -0.40618910691E+02  0.34941317259E+02  0.24735139235E+03  0.26908766798E+03  0.91403885085E+02 0.  0.
          5    1    3    3  502    0  0.69241103981E+02 -0.35581419282E+02  0.21721272327E+03  0.23077956458E+03  0.41800000000E+01 0.  1.
         -5    1    3    3    0  502 -0.28622193290E+02  0.64010202294E+00  0.43899834090E+01  0.29264039941E+02  0.41800000000E+01 0.  1.
        -11    1    4    4    0    0 -0.65530586739E+02  0.18810878509E+02  0.11712723202E+03  0.13552451966E+03  0.00000000000E+00 0.  1.
         11    1    4    4    0    0  0.24911676048E+02  0.16130438750E+02  0.13022416032E+03  0.13356314832E+03  0.00000000000E+00 0. -1.
</event>
<event>
 8    1  0.6849590E-009  0.1883075E+03  0.7561462E-02  0.1159997E+00
          1   -1    0    0  501    0  0.00000000000E+00  0.00000000000E+00  0.16526938741E+03  0.16526938741E+03  0.00000000000E+00 0. -1.
         -1   -1    0    0    0  501 -0.00000000000E+00 -0.00000000000E+00 -0.22794156329E+03  0.22794156329E+03  0.00000000000E+00 0.  1.
         25    2    1    2    0    0  0.12641101437E+03  0.99145985489E+02 -0.46393266536E+02  0.20882893773E+03  0.12509004381E+03 0.  0.
         23    2    1    2    0    0 -0.12641101437E+03 -0.99145985489E+02 -0.16278909347E+02  0.18438201297E+03  0.89005914553E+02 0.  0.
          5    1    3    3  502    0  0.12990330988E+03  0.12175983386E+03 -0.30577572516E+02  0.18070082291E+03  0.41800000000E+01 0.  1.
         -5    1    3    3    0  502 -0.34922955144E+01 -0.22613848369E+02 -0.15815694020E+02  0.28128114820E+02  0.41800000000E+01 0.  1.
        -11    1    4    4    0    0 -0.10170076179E+03 -0.36730240059E+02  0.16996998915E+02  0.10945799859E+03  0.00000000000E+00 0. -1.
         11    1    4    4    0    0 -0.24710252578E+02 -0.62415745430E+02 -0.33275908261E+02  0.74924014379E+02  0.00000000000E+00 0.  1.
</event>
<event>
 8    1  0.6849590E-009  0.1331608E+03  0.7561462E-02  0.1222840E+00
         -1   -1    0    0    0  501 -0.00000000000E+00  0.00000000000E+00  0.40153993436E+02  0.40153993436E+02  0.00000000000E+00 0.  1.
          1   -1    0    0  501    0  0.00000000000E+00 -0.00000000000E+00 -0.74356366739E+03  0.74356366739E+03  0.00000000000E+00 0. -1.
         25    2    1    2    0    0 -0.27067132462E+02 -0.10903952831E+03 -0.20758576558E+03  0.26713589736E+03  0.12508992443E+03 0.  0.
         23    2    1    2    0    0  0.27067132462E+02  0.10903952831E+03 -0.49582390838E+03  0.51658176347E+03  0.91613982769E+02 0.  0.
          5    1    3    3  502    0  0.25805545788E+02 -0.80620592003E+02 -0.49881809141E+02  0.98342632319E+02  0.41800000000E+01 0. -1.
         -5    1    3    3    0  502 -0.52872678250E+02 -0.28418936304E+02 -0.15770395644E+03  0.16879326504E+03  0.41800000000E+01 0. -1.
        -11    1    4    4    0    0 -0.13003365138E+02  0.32450498915E+02 -0.42215938223E+02  0.54811566524E+02  0.00000000000E+00 0.  1.
         11    1    4    4    0    0  0.40070497599E+02  0.76589029393E+02 -0.45360797015E+03  0.46177019695E+03  0.00000000000E+00 0. -1.
</event>
<event>
 8    1  0.6849590E-009  0.9050328E+02  0.7561462E-02  0.1301637E+00
          2   -1    0    0  501    0  0.00000000000E+00  0.00000000000E+00  0.24617907130E+03  0.24617907130E+03  0.00000000000E+00 0. -1.
         -2   -1    0    0    0  501 -0.00000000000E+00 -0.00000000000E+00 -0.68958446049E+02  0.68958446049E+02  0.00000000000E+00 0.  1.
         25    2    1    2    0    0 -0.48707373796E+02  0.48476355092E+02  0.12719191827E+03  0.19117603293E+03  0.12509247071E+03 0.  0.
         23    2    1    2    0    0  0.48707373796E+02 -0.48476355092E+02  0.50028706972E+02  0.12396148441E+03  0.90228669675E+02 0.  0.
          5    1    3    3  502    0  0.95620292386E+01 -0.49762614986E+01  0.10941209038E+03  0.11002124114E+03  0.41800000000E+01 0.  1.
         -5    1    3    3    0  502 -0.58269403035E+02  0.53452616590E+02  0.17779827897E+02  0.81154791790E+02  0.41800000000E+01 0.  1.
        -11    1    4    4    0    0 -0.33531338403E+01 -0.36742797465E+02 -0.15008904801E+02  0.39831443552E+02  0.00000000000E+00 0.  1.
         11    1    4    4    0    0  0.52060507637E+02 -0.11733557627E+02  0.65037611774E+02  0.84130040861E+02  0.00000000000E+00 0. -1.
</event>
<event>
 8    1  0.6849590E-009  0.8884553E+02  0.7561462E-02  0.1305672E+00
          2   -1    0    0  501    0  0.00000000000E+00  0.00000000000E+00  0.42781540595E+02  0.42781540595E+02  0.00000000000E+00 0. -1.
         -2   -1    0    0    0  501 -0.00000000000E+00 -0.00000000000E+00 -0.37126749922E+03  0.37126749922E+03  0.00000000000E+00 0.  1.
         25    2    1    2    0    0 -0.38587687923E+02 -0.21550738648E+02 -0.10645214297E+03  0.17009370551E+03  0.12508543447E+03 0.  0.
         23    2    1    2    0    0  0.38587687923E+02  0.21550738648E+02 -0.22203381565E+03  0.24395533430E+03  0.90894146375E+02 0.  0.
          5    1    3    3  502    0  0.86822295356E+01 -0.46958603924E+02  0.30941994519E+01  0.48036840679E+02  0.41800000000E+01 0.  1.
         -5    1    3    3    0  502 -0.47269917459E+02  0.25407865276E+02 -0.10954634242E+03  0.12205686483E+03  0.41800000000E+01 0.  1.
        -11    1    4    4    0    0 -0.16992726000E+02  0.76386098184E+01 -0.47252926328E+01  0.19220548570E+02  0.00000000000E+00 0. -1.
         11    1    4    4    0    0  0.55580413923E+02  0.13912128830E+02 -0.21730852302E+03  0.22473478573E+03  0.00000000000E+00 0.  1.
</event>
<event>
 8    1  0.6849590E-009  0.1113688E+03  0.7561462E-02  0.1258056E+00
         -2   -1    0    0    0  501 -0.00000000000E+00  0.00000000000E+00  0.36113282791E+02  0.36113282791E+02  0.00000000000E+00 0. -1.
          2   -1    0    0  501    0  0.00000000000E+00 -0.00000000000E+00 -0.78660999622E+03  0.78660999622E+03  0.00000000000E+00 0.  1.
         25    2    1    2    0    0  0.77366811559E+02 -0.34590888634E+02 -0.63345543709E+03  0.65122697330E+03  0.12509447175E+03 0.  0.
         23    2    1    2    0    0 -0.77366811559E+02  0.34590888634E+02 -0.11704127634E+03  0.17149630571E+03  0.92358916186E+02 0.  0.
          5    1    3    3  502    0 -0.20608758795E+02 -0.23877230969E+02 -0.48454348806E+02  0.57966709550E+02  0.41800000000E+01 0.  1.
         -5    1    3    3    0  502  0.97975570354E+02 -0.10713657665E+02 -0.58500108829E+03  0.59326026375E+03  0.41800000000E+01 0.  1.
        -11    1    4    4    0    0 -0.54861718486E+01  0.17566525209E+02 -0.91505765207E+02  0.93338019882E+02  0.00000000000E+00 0.  1.
         11    1    4    4    0    0 -0.71880639710E+02  0.17024363425E+02 -0.25535511129E+02  0.78158285829E+02  0.00000000000E+00 0. -1.
</event>
<event>
 8    1  0.6849590E-009  0.1389847E+03  0.7561462E-02  0.1214702E+00
          2   -1    0    0  501    0  0.00000000000E+00  0.00000000000E+00  0.45309057097E+03  0.45309057097E+03  0.00000000000E+00 0. -1.
         -2   -1    0    0    0  501 -0.00000000000E+00 -0.00000000000E+00 -0.56708358854E+02  0.56708358854E+02  0.00000000000E+00 0.  1.
         25    2    1    2    0    0 -0.11139174457E+03  0.19207387982E+02  0.16340219212E+03  0.23478695502E+03  0.12509034073E+03 0.  0.
         23    2    1    2    0    0  0.11139174457E+03 -0.19207387982E+02  0.23298002000E+03  0.27501197481E+03  0.92600497077E+02 0.  0.
          5    1    3    3  502    0 -0.11784652813E+03  0.34214765153E+02  0.73043109074E+02  0.14286784988E+03  0.41800000000E+01 0.  1.
         -5    1    3    3    0  502  0.64547835552E+01 -0.15007377171E+02  0.90359083049E+02  0.91919105140E+02  0.41800000000E+01 0.  1.
        -11    1    4    4    0    0  0.47745320065E+02  0.31283130330E+02  0.54541208260E+02  0.78949307975E+02  0.00000000000E+00 0.  1.
         11    1    4    4    0    0  0.63646424506E+02 -0.50490518311E+02  0.17843881174E+03  0.19606266683E+03  0.00000000000E+00 0. -1.
</event>
<event>
 8    1  0.6849590E-009  0.1277235E+03  0.7561462E-02  0.1230873E+00
          1   -1    0    0  501    0  0.00000000000E+00  0.00000000000E+00  0.21861642721E+03  0.21861642721E+03  0.00000000000E+00 0. -1.
         -1   -1    0    0    0  501 -0.00000000000E+00 -0.00000000000E+00 -0.11882460576E+03  0.11882460576E+03  0.00000000000E+00 0.  1.
         25    2    1    2    0    0  0.51520948837E+02 -0.80742195358E+02 -0.18093551656E+02  0.15858108861E+03  0.12508746848E+03 0.  0.
         23    2    1    2    0    0 -0.51520948837E+02  0.80742195358E+02  0.11788537310E+03  0.17885994436E+03  0.94446853974E+02 0.  0.
          5    1    3    3  502    0 -0.25893232253E+02 -0.48485420746E+02 -0.44188754879E+02  0.70649939555E+02  0.41800000000E+01 0. -1.
         -5    1    3    3    0  502  0.77414181090E+02 -0.32256774612E+02  0.26095203223E+02  0.87931149051E+02  0.41800000000E+01 0. -1.
        -11    1    4    4    0    0 -0.43262459830E+01  0.67080579360E+02  0.21330156738E+02  0.70523018356E+02  0.00000000000E+00 0.  1.
         11    1    4    4    0    0 -0.47194702854E+02  0.13661615997E+02  0.96555216366E+02  0.10833692601E+03  0.00000000000E+00 0. -1.
</event>
<event>
 8    1  0.6849590E-009  0.8459948E+02  0.7561462E-02  0.1316483E+00
          2   -1    0    0  501    0  0.00000000000E+00  0.00000000000E+00  0.21851469512E+03  0.21851469512E+03  0.00000000000E+00 0.  1.
         -2   -1    0    0    0  501 -0.00000000000E+00 -0.00000000000E+00 -0.80745094141E+02  0.80745094141E+02  0.00000000000E+00 0. -1.
         25    2    1    2    0    0 -0.30919713112E+01  0.29305468570E+02  0.15714788515E+03  0.20300654214E+03  0.12509127695E+03 0.  0.
         23    2    1    2    0    0  0.30919713112E+01 -0.29305468570E+02 -0.19378284178E+02  0.96253247115E+02  0.89558913057E+02 0.  0.
          5    1    3    3  502    0 -0.25653306149E+02 -0.33520808898E+02  0.11826239818E+03  0.12563918167E+03  0.41800000000E+01 0. -1.
         -5    1    3    3    0  502  0.22561334837E+02  0.62826277468E+02  0.38885486970E+02  0.77367360476E+02  0.41800000000E+01 0. -1.
        -11    1    4    4    0    0 -0.10778865404E+02  0.12114672181E+02  0.27658934678E+02  0.32061907133E+02  0.00000000000E+00 0.  1.
         11    1    4    4    0    0  0.13870836715E+02 -0.41420140751E+02 -0.47037218856E+02  0.64191339983E+02  0.00000000000E+00 0. -1.
</event>
<event>
 8    1  0.6849590E-009  0.1457949E+03  0.7561462E-02  0.1205737E+00
         -1   -1    0    0    0  501 -0.00000000000E+00  0.00000000000E+00  0.73053136429E+02  0.73053136429E+02  0.00000000000E+00 0.  1.
          1   -1    0    0  501    0  0.00000000000E+00 -0.00000000000E+00 -0.37173198075E+03  0.37173198075E+03  0.00000000000E+00 0. -1.
         25    2    1    2    0    0 -0.88108556779E+02 -0.75196764891E+02 -0.21582764801E+03  0.27503921770E+03  0.12508927372E+03 0.  0.
         23    2    1    2    0    0  0.88108556779E+02  0.75196764891E+02 -0.82851196309E+02  0.16974589947E+03  0.92367085215E+02 0.  0.
          5    1    3    3  502    0 -0.50052313979E+01 -0.63252365956E+02 -0.28434882279E+02  0.69655789929E+02  0.41800000000E+01 0.  1.
         -5    1    3    3    0  502 -0.83103325381E+02 -0.11944398935E+02 -0.18739276573E+03  0.20538342777E+03  0.41800000000E+01 0.  1.
        -11    1    4    4    0    0  0.22951278529E+02  0.75366241511E+02 -0.65136431880E+02  0.10222321803E+03  0.00000000000E+00 0. -1.
         11    1    4    4    0    0  0.65157278250E+02 -0.16947661949E+00 -0.17714764428E+02  0.67522681449E+02  0.00000000000E+00 0.  1.
</event>
<event>
 8    1  0.6849590E-009  0.9384064E+02  0.7561462E-02  0.1293809E+00
         -1   -1    0    0    0  501 -0.00000000000E+00  0.00000000000E+00  0.22469668772E+02  0.22469668772E+02  0.00000000000E+00 0.  1.
          1   -1    0    0  501    0  0.00000000000E+00 -0.00000000000E+00 -0.79819752879E+03  0.79819752879E+03  0.00000000000E+00 0. -1.
         25    2    1    2    0    0  0.37926020074E+02 -0.37969112365E+01 -0.64619060119E+03  0.65928371116E+03  0.12505966256E+03 0.  0.
         23    2    1    2    0    0 -0.37926020074E+02  0.37969112365E+01 -0.12953725882E+03  0.16138348640E+03  0.88385115971E+02 0.  0.
          5    1    3    3  502    0  0.20522656210E+02 -0.63426128458E+02 -0.38691604071E+03  0.39263920862E+03  0.41800000000E+01 0. -1.
         -5    1    3    3    0  502  0.17403363864E+02  0.59629217222E+02 -0.25927456049E+03  0.26664450254E+03  0.41800000000E+01 0. -1.
        -11    1    4    4    0    0 -0.17152185895E+02 -0.20456075401E+02  0.12788506001E+01  0.26726091384E+02  0.00000000000E+00 0.  1.
         11    1    4    4    0    0 -0.20773834179E+02  0.24252986638E+02 -0.13081610942E+03  0.13465739502E+03  0.00000000000E+00 0. -1.
</event>
<event>
 7    1  0.6849590E-009  0.1978037E+03  0.7561462E-02  0.1151605E+00
         -2   -1    0    0    0  501 -0.00000000000E+00  0.00000000000E+00  0.20445352631E+03  0.20445352631E+03  0.00000000000E+00 0.  1.
          2   -1    0    0  501    0  0.00000000000E+00 -0.00000000000E+00 -0.24585288876E+03  0.24585288876E+03  0.00000000000E+00 0. -1.
         23    2    1    2    0    0  0.57184286954E+02  0.16591620101E+03  0.63433834521E+02  0.21044140960E+03  0.97280558584E+02 0.  0.
          5    1    1    2  502    0 -0.73489754537E+02 -0.49953483502E+02 -0.80952457600E+02  0.12027829117E+03  0.41800000000E+01 0.  1.
         -5    1    1    2    0  502  0.16305467583E+02 -0.11596271751E+03 -0.23880739365E+02  0.11958671430E+03  0.41800000000E+01 0.  1.
        -11    1    3    3    0    0  0.46428079535E+02  0.35072889952E+02 -0.11448742691E+02  0.59302174396E+02  0.00000000000E+00 0.  1.
         11    1    3    3    0    0  0.10756207419E+02  0.13084331106E+03  0.74882577212E+02  0.15113923520E+03  0.00000000000E+00 0. -1.
</event>
<event>
 8    1  0.6849590E-009  0.1100480E+03  0.7561462E-02  0.1260481E+00
         -2   -1    0    0    0  501 -0.00000000000E+00  0.00000000000E+00  0.48724139918E+02  0.48724139918E+02  0.00000000000E+00 0.  1.
          2   -1    0    0  501    0  0.00000000000E+00 -0.00000000000E+00 -0.35862931930E+03  0.35862931930E+03  0.00000000000E+00 0. -1.
         25    2    1    2    0    0  0.25414186354E+02  0.54495823594E+02 -0.23712069748E+03  0.27475342960E+03  0.12509015247E+03 0.  0.
         23    2    1    2    0    0 -0.25414186354E+02 -0.54495823594E+02 -0.72784481897E+02  0.13260002961E+03  0.93110210993E+02 0.  0.
          5    1    3    3  502    0  0.74530121162E+02  0.20648577991E+02 -0.15375642294E+03  0.17216158901E+03  0.41800000000E+01 0.  1.
         -5    1    3    3    0  502 -0.49115934808E+02  0.33847245603E+02 -0.83364274537E+02  0.10259184059E+03  0.41800000000E+01 0.  1.
        -11    1    4    4    0    0 -0.43857912985E+02 -0.40499803813E+02 -0.37820715550E+01  0.59816842992E+02  0.00000000000E+00 0.  1.
         11    1    4    4    0    0  0.18443726631E+02 -0.13996019781E+02 -0.69002410342E+02  0.72783186621E+02  0.00000000000E+00 0. -1.
</event>
<event>
 8    1  0.6849590E-009  0.7827594E+02  0.7561462E-02  0.1334016E+00
          2   -1    0    0  501    0  0.00000000000E+00  0.00000000000E+00  0.38110040794E+03  0.38110040794E+03  0.00000000000E+00 0. -1.
         -2   -1    0    0    0  501 -0.00000000000E+00 -0.00000000000E+00 -0.42096277271E+02  0.42096277271E+02  0.00000000000E+00 0.  1.
         25    2    1    2    0    0 -0.81664234458E+01 -0.53170527674E+02  0.12984208693E+03  0.18814852884E+03  0.12508839227E+03 0.  0.
         23    2    1    2    0    0  0.81664234458E+01  0.53170527674E+02  0.20916204374E+03  0.23504815637E+03  0.92763569294E+02 0.  0.
          5    1    3    3  502    0  0.42797097967E+00  0.82811843654E-01  0.13383156567E+03  0.13389753690E+03  0.41800000000E+01 0. -1.
         -5    1    3    3    0  502 -0.85943944254E+01 -0.53253339518E+02 -0.39894787468E+01  0.54250991936E+02  0.41800000000E+01 0. -1.
        -11    1    4    4    0    0 -0.20276032601E+02 -0.14442109048E+02  0.19267389382E+02  0.31478950195E+02  0.00000000000E+00 0.  1.
         11    1    4    4    0    0  0.28442456046E+02  0.67612636722E+02  0.18989465436E+03  0.20356920618E+03  0.00000000000E+00 0. -1.
</event>
<event>
 8    1  0.6849590E-009  0.1041947E+03  0.7561462E-02  0.1271714E+00
          1   -1    0    0  501    0  0.00000000000E+00  0.00000000000E+00  0.74144080278E+03  0.74144080278E+03  0.00000000000E+00 0. -1.
         -1   -1    0    0    0  501 -0.00000000000E+00 -0.00000000000E+00 -0.21464408475E+02  0.21464408475E+02  0.00000000000E+00 0.  1.
         25    2    1    2    0    0 -0.32876198934E+02 -0.27934100646E+02  0.26431198257E+03  0.29558470221E+03  0.12509329963E+03 0.  0.
         23    2    1    2    0    0  0.32876198934E+02  0.27934100646E+02  0.45566441174E+03  0.46732050905E+03  0.94325201403E+02 0.  0.
          5    1    3    3  502    0  0.34065761020E+02 -0.76688573548E+01  0.19086130943E+03  0.19407421076E+03  0.41800000000E+01 0. -1.
         -5    1    3    3    0  502 -0.66941959954E+02 -0.20265243291E+02  0.73450673146E+02  0.10151049145E+03  0.41800000000E+01 0. -1.
        -11    1    4    4    0    0  0.35624026712E+00  0.58514240652E+02  0.28234026994E+03  0.28834020062E+03  0.00000000000E+00 0. -1.
         11    1    4    4    0    0  0.32519958667E+02 -0.30580140006E+02  0.17332414180E+03  0.17898030843E+03  0.00000000000E+00 0.  1.
</event>
<event>
 8    1  0.6849590E-009  0.1052985E+03  0.7561462E-02  0.1269533E+00
         -2   -1    0    0    0  501 -0.00000000000E+00  0.00000000000E+00  0.33003788786E+03  0.33003788786E+03  0.00000000000E+00 0.  1.
          2   -1    0    0  501    0  0.00000000000E+00 -0.00000000000E+00 -0.44329659949E+02  0.44329659949E+02  0.00000000000E+00 0. -1.
         25    2    1    2    0    0 -0.22044737482E+02 -0.25961393834E+02  0.95243497100E+02  0.16086921038E+03  0.12509042604E+03 0.  0.
         23    2    1    2    0    0  0.22044737482E+02  0.25961393834E+02  0.19046473081E+03  0.21349833743E+03  0.90248335066E+02 0.  0.
          5    1    3    3  502    0  0.15575141429E+02  0.39515127163E+02  0.47647595881E+01  0.42944215433E+02  0.41800000000E+01 0. -1.
         -5    1    3    3    0  502 -0.37619878911E+02 -0.65476520996E+02  0.90478737512E+02  0.11792499495E+03  0.41800000000E+01 0. -1.
        -11    1    4    4    0    0  0.42074268912E+02 -0.16614585152E+02  0.12456994934E+03  0.13252909425E+03  0.00000000000E+00 0.  1.
         11    1    4    4    0    0 -0.20029531430E+02  0.42575978985E+02  0.65894781465E+02  0.80969243174E+02  0.00000000000E+00 0. -1.
</event>
<event>
 8    1  0.6849590E-009  0.1158254E+03  0.7561462E-02  0.1250147E+00
         -1   -1    0    0    0  501 -0.00000000000E+00  0.00000000000E+00  0.15189960543E+02  0.15189960543E+02  0.00000000000E+00 0.  1.
          1   -1    0    0  501    0  0.00000000000E+00 -0.00000000000E+00 -0.14248187813E+04  0.14248187813E+04  0.00000000000E+00 0. -1.
         25    2    1    2    0    0  0.28030305140E+02  0.56502818154E+02 -0.11050227446E+04  0.11138683432E+04  0.12509657653E+03 0.  0.
         23    2    1    2    0    0 -0.28030305140E+02 -0.56502818154E+02 -0.30460607618E+03  0.32614039865E+03  0.98002201623E+02 0.  0.
          5    1    3    3  502    0  0.12463345134E+02  0.88236463924E+02 -0.97465640889E+03  0.97873060458E+03  0.41800000000E+01 0.  1.
         -5    1    3    3    0  502  0.15566960006E+02 -0.31733645770E+02 -0.13036633569E+03  0.13513773862E+03  0.41800000000E+01 0.  1.
        -11    1    4    4    0    0 -0.46236858949E+02 -0.70203874874E+02 -0.28111217676E+03  0.29341180463E+03  0.00000000000E+00 0. -1.
         11    1    4    4    0    0  0.18206553809E+02  0.13701056720E+02 -0.23493899415E+02  0.32728594020E+02  0.00000000000E+00 0.  1.
</event>
<event>
 8    1  0.6849590E-009  0.1442590E+03  0.7561462E-02  0.1207710E+00
          3   -1    0    0  501    0  0.00000000000E+00  0.00000000000E+00  0.13292305738E+03  0.13292305738E+03  0.00000000000E+00 0. -1.
         -3   -1    0    0    0  501 -0.00000000000E+00 -0.00000000000E+00 -0.17985928844E+03  0.17985928844E+03  0.00000000000E+00 0.  1.
         25    2    1    2    0    0  0.99838494533E+02  0.99773108648E+01  0.20553853305E+02  0.16166987706E+03  0.12508963402E+03 0.  0.
         23    2    1    2    0    0 -0.99838494533E+02 -0.99773108648E+01 -0.67490084360E+02  0.15111246877E+03  0.90624472451E+02 0.  0.
          5    1    3    3  502    0  0.91641824561E+02 -0.45706401480E+02  0.23506894702E+02  0.10515391407E+03  0.41800000000E+01 0.  1.
         -5    1    3    3    0  502  0.81966699721E+01  0.55683712345E+02 -0.29530413978E+01  0.56515962989E+02  0.41800000000E+01 0.  1.
        -11    1    4    4    0    0 -0.11574439477E+02  0.30397271321E+02 -0.37246640370E+02  0.49449711544E+02  0.00000000000E+00 0.  1.
         11    1    4    4    0    0 -0.88264055056E+02 -0.40374582186E+02 -0.30243443990E+02  0.10166275722E+03  0.00000000000E+00 0. -1.
</event>
<event>
 8    1  0.6849590E-009  0.1968294E+03  0.7561462E-02  0.1152442E+00
          2   -1    0    0  501    0  0.00000000000E+00  0.00000000000E+00  0.10155024218E+04  0.10155024218E+04  0.00000000000E+00 0. -1.
         -2   -1    0    0    0  501 -0.00000000000E+00 -0.00000000000E+00 -0.42978916064E+02  0.42978916064E+02  0.00000000000E+00 0.  1.
         25    2    1    2    0    0  0.17646668006E+03 -0.22495317299E+02  0.48006718872E+03  0.52702807722E+03  0.12509020755E+03 0.  0.
         23    2    1    2    0    0 -0.17646668006E+03  0.22495317299E+02  0.49245631700E+03  0.53145326062E+03  0.91009975276E+02 0.  0.
          5    1    3    3  502    0 -0.18704256512E+02 -0.47113455980E+01  0.66310646288E+02  0.69185404531E+02  0.41800000000E+01 0.  1.
         -5    1    3    3    0  502  0.19517093658E+03 -0.17783971701E+02  0.41375654243E+03  0.45784267269E+03  0.41800000000E+01 0.  1.
        -11    1    4    4    0    0 -0.15446297785E+03  0.20074580098E+02  0.48279645643E+03  0.50730091527E+03  0.00000000000E+00 0. -1.
         11    1    4    4    0    0 -0.22003702215E+02  0.24207372016E+01  0.96598605680E+01  0.24152345351E+02  0.00000000000E+00 0.  1.
</event>
<event>
 8    1  0.6849590E-009  0.9018152E+02  0.7561462E-02  0.1302413E+00
         -2   -1    0    0    0  501 -0.00000000000E+00  0.00000000000E+00  0.24168122641E+02  0.24168122641E+02  0.00000000000E+00 0.  1.
          2   -1    0    0  501    0  0.00000000000E+00 -0.00000000000E+00 -0.84098707916E+03  0.84098707916E+03  0.00000000000E+00 0. -1.
         25    2    1    2    0    0 -0.47918710081E+02 -0.28215461952E+02 -0.22283368252E+03  0.26152073098E+03  0.12508368238E+03 0.  0.
         23    2    1    2    0    0  0.47918710081E+02  0.28215461952E+02 -0.59398527399E+03  0.60363447082E+03  0.91998660692E+02 0.  0.
          5    1    3    3  502    0  0.64381206012E+01  0.49198249059E+01  0.13743354189E+02  0.16492612235E+02  0.41800000000E+01 0.  1.
         -5    1    3    3    0  502 -0.54356830683E+02 -0.33135286858E+02 -0.23657703671E+03  0.24502811875E+03  0.41800000000E+01 0.  1.
        -11    1    4    4    0    0  0.20929681359E+02 -0.33833555501E+02 -0.22895334569E+03  0.23238415511E+03  0.00000000000E+00 0. -1.
         11    1    4    4    0    0  0.26989028722E+02  0.62049017453E+02 -0.36503192830E+03  0.37125031571E+03  0.00000000000E+00 0.  1.
</event>
<event>
 8    1  0.6849590E-009  0.1803215E+03  0.7561462E-02  0.1167492E+00
          3   -1    0    0  501    0  0.00000000000E+00  0.00000000000E+00  0.14011673639E+04  0.14011673639E+04  0.00000000000E+00 0. -1.
         -3   -1    0    0    0  501 -0.00000000000E+00 -0.00000000000E+00 -0.26099698015E+02  0.26099698015E+02  0.00000000000E+00 0.  1.
         25    2    1    2    0    0 -0.15463811900E+03 -0.15241550675E+02  0.78508233263E+03  0.81002770661E+03  0.12508142853E+03 0.  0.
         23    2    1    2    0    0  0.15463811900E+03  0.15241550675E+02  0.58998533330E+03  0.61723935534E+03  0.93576041603E+02 0.  0.
          5    1    3    3  502    0  0.17552145715E+02  0.22401599412E+01  0.17236475738E+03  0.17332102620E+03  0.41800000000E+01 0. -1.
         -5    1    3    3    0  502 -0.17219026471E+03 -0.17481710616E+02  0.61271757525E+03  0.63670668041E+03  0.41800000000E+01 0. -1.
        -11    1    4    4    0    0  0.95481468504E+02 -0.23868222034E+02  0.22740688647E+03  0.24779082885E+03  0.00000000000E+00 0.  1.
         11    1    4    4    0    0  0.59156650493E+02  0.39109772709E+02  0.36257844683E+03  0.36944852649E+03  0.00000000000E+00 0. -1.
</event>
<event>
 8    1  0.6849590E-009  0.1255380E+03  0.7561462E-02  0.1234231E+00
          1   -1    0    0  501    0  0.00000000000E+00  0.00000000000E+00  0.84200871712E+02  0.84200871712E+02  0.00000000000E+00 0. -1.
         -1   -1    0    0    0  501 -0.00000000000E+00 -0.00000000000E+00 -0.42488811190E+03  0.42488811190E+03  0.00000000000E+00 0.  1.
         25    2    1    2    0    0 -0.50732508679E+02 -0.74746209480E+02 -0.35028152546E+03  0.38276182328E+03  0.12509469619E+03 0.  0.
         23    2    1    2    0    0  0.50732508679E+02  0.74746209480E+02  0.95942852711E+01  0.12632716033E+03  0.87782218355E+02 0.  0.
          5    1    3    3  502    0 -0.41970254272E+02 -0.95028992465E+02 -0.34406715932E+03  0.35943246121E+03  0.41800000000E+01 0. -1.
         -5    1    3    3    0  502 -0.87622544070E+01  0.20282782985E+02 -0.62143661417E+01  0.23329362067E+02  0.41800000000E+01 0. -1.
        -11    1    4    4    0    0  0.15024670038E+02 -0.19047492520E+02  0.92558015708E+01  0.25965699370E+02  0.00000000000E+00 0.  1.
         11    1    4    4    0    0  0.35707838641E+02  0.93793702000E+02  0.33848370029E+00  0.10036146096E+03  0.00000000000E+00 0. -1.
</event>
<event>
 8    1  0.6849590E-009  0.1192267E+03  0.7561462E-02  0.1244378E+00
          2   -1    0    0  501    0  0.00000000000E+00  0.00000000000E+00  0.98459097054E+02  0.98459097054E+02  0.00000000000E+00 0. -1.
         -2   -1    0    0    0  501 -0.00000000000E+00 -0.00000000000E+00 -0.18810832769E+03  0.18810832769E+03  0.00000000000E+00 0.  1.
         25    2    1    2    0    0  0.71351512326E+02 -0.11346282484E+02 -0.62158828346E+01  0.14458886512E+03  0.12509007267E+03 0.  0.
         23    2    1    2    0    0 -0.71351512326E+02  0.11346282484E+02 -0.83433347805E+02  0.14197855962E+03  0.89314116630E+02 0.  0.
          5    1    3    3  502    0 -0.28989076719E+02  0.10693436143E+02  0.21773222118E+02  0.38029748184E+02  0.41800000000E+01 0. -1.
         -5    1    3    3    0  502  0.10034058904E+03 -0.22039718628E+02 -0.27989104953E+02  0.10655911694E+03  0.41800000000E+01 0. -1.
        -11    1    4    4    0    0 -0.22314532551E+02  0.41336686737E+02 -0.67668068984E+02  0.82374920901E+02  0.00000000000E+00 0.  1.
         11    1    4    4    0    0 -0.49036979775E+02 -0.29990404253E+02 -0.15765278821E+02  0.59603638723E+02  0.00000000000E+00 0. -1.
</event>
<event>
 8    1  0.6849590E-009  0.1062103E+03  0.7561462E-02  0.1267753E+00
          2   -1    0    0  501    0  0.00000000000E+00  0.00000000000E+00  0.89431215713E+03  0.89431215713E+03  0.00000000000E+00 0. -1.
         -2   -1    0    0    0  501 -0.00000000000E+00 -0.00000000000E+00 -0.19632643493E+02  0.19632643493E+02  0.00000000000E+00 0.  1.
         25    2    1    2    0    0  0.46233934108E+02  0.30842547499E+02  0.66274406166E+03  0.67673176685E+03  0.12508938240E+03 0.  0.
         23    2    1    2    0    0 -0.46233934108E+02 -0.30842547499E+02  0.21193545198E+03  0.23721303378E+03  0.90909560510E+02 0.  0.
          5    1    3    3  502    0  0.98147472721E+01 -0.31845152208E+02  0.46265164757E+03  0.46386901425E+03  0.41800000000E+01 0. -1.
         -5    1    3    3    0  502  0.36419186836E+02  0.62687699707E+02  0.20009241410E+03  0.21286275260E+03  0.41800000000E+01 0. -1.
        -11    1    4    4    0    0 -0.73148457769E+02 -0.30626668475E+02  0.14971094338E+03  0.16941681222E+03  0.00000000000E+00 0. -1.
         11    1    4    4    0    0  0.26914523661E+02 -0.21587902364E+00  0.62224508597E+02  0.67796221560E+02  0.00000000000E+00 0.  1.
</event>
<event>
 8    1  0.6849590E-009  0.1157792E+03  0.7561462E-02  0.1250227E+00
          2   -1    0    0  501    0  0.00000000000E+00  0.00000000000E+00  0.20873473421E+03  0.20873473421E+03  0.00000000000E+00 0. -1.
         -2   -1    0    0    0  501 -0.00000000000E+00 -0.00000000000E+00 -0.78506592110E+02  0.78506592110E+02  0.00000000000E+00 0.  1.
         25    2    1    2    0    0  0.21962524673E+01  0.67578153768E+02  0.63503004542E+02  0.15572924262E+03  0.12508930822E+03 0.  0.
         23    2    1    2    0    0 -0.21962524673E+01 -0.67578153768E+02  0.66725137555E+02  0.13151208370E+03  0.90948082908E+02 0.  0.
          5    1    3    3  502    0  0.93261764633E+01 -0.36292923347E+02  0.21323823450E+02  0.43316644596E+02  0.41800000000E+01 0.  1.
         -5    1    3    3    0  502 -0.71299239960E+01  0.10387107712E+03  0.42179181092E+02  0.11241259803E+03  0.41800000000E+01 0.  1.
        -11    1    4    4    0    0  0.11278518759E+02  0.73907073798E+01 -0.14744656257E+02  0.19980801514E+02  0.00000000000E+00 0.  1.
         11    1    4    4    0    0 -0.13474771227E+02 -0.74968861148E+02  0.81469793812E+02  0.11153128218E+03  0.00000000000E+00 0. -1.
</event>
<event>
 8    1  0.6849590E-009  0.8565673E+02  0.7561462E-02  0.1313724E+00
         -2   -1    0    0    0  501 -0.00000000000E+00  0.00000000000E+00  0.51405888305E+02  0.51405888305E+02  0.00000000000E+00 0. -1.
          2   -1    0    0  501    0  0.00000000000E+00 -0.00000000000E+00 -0.37077938711E+03  0.37077938711E+03  0.00000000000E+00 0.  1.
         25    2    1    2    0    0  0.48292737974E+02 -0.34441443879E+02 -0.81974087055E+02  0.16088815622E+03  0.12508735454E+03 0.  0.
         23    2    1    2    0    0 -0.48292737974E+02  0.34441443879E+02 -0.23739941175E+03  0.26129711919E+03  0.91647707027E+02 0.  0.
          5    1    3    3  502    0  0.39498240189E+02 -0.17856778131E+02  0.26330348401E+02  0.50889440459E+02  0.41800000000E+01 0.  1.
         -5    1    3    3    0  502  0.87944977849E+01 -0.16584665749E+02 -0.10830443546E+03  0.10999871576E+03  0.41800000000E+01 0.  1.
        -11    1    4    4    0    0  0.12441191046E+02  0.45176187927E+02 -0.11662241354E+03  0.12568396290E+03  0.00000000000E+00 0.  1.
         11    1    4    4    0    0 -0.60733929020E+02 -0.10734744048E+02 -0.12077699821E+03  0.13561315630E+03  0.00000000000E+00 0. -1.
</event>
<event>
 8    1  0.6849590E-009  0.1151320E+03  0.7561462E-02  0.1251351E+00
         -2   -1    0    0    0  501 -0.00000000000E+00  0.00000000000E+00  0.16175610076E+02  0.16175610076E+02  0.00000000000E+00 0.  1.
          2   -1    0    0  501    0  0.00000000000E+00 -0.00000000000E+00 -0.16295062057E+04  0.16295062057E+04  0.00000000000E+00 0. -1.
         25    2    1    2    0    0 -0.52030056896E+02 -0.72822102760E+02 -0.12763622184E+04  0.12855942759E+04  0.12506775883E+03 0.  0.
         23    2    1    2    0    0  0.52030056896E+02  0.72822102760E+02 -0.33696837718E+03  0.36008753980E+03  0.90028682227E+02 0.  0.
          5    1    3    3  502    0 -0.77465812128E+02 -0.72840115423E+02 -0.64607089042E+03  0.65477607036E+03  0.41800000000E+01 0.  1.
         -5    1    3    3    0  502  0.25435755233E+02  0.18012663056E-01 -0.63029132798E+03  0.63081820558E+03  0.41800000000E+01 0.  1.
        -11    1    4    4    0    0  0.97833181239E+01  0.48181642292E+02 -0.28306738537E+03  0.28730528820E+03  0.00000000000E+00 0. -1.
         11    1    4    4    0    0  0.42246738772E+02  0.24640460468E+02 -0.53900991815E+02  0.72782251598E+02  0.00000000000E+00 0.  1.
</event>
<event>
 8    1  0.6849590E-009  0.9351374E+02  0.7561462E-02  0.1294559E+00
          1   -1    0    0  501    0  0.00000000000E+00  0.00000000000E+00  0.18820869481E+03  0.18820869481E+03  0.00000000000E+00 0. -1.
         -1   -1    0    0    0  501 -0.00000000000E+00 -0.00000000000E+00 -0.71595163499E+02  0.71595163499E+02  0.00000000000E+00 0.  1.
         25    2    1    2    0    0  0.24879993431E+02 -0.16906047403E+02  0.35694225658E+02  0.13351456768E+03  0.12508890248E+03 0.  0.
         23    2    1    2    0    0 -0.24879993431E+02  0.16906047403E+02  0.80919305649E+02  0.12628929063E+03  0.92174955325E+02 0.  0.
          5    1    3    3  502    0 -0.30689346011E+02 -0.47719406533E+02  0.40227072974E+02  0.69675444157E+02  0.41800000000E+01 0.  1.
         -5    1    3    3    0  502  0.55569339441E+02  0.30813359130E+02 -0.45328473160E+01  0.63839123518E+02  0.41800000000E+01 0.  1.
        -11    1    4    4    0    0 -0.40504220697E+02  0.26238718571E+02  0.92769676847E+02  0.10457186614E+03  0.00000000000E+00 0. -1.
         11    1    4    4    0    0  0.15624227267E+02 -0.93326711674E+01 -0.11850371198E+02  0.21717424486E+02  0.00000000000E+00 0.  1.
</event>
<event>
 8    1  0.6849590E-009  0.6888724E+02  0.7561462E-02  0.1363918E+00
         -2   -1    0    0    0  501 -0.00000000000E+00  0.00000000000E+00  0.94212523772E+01  0.94212523772E+01  0.00000000000E+00 0.  1.
          2   -1    0    0  501    0  0.00000000000E+00 -0.00000000000E+00 -0.14504119680E+04  0.14504119680E+04  0.00000000000E+00 0. -1.
         25    2    1    2    0    0  0.14249049144E+02  0.27009328320E+02 -0.10168013245E+04  0.10249231919E+04  0.12510026627E+03 0.  0.
         23    2    1    2    0    0 -0.14249049144E+02 -0.27009328320E+02 -0.42418939110E+03  0.43491002843E+03  0.90981064455E+02 0.  0.
          5    1    3    3  502    0  0.22543726267E+02  0.29431123551E+01 -0.97833352792E+03  0.97860658375E+03  0.41800000000E+01 0.  1.
         -5    1    3    3    0  502 -0.82946771227E+01  0.24066215965E+02 -0.38467796598E+02  0.46316608193E+02  0.41800000000E+01 0.  1.
        -11    1    4    4    0    0  0.21102424958E+02  0.20648397599E+02 -0.73022989866E+02  0.78765637886E+02  0.00000000000E+00 0.  1.
         11    1    4    4    0    0 -0.35351474102E+02 -0.47657725919E+02 -0.35116640124E+03  0.35614439055E+03  0.00000000000E+00 0. -1.
</event>
<event>
 8    1  0.6849590E-009  0.1034042E+03  0.7561462E-02  0.1273296E+00
          3   -1    0    0  501    0  0.00000000000E+00  0.00000000000E+00  0.15087424893E+04  0.15087424893E+04  0.00000000000E+00 0. -1.
         -3   -1    0    0    0  501 -0.00000000000E+00 -0.00000000000E+00 -0.99654706601E+01  0.99654706601E+01  0.00000000000E+00 0.  1.
         25    2    1    2    0    0  0.27230856179E+02  0.24723986400E+02  0.11024935211E+04  0.11101766546E+04  0.12508974952E+03 0.  0.
         23    2    1    2    0    0 -0.27230856179E+02 -0.24723986400E+02  0.39628349755E+03  0.40853130532E+03  0.92219422915E+02 0.  0.
          5    1    3    3  502    0  0.38651951959E+01 -0.42554720864E+02  0.18513430998E+03  0.19004743917E+03  0.41800000000E+01 0. -1.
         -5    1    3    3    0  502  0.23365660983E+02  0.67278707265E+02  0.91735921107E+03  0.92012921544E+03  0.41800000000E+01 0. -1.
        -11    1    4    4    0    0  0.32088722713E+01 -0.51735497260E+02  0.29243433442E+03  0.29699275831E+03  0.00000000000E+00 0. -1.
         11    1    4    4    0    0 -0.30439728450E+02  0.27011510860E+02  0.10384916313E+03  0.11153854701E+03  0.00000000000E+00 0.  1.
</event>
<event>
 8    1  0.6849590E-009  0.1398933E+03  0.7561462E-02  0.1213473E+00
         -2   -1    0    0    0  501 -0.00000000000E+00  0.00000000000E+00  0.27156297961E+02  0.27156297961E+02  0.00000000000E+00 0.  1.
          2   -1    0    0  501    0  0.00000000000E+00 -0.00000000000E+00 -0.11766940276E+04  0.11766940276E+04  0.00000000000E+00 0. -1.
         25    2    1    2    0    0  0.10678366739E+03 -0.42602719668E+02 -0.88862346044E+03  0.90471945082E+03  0.12509151412E+03 0.  0.
         23    2    1    2    0    0 -0.10678366739E+03  0.42602719668E+02 -0.26091426917E+03  0.29913087471E+03  0.90472542820E+02 0.  0.
          5    1    3    3  502    0 -0.74996037265E+01 -0.49492183991E+02 -0.38293096850E+03  0.38621149564E+03  0.41800000000E+01 0. -1.
         -5    1    3    3    0  502  0.11428327112E+03  0.68894643235E+01 -0.50569249194E+03  0.51850795518E+03  0.41800000000E+01 0. -1.
        -11    1    4    4    0    0 -0.52990622770E+02  0.19992155772E+02 -0.36793692584E+02  0.67538642331E+02  0.00000000000E+00 0.  1.
         11    1    4    4    0    0 -0.53793044623E+02  0.22610563896E+02 -0.22412057659E+03  0.23159223238E+03  0.00000000000E+00 0. -1.
</event>
<event>
 8    1  0.6849590E-009  0.1461027E+03  0.7561462E-02  0.1205345E+00
          1   -1    0    0  501    0  0.00000000000E+00  0.00000000000E+00  0.75891019158E+03  0.75891019158E+03  0.00000000000E+00 0. -1.
         -1   -1    0    0    0  501 -0.00000000000E+00 -0.00000000000E+00 -0.28907372045E+02  0.28907372045E+02  0.00000000000E+00 0.  1.
         25    2    1    2    0    0  0.60478203759E+02 -0.77931503574E+02  0.45165311388E+03  0.47892606426E+03  0.12509479354E+03 0.  0.
         23    2    1    2    0    0 -0.60478203759E+02  0.77931503574E+02  0.27834970565E+03  0.30889149936E+03  0.90578514900E+02 0.  0.
          5    1    3    3  502    0  0.38703511302E+02  0.29984593773E+02  0.13822391855E+03  0.14669819941E+03  0.41800000000E+01 0. -1.
         -5    1    3    3    0  502  0.21774692456E+02 -0.10791609735E+03  0.31342919533E+03  0.33222786485E+03  0.41800000000E+01 0. -1.
        -11    1    4    4    0    0 -0.57242958254E+02  0.97500766832E+02  0.24901252155E+03  0.27347832033E+03  0.00000000000E+00 0.  1.
         11    1    4    4    0    0 -0.32352455046E+01 -0.19569263258E+02  0.29337184103E+02  0.35413179030E+02  0.00000000000E+00 0. -1.
</event>
<event>
 8    1  0.6849590E-009  0.1375152E+03  0.7561462E-02  0.1216712E+00
         -1   -1    0    0    0  501 -0.00000000000E+00  0.00000000000E+00  0.41360678504E+03  0.41360678504E+03  0.00000000000E+00 0.  1.
          1   -1    0    0  501    0  0.00000000000E+00 -0.00000000000E+00 -0.66883688695E+02  0.66883688695E+02  0.00000000000E+00 0. -1.
         25    2    1    2    0    0  0.59154531122E+02  0.10346138536E+03  0.12876735770E+03  0.21547757431E+03  0.12508411494E+03 0.  0.
         23    2    1    2    0    0 -0.59154531122E+02 -0.10346138536E+03  0.21795573865E+03  0.26501289942E+03  0.92323431678E+02 0.  0.
          5    1    3    3  502    0  0.71809251841E+02  0.94393521814E+02  0.14843697058E+03  0.19004660546E+03  0.41800000000E+01 0. -1.
         -5    1    3    3    0  502 -0.12654720719E+02  0.90678635499E+01 -0.19669612886E+02  0.25430968855E+02  0.41800000000E+01 0. -1.
        -11    1    4    4    0    0 -0.44990800705E+02 -0.10499880870E+02  0.12293270392E+03  0.13132733661E+03  0.00000000000E+00 0.  1.
         11    1    4    4    0    0 -0.14163730418E+02 -0.92961504494E+02  0.95023034729E+02  0.13368556282E+03  0.00000000000E+00 0. -1.
</event>
<event>
 8    1  0.6849590E-009  0.7915025E+02  0.7561462E-02  0.1331480E+00
          1   -1    0    0  501    0  0.00000000000E+00  0.00000000000E+00  0.73024088695E+02  0.73024088695E+02  0.00000000000E+00 0. -1.
         -1   -1    0    0    0  501 -0.00000000000E+00 -0.00000000000E+00 -0.24354830878E+03  0.24354830878E+03  0.00000000000E+00 0.  1.
         25    2    1    2    0    0  0.26669518404E+02 -0.13411188322E+01 -0.71008269796E+01  0.12810315516E+03  0.12508770846E+03 0.  0.
         23    2    1    2    0    0 -0.26669518404E+02  0.13411188322E+01 -0.16342339310E+03  0.18846924231E+03  0.90002155927E+02 0.  0.
          5    1    3    3  502    0  0.52406123737E+02  0.41904374458E+02  0.20846538970E+02  0.70387704828E+02  0.41800000000E+01 0. -1.
         -5    1    3    3    0  502 -0.25736605334E+02 -0.43245493290E+02 -0.27947365950E+02  0.57715450336E+02  0.41800000000E+01 0. -1.
        -11    1    4    4    0    0 -0.10295454138E+01 -0.11742632323E+02  0.82573005231E+01  0.14392094690E+02  0.00000000000E+00 0. -1.
         11    1    4    4    0    0 -0.25639972990E+02  0.13083751155E+02 -0.17168069363E+03  0.17407714762E+03  0.00000000000E+00 0.  1.
</event>
<event>
 8    1  0.6849590E-009  0.1114311E+03  0.7561462E-02  0.1257942E+00
         -2   -1    0    0    0  501 -0.00000000000E+00  0.00000000000E+00  0.15590400408E+03  0.15590400408E+03  0.00000000000E+00 0.  1.
          2   -1    0    0  501    0  0.00000000000E+00 -0.00000000000E+00 -0.10491746725E+03  0.10491746725E+03  0.00000000000E+00 0. -1.
         25    2    1    2    0    0 -0.53351961161E+02  0.47231151587E+02  0.36528856024E+02  0.14854385354E+03  0.12511476996E+03 0.  0.
         23    2    1    2    0    0  0.53351961161E+02 -0.47231151587E+02  0.14457680801E+02  0.11227761779E+03  0.85557147461E+02 0.  0.
          5    1    3    3  502    0 -0.87604310535E+02  0.13375326498E+02  0.12999139079E+01  0.88727542282E+02  0.41800000000E+01 0. -1.
         -5    1    3    3    0  502  0.34252349375E+02  0.33855825089E+02  0.35228942116E+02  0.59816311260E+02  0.41800000000E+01 0. -1.
        -11    1    4    4    0    0  0.26408973763E+01 -0.33037192506E+02  0.41475638110E+02  0.53091044294E+02  0.00000000000E+00 0.  1.
         11    1    4    4    0    0  0.50711063784E+02 -0.14193959081E+02 -0.27017957310E+02  0.59186573492E+02  0.00000000000E+00 0. -1.
</event>
<event>
 8    1  0.6849590E-009  0.9712301E+02  0.7561462E-02  0.1286465E+00
         -2   -1    0    0    0  501 -0.00000000000E+00  0.00000000000E+00  0.70047450103E+02  0.70047450103E+02  0.00000000000E+00 0.  1.
          2   -1    0    0  501    0  0.00000000000E+00 -0.00000000000E+00 -0.18096593770E+03  0.18096593770E+03  0.00000000000E+00 0. -1.
         25    2    1    2    0    0 -0.22680788339E+02 -0.15687278027E+02 -0.76807157987E+02  0.14935862111E+03  0.12509256305E+03 0.  0.
         23    2    1    2    0    0  0.22680788339E+02  0.15687278027E+02 -0.34111329607E+02  0.10165476669E+03  0.91703870866E+02 0.  0.
          5    1    3    3  502    0 -0.69032352479E+02 -0.24450173568E+02 -0.70218571961E+02  0.10154504874E+03  0.41800000000E+01 0. -1.
         -5    1    3    3    0  502  0.46351564140E+02  0.87628955415E+01 -0.65885860266E+01  0.47813572366E+02  0.41800000000E+01 0. -1.
        -11    1    4    4    0    0  0.37726682738E+02  0.33334955533E+02  0.10452606725E+02  0.51417689934E+02  0.00000000000E+00 0.  1.
         11    1    4    4    0    0 -0.15045894399E+02 -0.17647677506E+02 -0.44563936332E+02  0.50237076757E+02  0.00000000000E+00 0. -1.
</event>
<event>
 8    1  0.6849590E-009  0.1232365E+03  0.7561462E-02  0.1237851E+00
         -1   -1    0    0    0  501 -0.00000000000E+00  0.00000000000E+00  0.96274683680E+02  0.96274683680E+02  0.00000000000E+00 0. -1.
          1   -1    0    0  501    0  0.00000000000E+00 -0.00000000000E+00 -0.20122367043E+03  0.20122367043E+03  0.00000000000E+00 0.  1.
         25    2    1    2    0    0  0.71152705631E+02  0.28567179535E+02 -0.10035296905E+03  0.17775800933E+03  0.12509356586E+03 0.  0.
         23    2    1    2    0    0 -0.71152705631E+02 -0.28567179535E+02 -0.45960177051E+01  0.11974034478E+03  0.91857691694E+02 0.  0.
          5    1    3    3  502    0  0.88408305570E+02 -0.14352638710E+02 -0.32173510236E+02  0.95260872831E+02  0.41800000000E+01 0. -1.
         -5    1    3    3    0  502 -0.17255599939E+02  0.42919818245E+02 -0.68179458810E+02  0.82497136503E+02  0.41800000000E+01 0. -1.
        -11    1    4    4    0    0 -0.88773174894E+02 -0.21235321189E+02  0.14868109620E+02  0.92480679768E+02  0.00000000000E+00 0. -1.
         11    1    4    4    0    0  0.17620469263E+02 -0.73318583464E+01 -0.19464127326E+02  0.27259665009E+02  0.00000000000E+00 0.  1.
</event>
<event>
 8    1  0.6849590E-009  0.1120880E+03  0.7561462E-02  0.1256751E+00
          2   -1    0    0  501    0  0.00000000000E+00  0.00000000000E+00  0.15736483818E+03  0.15736483818E+03  0.00000000000E+00 0. -1.
         -2   -1    0    0    0  501 -0.00000000000E+00 -0.00000000000E+00 -0.82042118015E+02  0.82042118015E+02  0.00000000000E+00 0.  1.
         25    2    1    2    0    0  0.30771255648E+02  0.12275378064E+02  0.58476267468E+02  0.14200252542E+03  0.12509072023E+03 0.  0.
         23    2    1    2    0    0 -0.30771255648E+02 -0.12275378064E+02  0.16846452701E+02  0.97404430776E+02  0.90034799303E+02 0.  0.
          5    1    3    3  502    0  0.24941417042E+02 -0.55621226483E+02  0.29103640271E+02  0.67677835342E+02  0.41800000000E+01 0. -1.
         -5    1    3    3    0  502  0.58298386064E+01  0.67896604547E+02  0.29372627197E+02  0.74324690081E+02  0.41800000000E+01 0. -1.
        -11    1    4    4    0    0  0.10835620483E+01 -0.47383097789E+02  0.95121170934E+00  0.47405029970E+02  0.00000000000E+00 0.  1.
         11    1    4    4    0    0 -0.31854817697E+02  0.35107719725E+02  0.15895240991E+02  0.49999400806E+02  0.00000000000E+00 0. -1.
</event>
<event>
 8    1  0.6849590E-009  0.3294491E+03  0.7561462E-02  0.1071381E+00
         -1   -1    0    0    0  501 -0.00000000000E+00  0.00000000000E+00  0.26430242030E+03  0.26430242030E+03  0.00000000000E+00 0.  1.
          1   -1    0    0  501    0  0.00000000000E+00 -0.00000000000E+00 -0.46572017675E+03  0.46572017675E+03  0.00000000000E+00 0. -1.
         25    2    1    2    0    0 -0.31208028354E+03 -0.89630366993E+02 -0.15402513728E+03  0.38052029539E+03  0.12507696122E+03 0.  0.
         23    2    1    2    0    0  0.31208028354E+03  0.89630366993E+02 -0.47392619167E+02  0.34950230166E+03  0.12032494527E+03 0.  0.
          5    1    3    3  502    0 -0.26979130498E+03 -0.55576101317E+02 -0.17006272817E+03  0.32375122423E+03  0.41800000000E+01 0. -1.
         -5    1    3    3    0  502 -0.42288978562E+02 -0.34054265676E+02  0.16037590889E+02  0.56769071157E+02  0.41800000000E+01 0. -1.
        -11    1    4    4    0    0  0.79667076060E+02 -0.52022283159E+00 -0.60250153163E+02  0.99885907894E+02  0.00000000000E+00 0. -1.
         11    1    4    4    0    0  0.23241320748E+03  0.90150589824E+02  0.12857533996E+02  0.24961639377E+03  0.00000000000E+00 0.  1.
</event>
<event>
 8    1  0.6849590E-009  0.1051124E+03  0.7561462E-02  0.1269898E+00
         -2   -1    0    0    0  501 -0.00000000000E+00  0.00000000000E+00  0.27807605287E+02  0.27807605287E+02  0.00000000000E+00 0.  1.
          2   -1    0    0  501    0  0.00000000000E+00 -0.00000000000E+00 -0.47597366565E+03  0.47597366565E+03  0.00000000000E+00 0. -1.
         25    2    1    2    0    0 -0.16039601956E+02 -0.42465722298E+02 -0.29507023178E+03  0.32368902221E+03  0.12509010759E+03 0.  0.
         23    2    1    2    0    0  0.16039601956E+02  0.42465722298E+02 -0.15309582859E+03  0.18009224873E+03  0.83272317852E+02 0.  0.
          5    1    3    3  502    0 -0.27500617203E+02  0.39287429763E+02 -0.81134540608E+02  0.94340193786E+02  0.41800000000E+01 0.  1.
         -5    1    3    3    0  502  0.11461015248E+02 -0.81753152062E+02 -0.21393569117E+03  0.22934882842E+03  0.41800000000E+01 0.  1.
        -11    1    4    4    0    0 -0.16831981649E+02  0.43393792454E+02 -0.13447396013E+03  0.14230102875E+03  0.00000000000E+00 0. -1.
         11    1    4    4    0    0  0.32871583605E+02 -0.92807015564E+00 -0.18621868460E+02  0.37791219983E+02  0.00000000000E+00 0.  1.
</event>
<event>
 8    1  0.6849590E-009  0.1163956E+03  0.7561462E-02  0.1249164E+00
         -3   -1    0    0    0  501 -0.00000000000E+00  0.00000000000E+00  0.33177320957E+03  0.33177320957E+03  0.00000000000E+00 0.  1.
          3   -1    0    0  501    0  0.00000000000E+00 -0.00000000000E+00 -0.58409172859E+02  0.58409172859E+02  0.00000000000E+00 0. -1.
         25    2    1    2    0    0 -0.44027110501E+02 -0.39232420614E+02  0.23968447012E+03  0.27671875109E+03  0.12508817971E+03 0.  0.
         23    2    1    2    0    0  0.44027110501E+02  0.39232420614E+02  0.33679566597E+02  0.11346363134E+03  0.90896166829E+02 0.  0.
          5    1    3    3  502    0  0.40928957360E+02 -0.88913033006E+01  0.11728655467E+03  0.12461076652E+03  0.41800000000E+01 0.  1.
         -5    1    3    3    0  502 -0.84956067861E+02 -0.30341117314E+02  0.12239791544E+03  0.15210798457E+03  0.41800000000E+01 0.  1.
        -11    1    4    4    0    0  0.53374680710E-01  0.54003085927E+02 -0.33520703083E+01  0.54107046804E+02  0.00000000000E+00 0. -1.
         11    1    4    4    0    0  0.43973735821E+02 -0.14770665313E+02  0.37031636905E+02  0.59356584535E+02  0.00000000000E+00 0.  1.
</event>
<event>
 8    1  0.6849590E-009  0.9721209E+02  0.7561462E-02  0.1286270E+00
         -2   -1    0    0    0  501 -0.00000000000E+00  0.00000000000E+00  0.10089744429E+03  0.10089744429E+03  0.00000000000E+00 0.  1.
          2   -1    0    0  501    0  0.00000000000E+00 -0.00000000000E+00 -0.13271927772E+03  0.13271927772E+03  0.00000000000E+00 0. -1.
         25    2    1    2    0    0  0.30049957654E+02  0.10195228910E+02 -0.18907776660E+02  0.13043040264E+03  0.12509054027E+03 0.  0.
         23    2    1    2    0    0 -0.30049957654E+02 -0.10195228910E+02 -0.12914056766E+02  0.10318631938E+03  0.97332938910E+02 0.  0.
          5    1    3    3  502    0  0.62656171913E+02 -0.35850707689E+02 -0.73051372939E+01  0.72676726340E+02  0.41800000000E+01 0.  1.
         -5    1    3    3    0  502 -0.32606214260E+02  0.46045936598E+02 -0.11602639366E+02  0.57753676297E+02  0.41800000000E+01 0.  1.
        -11    1    4    4    0    0  0.16135573655E+02 -0.10682385411E+02  0.32875308942E+02  0.38147818198E+02  0.00000000000E+00 0.  1.
         11    1    4    4    0    0 -0.46185531308E+02  0.48715650166E+00 -0.45789365707E+02  0.65038501179E+02  0.00000000000E+00 0. -1.
</event>
<event>
 8    1  0.6849590E-009  0.1979046E+03  0.7561462E-02  0.1151519E+00
         -1   -1    0    0    0  501 -0.00000000000E+00  0.00000000000E+00  0.35496052378E+03  0.35496052378E+03  0.00000000000E+00 0.  1.
          1   -1    0    0  501    0  0.00000000000E+00 -0.00000000000E+00 -0.18652331495E+03  0.18652331495E+03  0.00000000000E+00 0. -1.
         25    2    1    2    0    0  0.86901891709E+02 -0.16812888896E+03 -0.56134089186E+02  0.23370267446E+03  0.12508653804E+03 0.  0.
         23    2    1    2    0    0 -0.86901891709E+02  0.16812888896E+03  0.22457129801E+03  0.30778116427E+03  0.92074508445E+02 0.  0.
          5    1    3    3  502    0  0.76525240868E+02 -0.67455636878E+02 -0.79916521123E+02  0.12965530527E+03  0.41800000000E+01 0. -1.
         -5    1    3    3    0  502  0.10376650841E+02 -0.10067325208E+03  0.23782431937E+02  0.10404736919E+03  0.41800000000E+01 0. -1.
        -11    1    4    4    0    0 -0.14001201628E+02  0.62674865353E+02  0.21678480752E+02  0.67780003849E+02  0.00000000000E+00 0. -1.
         11    1    4    4    0    0 -0.72900690081E+02  0.10545402360E+03  0.20289281726E+03  0.24000116042E+03  0.00000000000E+00 0.  1.
</event>
<event>
 8    1  0.6849590E-009  0.1177098E+03  0.7561462E-02  0.1246924E+00
         -2   -1    0    0    0  501 -0.00000000000E+00  0.00000000000E+00  0.28705077492E+03  0.28705077492E+03  0.00000000000E+00 0.  1.
          2   -1    0    0  501    0  0.00000000000E+00 -0.00000000000E+00 -0.54285269431E+02  0.54285269431E+02  0.00000000000E+00 0. -1.
         25    2    1    2    0    0  0.33575325855E+02  0.52276500163E+02  0.14229512939E+03  0.19938813228E+03  0.12509032125E+03 0.  0.
         23    2    1    2    0    0 -0.33575325855E+02 -0.52276500163E+02  0.90470376104E+02  0.14194791208E+03  0.90023251526E+02 0.  0.
          5    1    3    3  502    0  0.77610969793E+02  0.18902566071E+02  0.10736425294E+03  0.13388549154E+03  0.41800000000E+01 0.  1.
         -5    1    3    3    0  502 -0.44035643938E+02  0.33373934093E+02  0.34930876450E+02  0.65502640736E+02  0.41800000000E+01 0.  1.
        -11    1    4    4    0    0 -0.15678038055E+02 -0.71824463052E+02  0.37072071912E+02  0.82334032367E+02  0.00000000000E+00 0. -1.
         11    1    4    4    0    0 -0.17897287800E+02  0.19547962888E+02  0.53398304192E+02  0.59613879712E+02  0.00000000000E+00 0.  1.
</event>
<event>
 8    1  0.6849590E-009  0.1049863E+03  0.7561462E-02  0.1270147E+00
          1   -1    0    0  501    0  0.00000000000E+00  0.00000000000E+00  0.46459923749E+02  0.46459923749E+02  0.00000000000E+00 0. -1.
         -1   -1    0    0    0  501 -0.00000000000E+00 -0.00000000000E+00 -0.33286976351E+03  0.33286976351E+03  0.00000000000E+00 0.  1.
         25    2    1    2    0    0  0.34324293558E+02 -0.50219787517E+02 -0.17197279262E+03  0.22118344986E+03  0.12508913983E+03 0.  0.
         23    2    1    2    0    0 -0.34324293558E+02  0.50219787517E+02 -0.11443704714E+03  0.15814623740E+03  0.90632281547E+02 0.  0.
          5    1    3    3  502    0  0.44806287783E+02  0.98828530260E+01 -0.14882942488E+03  0.15579776738E+03  0.41800000000E+01 0.  1.
         -5    1    3    3    0  502 -0.10481994225E+02 -0.60102640543E+02 -0.23143367733E+02  0.65385682479E+02  0.41800000000E+01 0.  1.
        -11    1    4    4    0    0 -0.30419807444E+02  0.73287824246E+02 -0.61910632050E+02  0.10064490165E+03  0.00000000000E+00 0.  1.
         11    1    4    4    0    0 -0.39044861140E+01 -0.23068036729E+02 -0.52526415090E+02  0.57501335746E+02  0.00000000000E+00 0. -1.
</event>
<event>
 7    1  0.6849590E-009  0.1380713E+03  0.7561462E-02  0.1215948E+00
          2   -1    0    0  501    0  0.00000000000E+00  0.00000000000E+00  0.19374986026E+03  0.19374986026E+03  0.00000000000E+00 0. -1.
         -2   -1    0    0    0  501 -0.00000000000E+00 -0.00000000000E+00 -0.19735127874E+03  0.19735127874E+03  0.00000000000E+00 0.  1.
         23    2    1    2    0    0 -0.11013838274E+03  0.55664278365E+01  0.11729234001E+03  0.18505403989E+03  0.91247225614E+02 0.  0.
          5    1    1    2  502    0  0.44516805185E+02  0.58441197801E+02 -0.67646669023E+02  0.99953307971E+02  0.41800000000E+01 0.  1.
         -5    1    1    2    0  502  0.65621577559E+02 -0.64007625638E+02 -0.53247089472E+02  0.10609379114E+03  0.41800000000E+01 0.  1.
        -11    1    3    3    0    0 -0.79192171410E+02  0.88019828148E+01  0.18943686142E+02  0.81900782406E+02  0.00000000000E+00 0.  1.
         11    1    3    3    0    0 -0.30946211335E+02 -0.32355549784E+01  0.98348653868E+02  0.10315325748E+03  0.00000000000E+00 0. -1.
</event>
<event>
 8    1  0.6849590E-009  0.2180426E+03  0.7561462E-02  0.1135351E+00
          2   -1    0    0  501    0  0.00000000000E+00  0.00000000000E+00  0.39908285310E+03  0.39908285310E+03  0.00000000000E+00 0.  1.
         -2   -1    0    0    0  501 -0.00000000000E+00 -0.00000000000E+00 -0.14098886001E+03  0.14098886001E+03  0.00000000000E+00 0. -1.
         25    2    1    2    0    0  0.19428181163E+03  0.73413769228E+02  0.86597173926E+02  0.25745288664E+03  0.12509162428E+03 0.  0.
         23    2    1    2    0    0 -0.19428181163E+03 -0.73413769228E+02  0.17149681917E+03  0.28261882648E+03  0.85599288862E+02 0.  0.
          5    1    3    3  502    0  0.17706533662E+03  0.29704483700E+02  0.10358836525E+03  0.20732224096E+03  0.41800000000E+01 0.  1.
         -5    1    3    3    0  502  0.17216475009E+02  0.43709285528E+02 -0.16991191324E+02  0.50130645674E+02  0.41800000000E+01 0.  1.
        -11    1    4    4    0    0 -0.40749093071E+02 -0.43439306216E+01 -0.17878029894E+01  0.41018953654E+02  0.00000000000E+00 0. -1.
         11    1    4    4    0    0 -0.15353271856E+03 -0.69069838607E+02  0.17328462216E+03  0.24159987282E+03  0.00000000000E+00 0.  1.
</event>
<event>
 8    1  0.6849590E-009  0.2340610E+03  0.7561462E-02  0.1123814E+00
         -1   -1    0    0    0  501 -0.00000000000E+00  0.00000000000E+00  0.14005487750E+03  0.14005487750E+03  0.00000000000E+00 0.  1.
          1   -1    0    0  501    0  0.00000000000E+00 -0.00000000000E+00 -0.44799013959E+03  0.44799013959E+03  0.00000000000E+00 0. -1.
         25    2    1    2    0    0 -0.19567276461E+03  0.10435704362E+03 -0.20357323539E+03  0.32599037870E+03  0.12509772770E+03 0.  0.
         23    2    1    2    0    0  0.19567276461E+03 -0.10435704362E+03 -0.10436202669E+03  0.26205463839E+03  0.92752237282E+02 0.  0.
          5    1    3    3  502    0 -0.18590677473E+03  0.82054662579E+02 -0.21745430875E+03  0.29765440588E+03  0.41800000000E+01 0.  1.
         -5    1    3    3    0  502 -0.97659898754E+01  0.22302381042E+02  0.13881073362E+02  0.28335972827E+02  0.41800000000E+01 0.  1.
        -11    1    4    4    0    0  0.11581777850E+03 -0.95519193238E+01 -0.55990622650E+02  0.12899591778E+03  0.00000000000E+00 0.  1.
         11    1    4    4    0    0  0.79854986105E+02 -0.94805124297E+02 -0.48371404043E+02  0.13305872060E+03  0.00000000000E+00 0. -1.
</event>
<event>
 8    1  0.6849590E-009  0.1009907E+03  0.7561462E-02  0.1278226E+00
          2   -1    0    0  501    0  0.00000000000E+00  0.00000000000E+00  0.17203834294E+03  0.17203834294E+03  0.00000000000E+00 0. -1.
         -2   -1    0    0    0  501 -0.00000000000E+00 -0.00000000000E+00 -0.10287453076E+03  0.10287453076E+03  0.00000000000E+00 0.  1.
         25    2    1    2    0    0  0.37426369230E+02 -0.66262082121E+02  0.58369263101E+02  0.15762637288E+03  0.12509079067E+03 0.  0.
         23    2    1    2    0    0 -0.37426369230E+02  0.66262082121E+02  0.10794549084E+02  0.11728650082E+03  0.88590091686E+02 0.  0.
          5    1    3    3  502    0  0.30334017761E+02  0.12535405613E+02 -0.25858215409E+02  0.41992960500E+02  0.41800000000E+01 0.  1.
         -5    1    3    3    0  502  0.70923514690E+01 -0.78797487734E+02  0.84227478509E+02  0.11563341238E+03  0.41800000000E+01 0.  1.
        -11    1    4    4    0    0 -0.48299146066E+02  0.60329838323E+02 -0.23538924112E+02  0.80787238170E+02  0.00000000000E+00 0.  1.
         11    1    4    4    0    0  0.10872776836E+02  0.59322437981E+01  0.34333473196E+02  0.36499262654E+02  0.00000000000E+00 0. -1.
</event>
<event>
 8    1  0.6849590E-009  0.7766415E+02  0.7561462E-02  0.1335814E+00
         -2   -1    0    0    0  501 -0.00000000000E+00  0.00000000000E+00  0.16827199609E+03  0.16827199609E+03  0.00000000000E+00 0.  1.
          2   -1    0    0  501    0  0.00000000000E+00 -0.00000000000E+00 -0.76454453885E+02  0.76454453885E+02  0.00000000000E+00 0. -1.
         25    2    1    2    0    0 -0.23908765380E+02 -0.12635915053E+02  0.31112779858E+02  0.13170357923E+03  0.12508609954E+03 0.  0.
         23    2    1    2    0    0  0.23908765380E+02  0.12635915053E+02  0.60704762352E+02  0.11302287075E+03  0.91421035490E+02 0.  0.
          5    1    3    3  502    0  0.22344480789E+02 -0.43984184280E+02  0.52097308248E+02  0.71871317055E+02  0.41800000000E+01 0. -1.
         -5    1    3    3    0  502 -0.46253246170E+02  0.31348269227E+02 -0.20984528390E+02  0.59832262171E+02  0.41800000000E+01 0. -1.
        -11    1    4    4    0    0  0.82901946105E+01  0.27196796863E+02  0.79590307339E+02  0.84516330426E+02  0.00000000000E+00 0.  1.
         11    1    4    4    0    0  0.15618570770E+02 -0.14560881810E+02 -0.18885544988E+02  0.28506540328E+02  0.00000000000E+00 0. -1.
</event>
<event>
 8    1  0.6849590E-009  0.1278321E+03  0.7561462E-02  0.1230708E+00
          1   -1    0    0  501    0  0.00000000000E+00  0.00000000000E+00  0.30435736589E+02  0.30435736589E+02  0.00000000000E+00 0. -1.
         -1   -1    0    0    0  501 -0.00000000000E+00 -0.00000000000E+00 -0.11509666039E+04  0.11509666039E+04  0.00000000000E+00 0.  1.
         25    2    1    2    0    0 -0.88150886171E+02 -0.39677468243E+02 -0.96197180327E+03  0.97487547430E+03  0.12509020705E+03 0.  0.
         23    2    1    2    0    0  0.88150886171E+02  0.39677468243E+02 -0.15855906404E+03  0.20652686618E+03  0.90374163601E+02 0.  0.
          5    1    3    3  502    0  0.26576418087E+02 -0.16211326354E+02 -0.95901671988E+02  0.10091440031E+03  0.41800000000E+01 0. -1.
         -5    1    3    3    0  502 -0.11472730426E+03 -0.23466141889E+02 -0.86607013128E+03  0.87396107399E+03  0.41800000000E+01 0. -1.
        -11    1    4    4    0    0  0.18422883878E+02  0.32004466486E+02 -0.12191202557E+03  0.12738222209E+03  0.00000000000E+00 0.  1.
         11    1    4    4    0    0  0.69728002294E+02  0.76730017569E+01 -0.36647038466E+02  0.79144644090E+02  0.00000000000E+00 0. -1.
</event>
<event>
 8    1  0.6849590E-009  0.8213221E+02  0.7561462E-02  0.1323107E+00
         -4   -1    0    0    0  501 -0.00000000000E+00  0.00000000000E+00  0.62138976506E+02  0.62138976506E+02  0.00000000000E+00 0.  1.
          4   -1    0    0  501    0  0.00000000000E+00 -0.00000000000E+00 -0.24816025370E+03  0.24816025370E+03  0.00000000000E+00 0. -1.
         25    2    1    2    0    0 -0.10734914490E+02 -0.30400960870E+02 -0.41387820093E+02  0.13564542033E+03  0.12508905465E+03 0.  0.
         23    2    1    2    0    0  0.10734914490E+02  0.30400960870E+02 -0.14463345710E+03  0.17465380987E+03  0.92442736764E+02 0.  0.
          5    1    3    3  502    0  0.26354647039E+02  0.73903439360E+01  0.33734061291E+02  0.43642226057E+02  0.41800000000E+01 0. -1.
         -5    1    3    3    0  502 -0.37089561528E+02 -0.37791304806E+02 -0.75121881384E+02  0.92003194271E+02  0.41800000000E+01 0. -1.
        -11    1    4    4    0    0  0.27697699627E+02  0.50233082089E+02 -0.13526605190E+03  0.14692661399E+03  0.00000000000E+00 0. -1.
         11    1    4    4    0    0 -0.16962785137E+02 -0.19832121219E+02 -0.93674051969E+01  0.27727195887E+02  0.00000000000E+00 0.  1.
</event>
<event>
 8    1  0.6849590E-009  0.1801961E+03  0.7561462E-02  0.1167613E+00
          2   -1    0    0  501    0  0.00000000000E+00  0.00000000000E+00  0.77458195607E+03  0.77458195607E+03  0.00000000000E+00 0. -1.
         -2   -1    0    0    0  501 -0.00000000000E+00 -0.00000000000E+00 -0.44557348503E+02  0.44557348503E+02  0.00000000000E+00 0.  1.
         25    2    1    2    0    0 -0.30048754742E+02 -0.14449152716E+03  0.45316276683E+03  0.49273244898E+03  0.12509214187E+03 0.  0.
         23    2    1    2    0    0  0.30048754742E+02  0.14449152716E+03  0.27686184073E+03  0.32640685558E+03  0.90045696389E+02 0.  0.
          5    1    3    3  502    0 -0.45091293445E+02 -0.24418261065E+01  0.16444417131E+03  0.17058295676E+03  0.41800000000E+01 0.  1.
         -5    1    3    3    0  502  0.15042538702E+02 -0.14204970105E+03  0.28871859552E+03  0.32214949222E+03  0.41800000000E+01 0.  1.
        -11    1    4    4    0    0 -0.18565635791E+02  0.11231356061E+03  0.19706560877E+03  0.22758267265E+03  0.00000000000E+00 0.  1.
         11    1    4    4    0    0  0.48614390534E+02  0.32177966546E+02  0.79796231955E+02  0.98824182932E+02  0.00000000000E+00 0. -1.
</event>
<event>
 8    1  0.6849590E-009  0.1519253E+03  0.7561462E-02  0.1198127E+00
          3   -1    0    0  501    0  0.00000000000E+00  0.00000000000E+00  0.29166831123E+03  0.29166831123E+03  0.00000000000E+00 0. -1.
         -3   -1    0    0    0  501 -0.00000000000E+00 -0.00000000000E+00 -0.13016844081E+03  0.13016844081E+03  0.00000000000E+00 0.  1.
         25    2    1    2    0    0  0.48677282960E+02  0.12359940896E+03  0.18318065741E+03  0.25855573460E+03  0.12509845273E+03 0.  0.
         23    2    1    2    0    0 -0.48677282960E+02 -0.12359940896E+03 -0.21680786991E+02  0.16328101745E+03  0.92435611987E+02 0.  0.
          5    1    3    3  502    0  0.72768171389E+02  0.39738333219E+02  0.43275235449E+02  0.93619230382E+02  0.41800000000E+01 0. -1.
         -5    1    3    3    0  502 -0.24090888429E+02  0.83861075738E+02  0.13990542196E+03  0.16493650422E+03  0.41800000000E+01 0. -1.
        -11    1    4    4    0    0 -0.20402395139E+02 -0.35382996458E+02  0.35755438518E+02  0.54283197670E+02  0.00000000000E+00 0.  1.
         11    1    4    4    0    0 -0.28274887820E+02 -0.88216412499E+02 -0.57436225509E+02  0.10899781978E+03  0.00000000000E+00 0. -1.
</event>
<event>
 8    1  0.6849590E-009  0.9597883E+02  0.7561462E-02  0.1288987E+00
         -1   -1    0    0    0  501 -0.00000000000E+00  0.00000000000E+00  0.21599611030E+03  0.21599611030E+03  0.00000000000E+00 0.  1.
          1   -1    0    0  501    0  0.00000000000E+00 -0.00000000000E+00 -0.91669614572E+02  0.91669614572E+02  0.00000000000E+00 0. -1.
         25    2    1    2    0    0  0.80761764595E+02  0.29048531551E+02  0.39105986597E+02  0.15666145876E+03  0.12508898699E+03 0.  0.
         23    2    1    2    0    0 -0.80761764595E+02 -0.29048531551E+02  0.85220509131E+02  0.15100426611E+03  0.90407264101E+02 0.  0.
          5    1    3    3  502    0  0.53560805486E+02 -0.31161782891E+01  0.80907281154E+02  0.97169599130E+02  0.41800000000E+01 0.  1.
         -5    1    3    3    0  502  0.27200959109E+02  0.32164709840E+02 -0.41801294556E+02  0.59491859629E+02  0.41800000000E+01 0.  1.
        -11    1    4    4    0    0 -0.58781486838E+02  0.74758825986E+00  0.95886491084E+02  0.11247240219E+03  0.00000000000E+00 0.  1.
         11    1    4    4    0    0 -0.21980277757E+02 -0.29796119811E+02 -0.10665981953E+02  0.38531863919E+02  0.00000000000E+00 0. -1.
</event>
<event>
 8    1  0.6849590E-009  0.1137503E+03  0.7561462E-02  0.1253778E+00
         -2   -1    0    0    0  501 -0.00000000000E+00  0.00000000000E+00  0.10064217853E+02  0.10064217853E+02  0.00000000000E+00 0.  1.
          2   -1    0    0  501    0  0.00000000000E+00 -0.00000000000E+00 -0.20143390300E+04  0.20143390300E+04  0.00000000000E+00 0. -1.
         25    2    1    2    0    0 -0.48248460440E+02 -0.21214729000E+01 -0.16172212778E+04  0.16227705475E+04  0.12508866346E+03 0.  0.
         23    2    1    2    0    0  0.48248460440E+02  0.21214729000E+01 -0.38705353433E+03  0.40163270038E+03  0.95739088146E+02 0.  0.
          5    1    3    3  502    0  0.47110273376E+01 -0.49111690926E+02 -0.10447331311E+04  0.10459057986E+04  0.41800000000E+01 0.  1.
         -5    1    3    3    0  502 -0.52959487777E+02  0.46990218026E+02 -0.57248814680E+03  0.57686474893E+03  0.41800000000E+01 0.  1.
        -11    1    4    4    0    0 -0.15952256397E+02  0.32374122380E+02 -0.14130133807E+03  0.14583767148E+03  0.00000000000E+00 0. -1.
         11    1    4    4    0    0  0.64200716836E+02 -0.30252649480E+02 -0.24575219626E+03  0.25579502890E+03  0.00000000000E+00 0.  1.
</event>
<event>
 8    1  0.6849590E-009  0.1283693E+03  0.7561462E-02  0.1229896E+00
         -2   -1    0    0    0  501 -0.00000000000E+00  0.00000000000E+00  0.14587799005E+02  0.14587799005E+02  0.00000000000E+00 0.  1.
          2   -1    0    0  501    0  0.00000000000E+00 -0.00000000000E+00 -0.15674126407E+04  0.15674126407E+04  0.00000000000E+00 0. -1.
         25    2    1    2    0    0  0.30605442625E+02 -0.77727299556E+02 -0.11587577238E+04  0.11684767033E+04  0.12506045576E+03 0.  0.
         23    2    1    2    0    0 -0.30605442625E+02  0.77727299556E+02 -0.39406711788E+03  0.41352373633E+03  0.93459942784E+02 0.  0.
          5    1    3    3  502    0 -0.41641259236E+02 -0.63950468924E+02 -0.62683482735E+03  0.63147686428E+03  0.41800000000E+01 0.  1.
         -5    1    3    3    0  502  0.72246701861E+02 -0.13776830631E+02 -0.53192289643E+03  0.53699983905E+03  0.41800000000E+01 0.  1.
        -11    1    4    4    0    0  0.19956394170E+02  0.10575180469E+02 -0.20126807960E+02  0.30251950497E+02  0.00000000000E+00 0.  1.
         11    1    4    4    0    0 -0.50561836795E+02  0.67152119087E+02 -0.37394030992E+03  0.38327178584E+03  0.00000000000E+00 0. -1.
</event>
<event>
 8    1  0.6849590E-009  0.9192593E+02  0.7561462E-02  0.1298254E+00
         -3   -1    0    0    0  501 -0.00000000000E+00  0.00000000000E+00  0.79747399397E+02  0.79747399397E+02  0.00000000000E+00 0.  1.
          3   -1    0    0  501    0  0.00000000000E+00 -0.00000000000E+00 -0.16429576450E+03  0.16429576450E+03  0.00000000000E+00 0. -1.
         25    2    1    2    0    0  0.49664172306E+01 -0.16729511271E+02 -0.35544928939E+02  0.13120749729E+03  0.12508966194E+03 0.  0.
         23    2    1    2    0    0 -0.49664172306E+01  0.16729511271E+02 -0.49003436159E+02  0.11283566660E+03  0.10012996082E+03 0.  0.
          5    1    3    3  502    0 -0.58546498568E+02 -0.18121616289E+02 -0.84169535269E+01  0.62003249739E+02  0.41800000000E+01 0.  1.
         -5    1    3    3    0  502  0.63512915798E+02  0.13921050180E+01 -0.27127975412E+02  0.69204247554E+02  0.41800000000E+01 0.  1.
        -11    1    4    4    0    0 -0.30036374793E+02  0.30316807065E+01  0.21301823357E+02  0.36947835889E+02  0.00000000000E+00 0.  1.
         11    1    4    4    0    0  0.25069957562E+02  0.13697830564E+02 -0.70305259516E+02  0.75887830711E+02  0.00000000000E+00 0. -1.
</event>
<event>
 8    1  0.6849590E-009  0.8576071E+02  0.7561462E-02  0.1313455E+00
          2   -1    0    0  501    0  0.00000000000E+00  0.00000000000E+00  0.38040101620E+03  0.38040101620E+03  0.00000000000E+00 0. -1.
         -2   -1    0    0    0  501 -0.00000000000E+00 -0.00000000000E+00 -0.37565689890E+02  0.37565689890E+02  0.00000000000E+00 0.  1.
         25    2    1    2    0    0  0.44397433498E+02 -0.15018466540E+02  0.22393732413E+03  0.26075929846E+03  0.12510315805E+03 0.  0.
         23    2    1    2    0    0 -0.44397433498E+02  0.15018466540E+02  0.11889800218E+03  0.15720740763E+03  0.91546423491E+02 0.  0.
          5    1    3    3  502    0 -0.34800648395E+02 -0.25467154334E+02  0.13181688762E+03  0.13875455070E+03  0.41800000000E+01 0.  1.
         -5    1    3    3    0  502  0.79198081893E+02  0.10448687794E+02  0.92120436507E+02  0.12200474775E+03  0.41800000000E+01 0.  1.
        -11    1    4    4    0    0 -0.12613052525E+02  0.98423580579E+01 -0.13509782019E+02  0.20939802204E+02  0.00000000000E+00 0.  1.
         11    1    4    4    0    0 -0.31784380973E+02  0.51761084823E+01  0.13240778420E+03  0.13626760543E+03  0.00000000000E+00 0. -1.
</event>
<event>
 8    1  0.6849590E-009  0.1054354E+03  0.7561462E-02  0.1269264E+00
         -2   -1    0    0    0  501 -0.00000000000E+00  0.00000000000E+00  0.24869259775E+03  0.24869259775E+03  0.00000000000E+00 0.  1.
          2   -1    0    0  501    0  0.00000000000E+00 -0.00000000000E+00 -0.68014474135E+02  0.68014474135E+02  0.00000000000E+00 0. -1.
         25    2    1    2    0    0  0.44971497355E+02  0.26034389342E+02  0.16202092699E+03  0.21118587269E+03  0.12509383293E+03 0.  0.
         23    2    1    2    0    0 -0.44971497355E+02 -0.26034389342E+02  0.18657196619E+02  0.10552119919E+03  0.89924454355E+02 0.  0.
          5    1    3    3  502    0  0.82492813760E+01 -0.36689253142E+02  0.50740086149E+01  0.38175514440E+02  0.41800000000E+01 0.  1.
         -5    1    3    3    0  502  0.36722215979E+02  0.62723642484E+02  0.15694691838E+03  0.17301035825E+03  0.41800000000E+01 0.  1.
        -11    1    4    4    0    0 -0.52017825802E+02 -0.51865190524E+02  0.25722697921E+02  0.77830003068E+02  0.00000000000E+00 0.  1.
         11    1    4    4    0    0  0.70463284471E+01  0.25830801182E+02 -0.70655013020E+01  0.27691196126E+02  0.00000000000E+00 0. -1.
</event>
<event>
 8    1  0.6849590E-009  0.1272978E+03  0.7561462E-02  0.1231521E+00
         -2   -1    0    0    0  501 -0.00000000000E+00  0.00000000000E+00  0.18516100585E+02  0.18516100585E+02  0.00000000000E+00 0.  1.
          2   -1    0    0  501    0  0.00000000000E+00 -0.00000000000E+00 -0.12450173593E+04  0.12450173593E+04  0.00000000000E+00 0. -1.
         25    2    1    2    0    0 -0.60566029282E+02 -0.67172204165E+02 -0.92522346035E+03  0.93801140429E+03  0.12508634644E+03 0.  0.
         23    2    1    2    0    0  0.60566029282E+02  0.67172204165E+02 -0.30127779831E+03  0.32552205555E+03  0.83761255833E+02 0.  0.
          5    1    3    3  502    0 -0.87480328196E+02 -0.84366801276E+01 -0.59875112669E+03  0.60518126996E+03  0.41800000000E+01 0. -1.
         -5    1    3    3    0  502  0.26914298915E+02 -0.58735524038E+02 -0.32647233367E+03  0.33283013433E+03  0.41800000000E+01 0. -1.
        -11    1    4    4    0    0 -0.39635719405E+01  0.23771803252E+02 -0.13928361226E+02  0.27835369206E+02  0.00000000000E+00 0.  1.
         11    1    4    4    0    0  0.64529601222E+02  0.43400400913E+02 -0.28734943709E+03  0.29768668634E+03  0.00000000000E+00 0. -1.
</event>
<event>
 8    1  0.6849590E-009  0.3038950E+03  0.7561462E-02  0.1083310E+00
         -2   -1    0    0    0  501 -0.00000000000E+00  0.00000000000E+00  0.41572130676E+03  0.41572130676E+03  0.00000000000E+00 0.  1.
          2   -1    0    0  501    0  0.00000000000E+00 -0.00000000000E+00 -0.25440874727E+03  0.25440874727E+03  0.00000000000E+00 0. -1.
         25    2    1    2    0    0 -0.26689358368E+03 -0.14424186409E+03  0.39695496179E+02  0.33054693921E+03  0.12509055215E+03 0.  0.
         23    2    1    2    0    0  0.26689358368E+03  0.14424186409E+03  0.12161706332E+03  0.33958311482E+03  0.92130784269E+02 0.  0.
          5    1    3    3  502    0 -0.14946369733E+03 -0.68216340660E+02  0.82904356150E+02  0.18407463329E+03  0.41800000000E+01 0.  1.
         -5    1    3    3    0  502 -0.11742988635E+03 -0.76025523430E+02 -0.43208859971E+02  0.14647230592E+03  0.41800000000E+01 0.  1.
        -11    1    4    4    0    0  0.78077775107E+02  0.37994531791E+02  0.81809734766E+02  0.11930027709E+03  0.00000000000E+00 0. -1.
         11    1    4    4    0    0  0.18881580858E+03  0.10624733230E+03  0.39807328552E+02  0.22028283772E+03  0.00000000000E+00 0.  1.
</event>
<event>
 8    1  0.6849590E-009  0.1639605E+03  0.7561462E-02  0.1184297E+00
         -2   -1    0    0    0  501 -0.00000000000E+00  0.00000000000E+00  0.37228000971E+02  0.37228000971E+02  0.00000000000E+00 0.  1.
          2   -1    0    0  501    0  0.00000000000E+00 -0.00000000000E+00 -0.91481364850E+03  0.91481364850E+03  0.00000000000E+00 0. -1.
         25    2    1    2    0    0 -0.98460299306E+02 -0.73017704390E+02 -0.67131818366E+03  0.69378598320E+03  0.12507945910E+03 0.  0.
         23    2    1    2    0    0  0.98460299306E+02  0.73017704390E+02 -0.20626746387E+03  0.25825566627E+03  0.95518096787E+02 0.  0.
          5    1    3    3  502    0 -0.12187921135E+03 -0.32937429519E+02 -0.43768843306E+03  0.45555247036E+03  0.41800000000E+01 0. -1.
         -5    1    3    3    0  502  0.23418912042E+02 -0.40080274871E+02 -0.23362975060E+03  0.23823351284E+03  0.41800000000E+01 0. -1.
        -11    1    4    4    0    0  0.87684785454E+02  0.68491974440E+01 -0.10768950605E+03  0.13904158665E+03  0.00000000000E+00 0.  1.
         11    1    4    4    0    0  0.10775513852E+02  0.66168506946E+02 -0.98577957822E+02  0.11921407962E+03  0.00000000000E+00 0. -1.
</event>
<event>
 8    1  0.6849590E-009  0.1330006E+03  0.7561462E-02  0.1223070E+00
          1   -1    0    0  501    0  0.00000000000E+00  0.00000000000E+00  0.29391610764E+03  0.29391610764E+03  0.00000000000E+00 0. -1.
         -1   -1    0    0    0  501 -0.00000000000E+00 -0.00000000000E+00 -0.12264291566E+03  0.12264291566E+03  0.00000000000E+00 0.  1.
         25    2    1    2    0    0  0.10724092901E+03 -0.31273949364E+02 -0.28147393459E+02  0.17005638381E+03  0.12509285012E+03 0.  0.
         23    2    1    2    0    0 -0.10724092901E+03  0.31273949364E+02  0.19942058545E+03  0.24650263949E+03  0.92283826391E+02 0.  0.
          5    1    3    3  502    0  0.83609749471E+02 -0.54710069138E+02  0.28706560866E+02  0.10404480241E+03  0.41800000000E+01 0. -1.
         -5    1    3    3    0  502  0.23631179538E+02  0.23436119774E+02 -0.56853954325E+02  0.66011581400E+02  0.41800000000E+01 0. -1.
        -11    1    4    4    0    0 -0.49618595656E+02 -0.21721253348E+02  0.13381283140E+03  0.14435959175E+03  0.00000000000E+00 0. -1.
         11    1    4    4    0    0 -0.57622333353E+02  0.52995202713E+02  0.65607754042E+02  0.10214304774E+03  0.00000000000E+00 0.  1.
</event>
<event>
 8    1  0.6849590E-009  0.9009571E+02  0.7561462E-02  0.1302620E+00
          1   -1    0    0  501    0  0.00000000000E+00  0.00000000000E+00  0.64641069020E+02  0.64641069020E+02  0.00000000000E+00 0. -1.
         -1   -1    0    0    0  501 -0.00000000000E+00 -0.00000000000E+00 -0.19802975370E+03  0.19802975370E+03  0.00000000000E+00 0.  1.
         25    2    1    2    0    0 -0.16172845198E+01 -0.52788596278E+00 -0.10593246173E+03  0.16392291311E+03  0.12508453431E+03 0.  0.
         23    2    1    2    0    0  0.16172845198E+01  0.52788596278E+00 -0.27456222949E+02  0.98747909604E+02  0.94838869667E+02 0.  0.
          5    1    3    3  502    0  0.20814864804E+02 -0.39806059356E+02 -0.10942866932E+03  0.11836336860E+03  0.41800000000E+01 0. -1.
         -5    1    3    3    0  502 -0.22432149323E+02  0.39278173393E+02  0.34962075905E+01  0.45559544509E+02  0.41800000000E+01 0. -1.
        -11    1    4    4    0    0  0.44411201658E+02  0.10665979629E+02  0.21630942199E+01  0.45725232976E+02  0.00000000000E+00 0. -1.
         11    1    4    4    0    0 -0.42793917138E+02 -0.10138093666E+02 -0.29619317169E+02  0.53022676628E+02  0.00000000000E+00 0.  1.
</event>
<event>
 8    1  0.6849590E-009  0.1141483E+03  0.7561462E-02  0.1253075E+00
          2   -1    0    0  501    0  0.00000000000E+00  0.00000000000E+00  0.11125893272E+04  0.11125893272E+04  0.00000000000E+00 0.  1.
         -2   -1    0    0    0  501 -0.00000000000E+00 -0.00000000000E+00 -0.13236971746E+02  0.13236971746E+02  0.00000000000E+00 0. -1.
         25    2    1    2    0    0  0.12303736065E+02 -0.37240296344E+02  0.80696098194E+03  0.81754023790E+03  0.12509113725E+03 0.  0.
         23    2    1    2    0    0 -0.12303736065E+02  0.37240296344E+02  0.29239137352E+03  0.30828606105E+03  0.89495019622E+02 0.  0.
          5    1    3    3  502    0 -0.39893761501E+02 -0.61292317218E+02  0.47500166211E+03  0.48061659539E+03  0.41800000000E+01 0.  1.
         -5    1    3    3    0  502  0.52197497566E+02  0.24052020873E+02  0.33195931983E+03  0.33692364251E+03  0.41800000000E+01 0.  1.
        -11    1    4    4    0    0 -0.50363397488E+02  0.30175705449E+02  0.16440935331E+03  0.17457800681E+03  0.00000000000E+00 0. -1.
         11    1    4    4    0    0  0.38059661424E+02  0.70645908955E+01  0.12798202021E+03  0.13370805424E+03  0.00000000000E+00 0.  1.
</event>
<event>
 8    1  0.6849590E-009  0.1143215E+03  0.7561462E-02  0.1252770E+00
          2   -1    0    0  501    0  0.00000000000E+00  0.00000000000E+00  0.11465905049E+03  0.11465905049E+03  0.00000000000E+00 0. -1.
         -2   -1    0    0    0  501 -0.00000000000E+00 -0.00000000000E+00 -0.14117661231E+03  0.14117661231E+03  0.00000000000E+00 0.  1.
         25    2    1    2    0    0  0.30109543313E+02  0.24661618737E+02  0.39339099306E+02  0.13678420819E+03  0.12509026676E+03 0.  0.
         23    2    1    2    0    0 -0.30109543313E+02 -0.24661618737E+02 -0.65856661132E+02  0.11905145461E+03  0.91221537979E+02 0.  0.
          5    1    3    3  502    0 -0.44261700384E+02  0.32162166340E+02  0.26076374627E+02  0.60753212082E+02  0.41800000000E+01 0.  1.
         -5    1    3    3    0  502  0.74371243697E+02 -0.75005476022E+01  0.13262724679E+02  0.76030996108E+02  0.41800000000E+01 0.  1.
        -11    1    4    4    0    0 -0.62923522736E+02 -0.17627571465E+02 -0.39280427268E+02  0.76243379749E+02  0.00000000000E+00 0. -1.
         11    1    4    4    0    0  0.32813979423E+02 -0.70340472725E+01 -0.26576233863E+02  0.42808074857E+02  0.00000000000E+00 0.  1.
</event>
<event>
 8    1  0.6849590E-009  0.1388043E+03  0.7561462E-02  0.1214947E+00
         -3   -1    0    0    0  501 -0.00000000000E+00  0.00000000000E+00  0.20269217538E+03  0.20269217538E+03  0.00000000000E+00 0.  1.
          3   -1    0    0  501    0  0.00000000000E+00 -0.00000000000E+00 -0.13685296343E+03  0.13685296343E+03  0.00000000000E+00 0. -1.
         25    2    1    2    0    0  0.69518624045E+02 -0.86413883604E+02 -0.24915474057E+02  0.16902174902E+03  0.12508945769E+03 0.  0.
         23    2    1    2    0    0 -0.69518624045E+02  0.86413883604E+02  0.90754686007E+02  0.17052338980E+03  0.92420858400E+02 0.  0.
          5    1    3    3  502    0  0.38341823055E+02 -0.11474737676E+03 -0.33964742425E+02  0.12573039408E+03  0.41800000000E+01 0.  1.
         -5    1    3    3    0  502  0.31176800990E+02  0.28333493152E+02  0.90492683678E+01  0.43291354936E+02  0.41800000000E+01 0.  1.
        -11    1    4    4    0    0 -0.42847438295E+02  0.72298748219E+02  0.10715333110E+03  0.13617947102E+03  0.00000000000E+00 0.  1.
         11    1    4    4    0    0 -0.26671185751E+02  0.14115135386E+02 -0.16398645089E+02  0.34343918778E+02  0.00000000000E+00 0. -1.
</event>
<event>
 8    1  0.6849590E-009  0.1537750E+03  0.7561462E-02  0.1195910E+00
         -2   -1    0    0    0  501 -0.00000000000E+00  0.00000000000E+00  0.29465694446E+02  0.29465694446E+02  0.00000000000E+00 0.  1.
          2   -1    0    0  501    0  0.00000000000E+00 -0.00000000000E+00 -0.10199360546E+04  0.10199360546E+04  0.00000000000E+00 0. -1.
         25    2    1    2    0    0  0.10858435779E+03  0.49387293304E+02 -0.71314229912E+03  0.73378373857E+03  0.12504786561E+03 0.  0.
         23    2    1    2    0    0 -0.10858435779E+03 -0.49387293304E+02 -0.27732806102E+03  0.31561801047E+03  0.92055459396E+02 0.  0.
          5    1    3    3  502    0  0.14589500758E+02  0.64666662315E+02 -0.42818339745E+03  0.43330488689E+03  0.41800000000E+01 0.  1.
         -5    1    3    3    0  502  0.93994857034E+02 -0.15279369012E+02 -0.28495890167E+03  0.30047885168E+03  0.41800000000E+01 0.  1.
        -11    1    4    4    0    0 -0.43021341435E+02 -0.65431944755E+02 -0.18799374552E+03  0.20365123022E+03  0.00000000000E+00 0. -1.
         11    1    4    4    0    0 -0.65563016357E+02  0.16044651452E+02 -0.89334315501E+02  0.11196678025E+03  0.00000000000E+00 0.  1.
</event>
<event>
 8    1  0.6849590E-009  0.1807249E+03  0.7561462E-02  0.1167103E+00
         -1   -1    0    0    0  501 -0.00000000000E+00  0.00000000000E+00  0.10461057210E+03  0.10461057210E+03  0.00000000000E+00 0.  1.
          1   -1    0    0  501    0  0.00000000000E+00 -0.00000000000E+00 -0.39797605675E+03  0.39797605675E+03  0.00000000000E+00 0. -1.
         25    2    1    2    0    0 -0.15444673828E+03 -0.71733677822E+02 -0.12654089976E+03  0.24629304725E+03  0.12509256698E+03 0.  0.
         23    2    1    2    0    0  0.15444673828E+03  0.71733677822E+02 -0.16682458489E+03  0.25629358159E+03  0.94108673052E+02 0.  0.
          5    1    3    3  502    0 -0.10791997266E+03 -0.53149138537E+02 -0.11709993076E+02  0.12093861155E+03  0.41800000000E+01 0. -1.
         -5    1    3    3    0  502 -0.46526765618E+02 -0.18584539285E+02 -0.11483090668E+03  0.12535443570E+03  0.41800000000E+01 0. -1.
        -11    1    4    4    0    0  0.31965529132E+02 -0.20063893831E+02 -0.55125916282E+02  0.66807346409E+02  0.00000000000E+00 0. -1.
         11    1    4    4    0    0  0.12248120915E+03  0.91797571653E+02 -0.11169866861E+03  0.18948623518E+03  0.00000000000E+00 0.  1.
</event>
<event>
 8    1  0.6849590E-009  0.1152949E+03  0.7561462E-02  0.1251067E+00
         -2   -1    0    0    0  501 -0.00000000000E+00  0.00000000000E+00  0.11838458283E+03  0.11838458283E+03  0.00000000000E+00 0.  1.
          2   -1    0    0  501    0  0.00000000000E+00 -0.00000000000E+00 -0.15260475772E+03  0.15260475772E+03  0.00000000000E+00 0. -1.
         25    2    1    2    0    0 -0.14113703790E+02 -0.76836816619E+02 -0.33558600391E+02  0.15124997678E+03  0.12508909942E+03 0.  0.
         23    2    1    2    0    0  0.14113703790E+02  0.76836816619E+02 -0.66157449665E+00  0.11973936378E+03  0.90741305559E+02 0.  0.
          5    1    3    3  502    0 -0.69783000028E+02 -0.39692703181E+02 -0.19950027151E+02  0.82829063511E+02  0.41800000000E+01 0.  1.
         -5    1    3    3    0  502  0.55669296238E+02 -0.37144113437E+02 -0.13608573240E+02  0.68420913267E+02  0.41800000000E+01 0.  1.
        -11    1    4    4    0    0  0.11745661800E+02  0.78713590307E+01  0.38067076175E+02  0.40608141457E+02  0.00000000000E+00 0.  1.
         11    1    4    4    0    0  0.23680419904E+01  0.68965457588E+02 -0.38728650672E+02  0.79131222321E+02  0.00000000000E+00 0. -1.
</event>
<event>
 8    1  0.6849590E-009  0.9799066E+02  0.7561462E-02  0.1284579E+00
          2   -1    0    0  501    0  0.00000000000E+00  0.00000000000E+00  0.61645598471E+03  0.61645598471E+03  0.00000000000E+00 0. -1.
         -2   -1    0    0    0  501 -0.00000000000E+00 -0.00000000000E+00 -0.34979716749E+02  0.34979716749E+02  0.00000000000E+00 0.  1.
         25    2    1    2    0    0 -0.76887334010E+02 -0.59443601126E+02  0.27201546867E+03  0.31477740931E+03  0.12508876197E+03 0.  0.
         23    2    1    2    0    0  0.76887334010E+02  0.59443601126E+02  0.30946079929E+03  0.33665829214E+03  0.90153289050E+02 0.  0.
          5    1    3    3  502    0 -0.14306969614E+02 -0.95563547630E+01 -0.10858689422E+02  0.20770094652E+02  0.41800000000E+01 0.  1.
         -5    1    3    3    0  502 -0.62580364396E+02 -0.49887246363E+02  0.28287415809E+03  0.29400731466E+03  0.41800000000E+01 0.  1.
        -11    1    4    4    0    0  0.39299173239E+02  0.21810655208E+02  0.26055313066E+03  0.26440133055E+03  0.00000000000E+00 0. -1.
         11    1    4    4    0    0  0.37588160771E+02  0.37632945918E+02  0.48907668630E+02  0.72256961599E+02  0.00000000000E+00 0.  1.
</event>
<event>
 8    1  0.6849590E-009  0.1511794E+03  0.7561462E-02  0.1199031E+00
         -3   -1    0    0    0  501 -0.00000000000E+00  0.00000000000E+00  0.34268732802E+03  0.34268732802E+03  0.00000000000E+00 0.  1.
          3   -1    0    0  501    0  0.00000000000E+00 -0.00000000000E+00 -0.84841122541E+02  0.84841122541E+02  0.00000000000E+00 0. -1.
         25    2    1    2    0    0  0.11013582175E+03  0.29006700307E+02  0.21628969830E+03  0.27459114661E+03  0.12509107207E+03 0.  0.
         23    2    1    2    0    0 -0.11013582175E+03 -0.29006700307E+02  0.41556507175E+02  0.15293730394E+03  0.93228685248E+02 0.  0.
          5    1    3    3  502    0  0.12240938662E+03 -0.17407251805E+01  0.11526524034E+03  0.16819820477E+03  0.41800000000E+01 0. -1.
         -5    1    3    3    0  502 -0.12273564865E+02  0.30747425488E+02  0.10102445796E+03  0.10639294184E+03  0.41800000000E+01 0. -1.
        -11    1    4    4    0    0 -0.94770583243E+02  0.18506341131E+02  0.34328284142E+02  0.10248111632E+03  0.00000000000E+00 0.  1.
         11    1    4    4    0    0 -0.15365238510E+02 -0.47513041438E+02  0.72282230330E+01  0.50456187622E+02  0.00000000000E+00 0. -1.
</event>
<event>
 8    1  0.6849590E-009  0.7028792E+02  0.7561462E-02  0.1359117E+00
          1   -1    0    0  501    0  0.00000000000E+00  0.00000000000E+00  0.31028047772E+03  0.31028047772E+03  0.00000000000E+00 0. -1.
         -1   -1    0    0    0  501 -0.00000000000E+00 -0.00000000000E+00 -0.45561058639E+02  0.45561058639E+02  0.00000000000E+00 0.  1.
         25    2    1    2    0    0 -0.34919558879E+02 -0.23594216013E+02  0.12261877739E+03  0.18015768123E+03  0.12508142514E+03 0.  0.
         23    2    1    2    0    0  0.34919558879E+02  0.23594216013E+02  0.14210064168E+03  0.17568385513E+03  0.94319467575E+02 0.  0.
          5    1    3    3  502    0 -0.52892160030E+01 -0.24508179528E+02 -0.21296930514E+02  0.33161096469E+02  0.41800000000E+01 0. -1.
         -5    1    3    3    0  502 -0.29630342876E+02  0.91396351489E+00  0.14391570791E+03  0.14699658476E+03  0.41800000000E+01 0. -1.
        -11    1    4    4    0    0  0.29883919446E+02 -0.23400678439E+02  0.11521983949E+03  0.12131055933E+03  0.00000000000E+00 0.  1.
         11    1    4    4    0    0  0.50356394332E+01  0.46994894452E+02  0.26880802191E+02  0.54373295794E+02  0.00000000000E+00 0. -1.
</event>
<event>
 8    1  0.6849590E-009  0.1210614E+03  0.7561462E-02  0.1241356E+00
         -2   -1    0    0    0  501 -0.00000000000E+00  0.00000000000E+00  0.92571639993E+02  0.92571639993E+02  0.00000000000E+00 0.  1.
          2   -1    0    0  501    0  0.00000000000E+00 -0.00000000000E+00 -0.29574627107E+03  0.29574627107E+03  0.00000000000E+00 0. -1.
         25    2    1    2    0    0  0.12896010676E+01 -0.79386347721E+02  0.41537233533E+01  0.14821817179E+03  0.12509003860E+03 0.  0.
         23    2    1    2    0    0 -0.12896010676E+01  0.79386347721E+02 -0.20732835443E+03  0.24009973927E+03  0.91427473836E+02 0.  0.
          5    1    3    3  502    0 -0.44896192495E+02 -0.20837358943E+02 -0.37920942465E+02  0.62492670816E+02  0.41800000000E+01 0. -1.
         -5    1    3    3    0  502  0.46185793562E+02 -0.58548988778E+02  0.42074665818E+02  0.85725500976E+02  0.41800000000E+01 0. -1.
        -11    1    4    4    0    0 -0.14490994475E+02  0.95690758871E+02 -0.18857655672E+03  0.21196185505E+03  0.00000000000E+00 0. -1.
         11    1    4    4    0    0  0.13201393407E+02 -0.16304411150E+02 -0.18751797715E+02  0.28137884220E+02  0.00000000000E+00 0.  1.
</event>
<event>
 8    1  0.6849590E-009  0.8200138E+02  0.7561462E-02  0.1323466E+00
         -3   -1    0    0    0  501 -0.00000000000E+00  0.00000000000E+00  0.77199908150E+02  0.77199908150E+02  0.00000000000E+00 0.  1.
          3   -1    0    0  501    0  0.00000000000E+00 -0.00000000000E+00 -0.18802343054E+03  0.18802343054E+03  0.00000000000E+00 0. -1.
         25    2    1    2    0    0  0.49837294687E+02  0.95904170264E+01 -0.83045675726E+02  0.15849347163E+03  0.12509142358E+03 0.  0.
         23    2    1    2    0    0 -0.49837294687E+02 -0.95904170264E+01 -0.27777846668E+02  0.10672986706E+03  0.89687924032E+02 0.  0.
          5    1    3    3  502    0  0.59657927540E+01 -0.13745692677E+02 -0.10344998837E+03  0.10461313132E+03  0.41800000000E+01 0. -1.
         -5    1    3    3    0  502  0.43871501933E+02  0.23336109703E+02  0.20404312643E+02  0.53880340314E+02  0.41800000000E+01 0. -1.
        -11    1    4    4    0    0 -0.31274820061E+02 -0.47209631265E+02 -0.38852605269E+00  0.56630509502E+02  0.00000000000E+00 0. -1.
         11    1    4    4    0    0 -0.18562474627E+02  0.37619214239E+02 -0.27389320615E+02  0.50099357560E+02  0.00000000000E+00 0.  1.
</event>
<event>
 8    1  0.6849590E-009  0.1569967E+03  0.7561462E-02  0.1192130E+00
          1   -1    0    0  501    0  0.00000000000E+00  0.00000000000E+00  0.16769693666E+03  0.16769693666E+03  0.00000000000E+00 0. -1.
         -1   -1    0    0    0  501 -0.00000000000E+00 -0.00000000000E+00 -0.16027364494E+03  0.16027364494E+03  0.00000000000E+00 0.  1.
         25    2    1    2    0    0  0.95990643558E+02 -0.72107531134E+02  0.15170610647E+02  0.17404495977E+03  0.12509117034E+03 0.  0.
         23    2    1    2    0    0 -0.95990643558E+02  0.72107531134E+02 -0.77473189330E+01  0.15392562183E+03  0.96017583844E+02 0.  0.
          5    1    3    3  502    0  0.23437504429E-01 -0.74760236149E+02 -0.76824402952E+01  0.75270085341E+02  0.41800000000E+01 0.  1.
         -5    1    3    3    0  502  0.95967206054E+02  0.26527050150E+01  0.22853050942E+02  0.98774874432E+02  0.41800000000E+01 0.  1.
        -11    1    4    4    0    0 -0.47351927382E+02 -0.92373192039E+01  0.24115362463E+02  0.53935923090E+02  0.00000000000E+00 0. -1.
         11    1    4    4    0    0 -0.48638716176E+02  0.81344850338E+02 -0.31862681396E+02  0.99989698737E+02  0.00000000000E+00 0.  1.
</event>
<event>
 8    1  0.6849590E-009  0.1894571E+03  0.7561462E-02  0.1158952E+00
         -2   -1    0    0    0  501 -0.00000000000E+00  0.00000000000E+00  0.71087228154E+02  0.71087228154E+02  0.00000000000E+00 0.  1.
          2   -1    0    0  501    0  0.00000000000E+00 -0.00000000000E+00 -0.63910151884E+03  0.63910151884E+03  0.00000000000E+00 0. -1.
         25    2    1    2    0    0  0.12652439877E+03 -0.10392032560E+03 -0.43356880905E+03  0.48003878137E+03  0.12508981526E+03 0.  0.
         23    2    1    2    0    0 -0.12652439877E+03  0.10392032560E+03 -0.13444548164E+03  0.23014996563E+03  0.89919750827E+02 0.  0.
          5    1    3    3  502    0  0.19371368905E+02  0.22253029099E+02 -0.23992980366E+02  0.38256799973E+02  0.41800000000E+01 0.  1.
         -5    1    3    3    0  502  0.10715302986E+03 -0.12617335470E+03 -0.40957582868E+03  0.44178198139E+03  0.41800000000E+01 0.  1.
        -11    1    4    4    0    0 -0.11171149745E+03  0.41173103023E+02 -0.10701936625E+03  0.16008693835E+03  0.00000000000E+00 0.  1.
         11    1    4    4    0    0 -0.14812901313E+02  0.62747222579E+02 -0.27426115387E+02  0.70063027282E+02  0.00000000000E+00 0. -1.
</event>
<event>
 8    1  0.6849590E-009  0.1458611E+03  0.7561462E-02  0.1205653E+00
          4   -1    0    0  501    0  0.00000000000E+00  0.00000000000E+00  0.10767494586E+04  0.10767494586E+04  0.00000000000E+00 0. -1.
         -4   -1    0    0    0  501 -0.00000000000E+00 -0.00000000000E+00 -0.53357628353E+02  0.53357628353E+02  0.00000000000E+00 0.  1.
         25    2    1    2    0    0 -0.12189149229E+03 -0.18083714690E+02  0.93936034872E+03  0.95563043602E+03  0.12508840423E+03 0.  0.
         23    2    1    2    0    0  0.12189149229E+03  0.18083714690E+02  0.84031481508E+02  0.17447665091E+03  0.90533171826E+02 0.  0.
          5    1    3    3  502    0 -0.64884496368E+02 -0.66027853904E+02  0.66025193077E+03  0.66672315082E+03  0.41800000000E+01 0.  1.
         -5    1    3    3    0  502 -0.57006995918E+02  0.47944139215E+02  0.27910841795E+03  0.28890728520E+03  0.41800000000E+01 0.  1.
        -11    1    4    4    0    0  0.85907046562E+02  0.20716327855E+02  0.10134092766E+03  0.13445880599E+03  0.00000000000E+00 0. -1.
         11    1    4    4    0    0  0.35984445724E+02 -0.26326131650E+01 -0.17309446154E+02  0.40017844923E+02  0.00000000000E+00 0.  1.
</event>
<event>
 8    1  0.6849590E-009  0.1461951E+03  0.7561462E-02  0.1205228E+00
          3   -1    0    0  501    0  0.00000000000E+00  0.00000000000E+00  0.27421081338E+03  0.27421081338E+03  0.00000000000E+00 0. -1.
         -3   -1    0    0    0  501 -0.00000000000E+00 -0.00000000000E+00 -0.87872848189E+02  0.87872848189E+02  0.00000000000E+00 0.  1.
         25    2    1    2    0    0 -0.75678140668E+02 -0.70839882401E+02  0.52946350288E+02  0.17087747766E+03  0.12510126477E+03 0.  0.
         23    2    1    2    0    0  0.75678140668E+02  0.70839882401E+02  0.13339161491E+03  0.19120618392E+03  0.89560102315E+02 0.  0.
          5    1    3    3  502    0 -0.63278060827E+02  0.19073261925E+02  0.44154618358E+02  0.79592744800E+02  0.41800000000E+01 0.  1.
         -5    1    3    3    0  502 -0.12400079841E+02 -0.89913144325E+02  0.87917319307E+01  0.91284732858E+02  0.41800000000E+01 0.  1.
        -11    1    4    4    0    0  0.82388722040E+01  0.67271319511E+02  0.81752203633E+02  0.10619195941E+03  0.00000000000E+00 0.  1.
         11    1    4    4    0    0  0.67439268464E+02  0.35685628897E+01  0.51639411273E+02  0.85014224508E+02  0.00000000000E+00 0. -1.
</event>
<event>
 8    1  0.6849590E-009  0.1513093E+03  0.7561462E-02  0.1198873E+00
          2   -1    0    0  501    0  0.00000000000E+00  0.00000000000E+00  0.49116436009E+03  0.49116436009E+03  0.00000000000E+00 0. -1.
         -2   -1    0    0    0  501 -0.00000000000E+00 -0.00000000000E+00 -0.54262139068E+02  0.54262139068E+02  0.00000000000E+00 0.  1.
         25    2    1    2    0    0  0.37861926757E+02  0.11247382633E+03  0.27985191691E+03  0.32870670002E+03  0.12508841725E+03 0.  0.
         23    2    1    2    0    0 -0.37861926757E+02 -0.11247382633E+03  0.15705030412E+03  0.21671979914E+03  0.90657521533E+02 0.  0.
          5    1    3    3  502    0 -0.37231358245E+02  0.41369573546E+00  0.60612508862E+02  0.71257938586E+02  0.41800000000E+01 0. -1.
         -5    1    3    3    0  502  0.75093285002E+02  0.11206013060E+03  0.21923940805E+03  0.25744876143E+03  0.41800000000E+01 0. -1.
        -11    1    4    4    0    0 -0.27314692201E+01 -0.86399011092E+02  0.14896526126E+03  0.17222920514E+03  0.00000000000E+00 0. -1.
         11    1    4    4    0    0 -0.35130457537E+02 -0.26074815240E+02  0.80850428547E+01  0.44490594001E+02  0.00000000000E+00 0.  1.
</event>
<event>
 7    1  0.6849590E-009  0.8228178E+02  0.7561462E-02  0.1322698E+00
          1   -1    0    0  501    0  0.00000000000E+00  0.00000000000E+00  0.35535808265E+02  0.35535808265E+02  0.00000000000E+00 0.  1.
         -1   -1    0    0    0  501 -0.00000000000E+00 -0.00000000000E+00 -0.33191593049E+03  0.33191593049E+03  0.00000000000E+00 0. -1.
         23    2    1    2    0    0  0.96658032493E+01  0.47286548602E+01 -0.97877489862E+02  0.13238312943E+03  0.88484473253E+02 0.  0.
          5    1    1    2  502    0  0.27490301707E+02  0.20534719170E+02 -0.33067502237E+01  0.34724607649E+02  0.41800000000E+01 0. -1.
         -5    1    1    2    0  502 -0.37156104957E+02 -0.25263374030E+02 -0.19519588214E+03  0.20034400167E+03  0.41800000000E+01 0. -1.
        -11    1    3    3    0    0  0.45041176793E+02 -0.10673525681E+02 -0.73120639493E+02  0.86540508880E+02  0.00000000000E+00 0. -1.
         11    1    3    3    0    0 -0.35375373543E+02  0.15402180541E+02 -0.24756850369E+02  0.45842620551E+02  0.00000000000E+00 0.  1.
</event>
<event>
 8    1  0.6849590E-009  0.1255248E+03  0.7561462E-02  0.1234251E+00
          2   -1    0    0  501    0  0.00000000000E+00  0.00000000000E+00  0.63771140206E+03  0.63771140206E+03  0.00000000000E+00 0. -1.
         -2   -1    0    0    0  501 -0.00000000000E+00 -0.00000000000E+00 -0.25866275206E+02  0.25866275206E+02  0.00000000000E+00 0.  1.
         25    2    1    2    0    0  0.80880172505E+01  0.67651706164E+02  0.34601192587E+03  0.37418508140E+03  0.12509217772E+03 0.  0.
         23    2    1    2    0    0 -0.80880172505E+01 -0.67651706164E+02  0.26583320098E+03  0.28939259586E+03  0.91861931324E+02 0.  0.
          5    1    3    3  502    0 -0.15247610885E+02 -0.31830933818E+02  0.13641841385E+03  0.14097217464E+03  0.41800000000E+01 0. -1.
         -5    1    3    3    0  502  0.23335628136E+02  0.99482639982E+02  0.20959351202E+03  0.23321290676E+03  0.41800000000E+01 0. -1.
        -11    1    4    4    0    0  0.37980543887E+02 -0.52391270180E+02  0.13143863151E+03  0.14650420048E+03  0.00000000000E+00 0.  1.
         11    1    4    4    0    0 -0.46068561138E+02 -0.15260435983E+02  0.13439456947E+03  0.14288839539E+03  0.00000000000E+00 0. -1.
</event>
<event>
 8    1  0.6849590E-009  0.1504666E+03  0.7561462E-02  0.1199901E+00
         -1   -1    0    0    0  501 -0.00000000000E+00  0.00000000000E+00  0.21177787189E+03  0.21177787189E+03  0.00000000000E+00 0.  1.
          1   -1    0    0  501    0  0.00000000000E+00 -0.00000000000E+00 -0.11232365339E+03  0.11232365339E+03  0.00000000000E+00 0. -1.
         25    2    1    2    0    0 -0.48154950550E+01 -0.10650623715E+03  0.23407144629E+02  0.16602010454E+03  0.12509201872E+03 0.  0.
         23    2    1    2    0    0  0.48154950550E+01  0.10650623715E+03  0.76047073875E+02  0.15808142073E+03  0.88542704900E+02 0.  0.
          5    1    3    3  502    0  0.52878945990E+02 -0.16354848325E+02 -0.33691005899E+01  0.55610136050E+02  0.41800000000E+01 0. -1.
         -5    1    3    3    0  502 -0.57694441045E+02 -0.90151388825E+02  0.26776245219E+02  0.11040996849E+03  0.41800000000E+01 0. -1.
        -11    1    4    4    0    0 -0.39101422671E+02  0.73921907083E+02  0.50829156235E+02  0.97862008590E+02  0.00000000000E+00 0. -1.
         11    1    4    4    0    0  0.43916917726E+02  0.32584330067E+02  0.25217917640E+02  0.60219412141E+02  0.00000000000E+00 0.  1.
</event>
<event>
 8    1  0.6849590E-009  0.3404422E+03  0.7561462E-02  0.1066608E+00
          1   -1    0    0  501    0  0.00000000000E+00  0.00000000000E+00  0.10339700800E+04  0.10339700800E+04  0.00000000000E+00 0. -1.
         -1   -1    0    0    0  501 -0.00000000000E+00 -0.00000000000E+00 -0.16204537944E+03  0.16204537944E+03  0.00000000000E+00 0.  1.
         25    2    1    2    0    0 -0.73936694831E+02  0.32472307321E+03  0.13168305958E+03  0.37933911790E+03  0.12508408799E+03 0.  0.
         23    2    1    2    0    0  0.73936694831E+02 -0.32472307321E+03  0.74024164095E+03  0.81667634151E+03  0.89949156036E+02 0.  0.
          5    1    3    3  502    0  0.18492424042E+02  0.48596223883E+02  0.59855686712E+02  0.79396085259E+02  0.41800000000E+01 0. -1.
         -5    1    3    3    0  502 -0.92429118874E+02  0.27612684933E+03  0.71827372867E+02  0.29994303264E+03  0.41800000000E+01 0. -1.
        -11    1    4    4    0    0  0.63243891676E+02 -0.15445552115E+03  0.28176646524E+03  0.32748837962E+03  0.00000000000E+00 0.  1.
         11    1    4    4    0    0  0.10692803155E+02 -0.17026755206E+03  0.45847517571E+03  0.48918796190E+03  0.00000000000E+00 0. -1.
</event>
<event>
 8    1  0.6849590E-009  0.9516553E+02  0.7561462E-02  0.1290804E+00
         -2   -1    0    0    0  501 -0.00000000000E+00  0.00000000000E+00  0.25829717907E+02  0.25829717907E+02  0.00000000000E+00 0.  1.
          2   -1    0    0  501    0  0.00000000000E+00 -0.00000000000E+00 -0.51129964358E+03  0.51129964358E+03  0.00000000000E+00 0. -1.
         25    2    1    2    0    0  0.55908839508E+00 -0.40505465539E+02 -0.27837466192E+03  0.30785726146E+03  0.12507052296E+03 0.  0.
         23    2    1    2    0    0 -0.55908839508E+00  0.40505465539E+02 -0.20709526375E+03  0.22927210003E+03  0.89645090586E+02 0.  0.
          5    1    3    3  502    0  0.49704288568E+02 -0.25609806323E+02 -0.23152914692E+03  0.23822173863E+03  0.41800000000E+01 0. -1.
         -5    1    3    3    0  502 -0.49145200173E+02 -0.14895659215E+02 -0.46845514998E+02  0.69635522823E+02  0.41800000000E+01 0. -1.
        -11    1    4    4    0    0 -0.33104825310E+02  0.37548818507E+02 -0.17996817884E+03  0.18680039782E+03  0.00000000000E+00 0. -1.
         11    1    4    4    0    0  0.32545736915E+02  0.29566470312E+01 -0.27127084908E+02  0.42471702210E+02  0.00000000000E+00 0.  1.
</event>
<event>
 8    1  0.6849590E-009  0.1290331E+03  0.7561462E-02  0.1228898E+00
          1   -1    0    0  501    0  0.00000000000E+00  0.00000000000E+00  0.39724165683E+03  0.39724165683E+03  0.00000000000E+00 0. -1.
         -1   -1    0    0    0  501 -0.00000000000E+00 -0.00000000000E+00 -0.54991027591E+02  0.54991027591E+02  0.00000000000E+00 0.  1.
         25    2    1    2    0    0 -0.22175074958E+02 -0.80564774407E+02  0.27125536035E+03  0.31017708025E+03  0.12509170144E+03 0.  0.
         23    2    1    2    0    0  0.22175074958E+02  0.80564774407E+02  0.70995268885E+02  0.14205560417E+03  0.90316386368E+02 0.  0.
          5    1    3    3  502    0  0.22300225735E+02 -0.88024261489E+02  0.23562592771E+03  0.25255221418E+03  0.41800000000E+01 0.  1.
         -5    1    3    3    0  502 -0.44475300693E+02  0.74594870817E+01  0.35629432644E+02  0.57624866072E+02  0.41800000000E+01 0.  1.
        -11    1    4    4    0    0  0.43907637844E+02  0.61311259731E+01  0.35407201265E+02  0.56737476751E+02  0.00000000000E+00 0.  1.
         11    1    4    4    0    0 -0.21732562885E+02  0.74433648434E+02  0.35588067620E+02  0.85318127416E+02  0.00000000000E+00 0. -1.
</event>
<event>
 8    1  0.6849590E-009  0.1089875E+03  0.7561462E-02  0.1262456E+00
         -2   -1    0    0    0  501 -0.00000000000E+00  0.00000000000E+00  0.37178949631E+02  0.37178949631E+02  0.00000000000E+00 0.  1.
          2   -1    0    0  501    0  0.00000000000E+00 -0.00000000000E+00 -0.39904563951E+03  0.39904563951E+03  0.00000000000E+00 0. -1.
         25    2    1    2    0    0 -0.36651362822E+02  0.15831655830E+02 -0.27082424772E+03  0.30097694673E+03  0.12508951028E+03 0.  0.
         23    2    1    2    0    0  0.36651362822E+02 -0.15831655830E+02 -0.91042442161E+02  0.13524764242E+03  0.91701879929E+02 0.  0.
          5    1    3    3  502    0  0.41633535160E+02 -0.14786835976E+02 -0.65975657444E+02  0.79512650209E+02  0.41800000000E+01 0.  1.
         -5    1    3    3    0  502 -0.78284897981E+02  0.30618491806E+02 -0.20484859028E+03  0.22146429652E+03  0.41800000000E+01 0.  1.
        -11    1    4    4    0    0 -0.23201391165E+02  0.86573330264E+01 -0.15198993848E+01  0.24810563501E+02  0.00000000000E+00 0.  1.
         11    1    4    4    0    0  0.59852753986E+02 -0.24488988857E+02 -0.89522542776E+02  0.11043707892E+03  0.00000000000E+00 0. -1.
</event>
<event>
 8    1  0.6849590E-009  0.7325259E+02  0.7561462E-02  0.1349369E+00
         -1   -1    0    0    0  501 -0.00000000000E+00  0.00000000000E+00  0.29876625975E+02  0.29876625975E+02  0.00000000000E+00 0.  1.
          1   -1    0    0  501    0  0.00000000000E+00 -0.00000000000E+00 -0.41660975407E+03  0.41660975407E+03  0.00000000000E+00 0. -1.
         25    2    1    2    0    0 -0.13723405641E+02 -0.91737399648E+00 -0.29443804770E+03  0.32020393959E+03  0.12509046949E+03 0.  0.
         23    2    1    2    0    0  0.13723405641E+02  0.91737399648E+00 -0.92295080392E+02  0.12628244045E+03  0.85086423505E+02 0.  0.
          5    1    3    3  502    0  0.25564753363E+02 -0.38769104762E+02 -0.44875963661E+02  0.64714176291E+02  0.41800000000E+01 0. -1.
         -5    1    3    3    0  502 -0.39288159003E+02  0.37851730765E+02 -0.24956208404E+03  0.25548976330E+03  0.41800000000E+01 0. -1.
        -11    1    4    4    0    0  0.50444494486E+01 -0.20995886494E+02  0.81717992554E+01  0.23087919416E+02  0.00000000000E+00 0.  1.
         11    1    4    4    0    0  0.86789561920E+01  0.21913260490E+02 -0.10046687965E+03  0.10319452104E+03  0.00000000000E+00 0. -1.
</event>
<event>
 8    1  0.6849590E-009  0.1254428E+03  0.7561462E-02  0.1234379E+00
         -4   -1    0    0    0  501 -0.00000000000E+00  0.00000000000E+00  0.48321981072E+02  0.48321981072E+02  0.00000000000E+00 0.  1.
          4   -1    0    0  501    0  0.00000000000E+00 -0.00000000000E+00 -0.62656030393E+03  0.62656030393E+03  0.00000000000E+00 0. -1.
         25    2    1    2    0    0 -0.10144944051E+03 -0.20062823149E+01 -0.48337673528E+03  0.50950536912E+03  0.12508652528E+03 0.  0.
         23    2    1    2    0    0  0.10144944051E+03  0.20062823149E+01 -0.94861587582E+02  0.16537691588E+03  0.89748478316E+02 0.  0.
          5    1    3    3  502    0 -0.11455246935E+03  0.60652491404E-01 -0.24250061024E+03  0.26822805647E+03  0.41800000000E+01 0. -1.
         -5    1    3    3    0  502  0.13103028840E+02 -0.20669348063E+01 -0.24087612504E+03  0.24127731265E+03  0.41800000000E+01 0. -1.
        -11    1    4    4    0    0  0.10040267432E+03  0.21622579023E+02 -0.10173759824E+03  0.14456407517E+03  0.00000000000E+00 0. -1.
         11    1    4    4    0    0  0.10467661915E+01 -0.19616296708E+02  0.68760106585E+01  0.20812840714E+02  0.00000000000E+00 0.  1.
</event>
<event>
 7    1  0.6849590E-009  0.1213192E+03  0.7561462E-02  0.1240936E+00
          2   -1    0    0  501    0  0.00000000000E+00  0.00000000000E+00  0.62390663149E+03  0.62390663149E+03  0.00000000000E+00 0. -1.
         -2   -1    0    0    0  501 -0.00000000000E+00 -0.00000000000E+00 -0.29827297942E+02  0.29827297942E+02  0.00000000000E+00 0.  1.
         23    2    1    2    0    0 -0.80196736000E+02  0.43609590496E+02  0.23828870173E+03  0.26537902397E+03  0.72878036072E+02 0.  0.
          5    1    1    2  502    0  0.10992228202E+03 -0.22282721323E+02  0.21144446451E+03  0.23938600988E+03  0.41800000000E+01 0. -1.
         -5    1    1    2    0  502 -0.29725546020E+02 -0.21326869173E+02  0.14434616730E+03  0.14896889558E+03  0.41800000000E+01 0. -1.
        -11    1    3    3    0    0 -0.37093640369E+02  0.31875712542E+02  0.20196727157E+03  0.20780466306E+03  0.00000000000E+00 0. -1.
         11    1    3    3    0    0 -0.43103095631E+02  0.11733877954E+02  0.36321430167E+02  0.57574360910E+02  0.00000000000E+00 0.  1.
</event>
<event>
 7    1  0.6849590E-009  0.3253599E+03  0.7561462E-02  0.1073209E+00
         -1   -1    0    0    0  501 -0.00000000000E+00  0.00000000000E+00  0.14077514384E+03  0.14077514384E+03  0.00000000000E+00 0.  1.
          1   -1    0    0  501    0  0.00000000000E+00 -0.00000000000E+00 -0.77127745376E+03  0.77127745376E+03  0.00000000000E+00 0. -1.
         23    2    1    2    0    0  0.26862310643E+03 -0.15570906516E+03 -0.29530147081E+03  0.43835585258E+03  0.92461930252E+02 0.  0.
          5    1    1    2  502    0 -0.16788742257E+03  0.27171729399E+02 -0.15075416575E+03  0.22730767788E+03  0.41800000000E+01 0. -1.
         -5    1    1    2    0  502 -0.10073568386E+03  0.12853733576E+03 -0.18444667336E+03  0.24638906713E+03  0.41800000000E+01 0. -1.
        -11    1    3    3    0    0  0.27944043446E+02 -0.43456471543E+02 -0.85563146847E+02  0.99951921349E+02  0.00000000000E+00 0. -1.
         11    1    3    3    0    0  0.24067906298E+03 -0.11225259362E+03 -0.20973832396E+03  0.33840393123E+03  0.00000000000E+00 0.  1.
</event>
<event>
 8    1  0.6849590E-009  0.5086526E+02  0.7561462E-02  0.1440730E+00
         -1   -1    0    0    0  501 -0.00000000000E+00  0.00000000000E+00  0.19041710503E+03  0.19041710503E+03  0.00000000000E+00 0.  1.
          1   -1    0    0  501    0  0.00000000000E+00 -0.00000000000E+00 -0.73625484304E+02  0.73625484304E+02  0.00000000000E+00 0. -1.
         25    2    1    2    0    0 -0.10699654206E+02  0.26822587377E+01  0.15514243049E+02  0.12653030945E+03  0.12509016892E+03 0.  0.
         23    2    1    2    0    0  0.10699654206E+02 -0.26822587377E+01  0.10127737768E+03  0.13751227988E+03  0.92362561555E+02 0.  0.
          5    1    3    3  502    0 -0.26717895261E+02 -0.66664937832E+01 -0.50587821761E+02  0.57748490691E+02  0.41800000000E+01 0.  1.
         -5    1    3    3    0  502  0.16018241055E+02  0.93487525209E+01  0.66102064810E+02  0.68781818763E+02  0.41800000000E+01 0.  1.
        -11    1    4    4    0    0 -0.17932029217E+02 -0.15304942759E+02 -0.71694832528E+01  0.24641437352E+02  0.00000000000E+00 0. -1.
         11    1    4    4    0    0  0.28631683422E+02  0.12622684021E+02  0.10844686093E+03  0.11287084253E+03  0.00000000000E+00 0.  1.
</event>
<event>
 8    1  0.6849590E-009  0.1239821E+03  0.7561462E-02  0.1236669E+00
         -2   -1    0    0    0  501 -0.00000000000E+00  0.00000000000E+00  0.28402854558E+02  0.28402854558E+02  0.00000000000E+00 0.  1.
          2   -1    0    0  501    0  0.00000000000E+00 -0.00000000000E+00 -0.78305183469E+03  0.78305183469E+03  0.00000000000E+00 0. -1.
         25    2    1    2    0    0  0.15789797784E+02 -0.10111069620E+03 -0.41502819788E+03  0.44538598886E+03  0.12509030113E+03 0.  0.
         23    2    1    2    0    0 -0.15789797784E+02  0.10111069620E+03 -0.33962078225E+03  0.36606870039E+03  0.90505950449E+02 0.  0.
          5    1    3    3  502    0  0.27581745329E+02 -0.52581189067E+01 -0.11816706725E+02  0.30749104827E+02  0.41800000000E+01 0.  1.
         -5    1    3    3    0  502 -0.11791947545E+02 -0.95852577291E+02 -0.40321149115E+03  0.41463688403E+03  0.41800000000E+01 0.  1.
        -11    1    4    4    0    0  0.24510196833E+02  0.62354843869E+02 -0.26185014941E+03  0.27028573223E+03  0.00000000000E+00 0. -1.
         11    1    4    4    0    0 -0.40299994617E+02  0.38755852329E+02 -0.77770632841E+02  0.95782968154E+02  0.00000000000E+00 0.  1.
</event>
<event>
 8    1  0.6849590E-009  0.1778790E+03  0.7561462E-02  0.1169872E+00
          2   -1    0    0  501    0  0.00000000000E+00  0.00000000000E+00  0.11262304112E+04  0.11262304112E+04  0.00000000000E+00 0.  1.
         -2   -1    0    0    0  501 -0.00000000000E+00 -0.00000000000E+00 -0.30424640181E+02  0.30424640181E+02  0.00000000000E+00 0. -1.
         25    2    1    2    0    0 -0.67813772324E+02  0.12432008973E+03  0.42535315695E+03  0.46543171191E+03  0.12508868013E+03 0.  0.
         23    2    1    2    0    0  0.67813772324E+02 -0.12432008973E+03  0.67045261406E+03  0.69122333946E+03  0.90712760353E+02 0.  0.
          5    1    3    3  502    0 -0.10303849940E+03  0.10529130200E+03  0.30983733808E+03  0.34310324846E+03  0.41800000000E+01 0.  1.
         -5    1    3    3    0  502  0.35224727080E+02  0.19028787733E+02  0.11551581888E+03  0.12232846345E+03  0.41800000000E+01 0.  1.
        -11    1    4    4    0    0  0.85621016385E+02 -0.68858061633E+02  0.44615356522E+03  0.45948383525E+03  0.00000000000E+00 0.  1.
         11    1    4    4    0    0 -0.17807244061E+02 -0.55462028098E+02  0.22429904884E+03  0.23173950421E+03  0.00000000000E+00 0. -1.
</event>
<event>
 8    1  0.6849590E-009  0.1077725E+03  0.7561462E-02  0.1264751E+00
          1   -1    0    0  501    0  0.00000000000E+00  0.00000000000E+00  0.85385874343E+02  0.85385874343E+02  0.00000000000E+00 0. -1.
         -1   -1    0    0    0  501 -0.00000000000E+00 -0.00000000000E+00 -0.17463822709E+03  0.17463822709E+03  0.00000000000E+00 0.  1.
         25    2    1    2    0    0  0.31976414636E+02  0.46020459553E+02 -0.56384691240E+02  0.14821280744E+03  0.12508968420E+03 0.  0.
         23    2    1    2    0    0 -0.31976414636E+02 -0.46020459553E+02 -0.32867661504E+02  0.11181129399E+03  0.91000596154E+02 0.  0.
          5    1    3    3  502    0  0.75625841382E+02  0.36971663843E+02 -0.11937778560E+02  0.85124348861E+02  0.41800000000E+01 0. -1.
         -5    1    3    3    0  502 -0.43649426746E+02  0.90487957107E+01 -0.44446912680E+02  0.63088458579E+02  0.41800000000E+01 0. -1.
        -11    1    4    4    0    0  0.19934171815E+02 -0.56248932216E+01 -0.40603936366E+02  0.45581687969E+02  0.00000000000E+00 0.  1.
         11    1    4    4    0    0 -0.51910586451E+02 -0.40395566332E+02  0.77362748613E+01  0.66229606021E+02  0.00000000000E+00 0. -1.
</event>
<event>
 8    1  0.6849590E-009  0.1201558E+03  0.7561462E-02  0.1242840E+00
          2   -1    0    0  501    0  0.00000000000E+00  0.00000000000E+00  0.16834320817E+03  0.16834320817E+03  0.00000000000E+00 0. -1.
         -2   -1    0    0    0  501 -0.00000000000E+00 -0.00000000000E+00 -0.10351408395E+03  0.10351408395E+03  0.00000000000E+00 0.  1.
         25    2    1    2    0    0 -0.52856219195E+02  0.18254262803E+02  0.86934623476E+02  0.16226304446E+03  0.12507865054E+03 0.  0.
         23    2    1    2    0    0  0.52856219195E+02 -0.18254262803E+02 -0.22105499252E+02  0.10959424765E+03  0.91625585965E+02 0.  0.
          5    1    3    3  502    0  0.30448893021E+02 -0.27951413487E+02  0.29439730716E+02  0.50917450316E+02  0.41800000000E+01 0.  1.
         -5    1    3    3    0  502 -0.83305112215E+02  0.46205676289E+02  0.57494892761E+02  0.11134559415E+03  0.41800000000E+01 0.  1.
        -11    1    4    4    0    0 -0.16876105165E+02 -0.28312804504E+02  0.64275466506E+01  0.33581709015E+02  0.00000000000E+00 0. -1.
         11    1    4    4    0    0  0.69732324360E+02  0.10058541701E+02 -0.28533045902E+02  0.76012538639E+02  0.00000000000E+00 0.  1.
</event>
<event>
 8    1  0.6849590E-009  0.1345414E+03  0.7561462E-02  0.1220869E+00
         -2   -1    0    0    0  501 -0.00000000000E+00  0.00000000000E+00  0.11435230457E+03  0.11435230457E+03  0.00000000000E+00 0. -1.
          2   -1    0    0  501    0  0.00000000000E+00 -0.00000000000E+00 -0.21058382844E+03  0.21058382844E+03  0.00000000000E+00 0.  1.
         25    2    1    2    0    0  0.49390664618E+02  0.96039981884E+02 -0.77700835374E+02  0.18262003652E+03  0.12509812968E+03 0.  0.
         23    2    1    2    0    0 -0.49390664618E+02 -0.96039981884E+02 -0.18530688495E+02  0.14231609649E+03  0.90815026466E+02 0.  0.
          5    1    3    3  502    0  0.86634673536E+02  0.69566019840E+02 -0.27356909667E+02  0.11450271037E+03  0.41800000000E+01 0. -1.
         -5    1    3    3    0  502 -0.37244008917E+02  0.26473962044E+02 -0.50343925707E+02  0.68117326152E+02  0.41800000000E+01 0. -1.
        -11    1    4    4    0    0 -0.90595266111E+01 -0.49956324881E+02 -0.51875849804E+02  0.72586591123E+02  0.00000000000E+00 0.  1.
         11    1    4    4    0    0 -0.40331138007E+02 -0.46083657003E+02  0.33345161309E+02  0.69729505365E+02  0.00000000000E+00 0. -1.
</event>
<event>
 8    1  0.6849590E-009  0.1239314E+03  0.7561462E-02  0.1236749E+00
          2   -1    0    0  501    0  0.00000000000E+00  0.00000000000E+00  0.12590875779E+03  0.12590875779E+03  0.00000000000E+00 0. -1.
         -2   -1    0    0    0  501 -0.00000000000E+00 -0.00000000000E+00 -0.13766241263E+03  0.13766241263E+03  0.00000000000E+00 0.  1.
         25    2    1    2    0    0  0.66248987636E+02  0.87368513796E+01  0.24736451730E+02  0.14396806625E+03  0.12509856562E+03 0.  0.
         23    2    1    2    0    0 -0.66248987636E+02 -0.87368513796E+01 -0.36490106570E+02  0.11960310417E+03  0.92239436871E+02 0.  0.
          5    1    3    3  502    0  0.19042060060E+02  0.64335618815E+02  0.12732290537E+01  0.67236637422E+02  0.41800000000E+01 0. -1.
         -5    1    3    3    0  502  0.47206927576E+02 -0.55598767435E+02  0.23463222677E+02  0.76731428827E+02  0.41800000000E+01 0. -1.
        -11    1    4    4    0    0 -0.47332010239E+02 -0.45867685421E+02 -0.27211387005E+01  0.65966418388E+02  0.00000000000E+00 0. -1.
         11    1    4    4    0    0 -0.18916977397E+02  0.37130834042E+02 -0.33768967870E+02  0.53636685780E+02  0.00000000000E+00 0.  1.
</event>
<event>
 8    1  0.6849590E-009  0.1986528E+03  0.7561462E-02  0.1150881E+00
         -1   -1    0    0    0  501 -0.00000000000E+00  0.00000000000E+00  0.14461526297E+03  0.14461526297E+03  0.00000000000E+00 0.  1.
          1   -1    0    0  501    0  0.00000000000E+00 -0.00000000000E+00 -0.32472035429E+03  0.32472035429E+03  0.00000000000E+00 0. -1.
         25    2    1    2    0    0  0.23461468409E+02  0.18531986850E+03 -0.80790883203E+02  0.23889056884E+03  0.12509053886E+03 0.  0.
         23    2    1    2    0    0 -0.23461468409E+02 -0.18531986850E+03 -0.99314208114E+02  0.23044504842E+03  0.91365826473E+02 0.  0.
          5    1    3    3  502    0  0.55245755650E+02  0.15366157324E+03 -0.98198486009E+02  0.19058957911E+03  0.41800000000E+01 0. -1.
         -5    1    3    3    0  502 -0.31784287241E+02  0.31658295254E+02  0.17407602806E+02  0.48300989734E+02  0.41800000000E+01 0. -1.
        -11    1    4    4    0    0 -0.11799646403E+02 -0.16542387829E+03 -0.45614687954E+02  0.17200288056E+03  0.00000000000E+00 0.  1.
         11    1    4    4    0    0 -0.11661822006E+02 -0.19895990212E+02 -0.53699520160E+02  0.58442167862E+02  0.00000000000E+00 0. -1.
</event>
<event>
 8    1  0.6849590E-009  0.1328501E+03  0.7561462E-02  0.1223287E+00
         -2   -1    0    0    0  501 -0.00000000000E+00  0.00000000000E+00  0.26318763370E+03  0.26318763370E+03  0.00000000000E+00 0.  1.
          2   -1    0    0  501    0  0.00000000000E+00 -0.00000000000E+00 -0.79027253577E+02  0.79027253577E+02  0.00000000000E+00 0. -1.
         25    2    1    2    0    0  0.95259083796E+02  0.12132849980E+02  0.11180989646E+03  0.19331358957E+03  0.12508873598E+03 0.  0.
         23    2    1    2    0    0 -0.95259083796E+02 -0.12132849980E+02  0.72350483657E+02  0.14890129771E+03  0.87837946694E+02 0.  0.
          5    1    3    3  502    0  0.39394788039E+02  0.53231030591E+02  0.58585059438E+01  0.66612959958E+02  0.41800000000E+01 0. -1.
         -5    1    3    3    0  502  0.55864295758E+02 -0.41098180612E+02  0.10595139052E+03  0.12670062961E+03  0.41800000000E+01 0. -1.
        -11    1    4    4    0    0 -0.10223546438E+03 -0.33345208443E+02  0.63473326623E+02  0.12487135899E+03  0.00000000000E+00 0.  1.
         11    1    4    4    0    0  0.69763805880E+01  0.21212358463E+02  0.88771570342E+01  0.24029938716E+02  0.00000000000E+00 0. -1.
</event>
<event>
 8    1  0.6849590E-009  0.9590900E+02  0.7561462E-02  0.1289142E+00
          4   -1    0    0  501    0  0.00000000000E+00  0.00000000000E+00  0.29401285505E+03  0.29401285505E+03  0.00000000000E+00 0. -1.
         -4   -1    0    0    0  501 -0.00000000000E+00 -0.00000000000E+00 -0.97075435930E+02  0.97075435930E+02  0.00000000000E+00 0.  1.
         25    2    1    2    0    0 -0.93047413011E+02  0.16687800519E+02  0.28202268956E+01  0.15682680254E+03  0.12510151303E+03 0.  0.
         23    2    1    2    0    0  0.93047413011E+02 -0.16687800519E+02  0.19411719223E+03  0.23426148844E+03  0.90888155955E+02 0.  0.
          5    1    3    3  502    0 -0.60346202665E+01  0.56674616964E+01  0.54269752358E+02  0.55056472688E+02  0.41800000000E+01 0. -1.
         -5    1    3    3    0  502 -0.87012792744E+02  0.11020338822E+02 -0.51449525462E+02  0.10177032986E+03  0.41800000000E+01 0. -1.
        -11    1    4    4    0    0  0.58208969413E+02 -0.13488978315E+02  0.30768105814E+02  0.67207983093E+02  0.00000000000E+00 0.  1.
         11    1    4    4    0    0  0.34838443598E+02 -0.31988222040E+01  0.16334908641E+03  0.16705350534E+03  0.00000000000E+00 0. -1.
</event>
<event>
 8    1  0.6849590E-009  0.1401768E+03  0.7561462E-02  0.1213091E+00
          1   -1    0    0  501    0  0.00000000000E+00  0.00000000000E+00  0.10443556193E+03  0.10443556193E+03  0.00000000000E+00 0. -1.
         -1   -1    0    0    0  501 -0.00000000000E+00 -0.00000000000E+00 -0.26531217683E+03  0.26531217683E+03  0.00000000000E+00 0.  1.
         25    2    1    2    0    0  0.24552305643E+02 -0.10913096798E+03 -0.21234941914E+02  0.16914416678E+03  0.12508574065E+03 0.  0.
         23    2    1    2    0    0 -0.24552305643E+02  0.10913096798E+03 -0.13964167299E+03  0.20060357198E+03  0.90717210984E+02 0.  0.
          5    1    3    3  502    0  0.99939520037E-03  0.27881738125E+02  0.51566950247E+00  0.28198043140E+02  0.41800000000E+01 0.  1.
         -5    1    3    3    0  502  0.24551306248E+02 -0.13701270611E+03 -0.21750611417E+02  0.14094612364E+03  0.41800000000E+01 0.  1.
        -11    1    4    4    0    0 -0.19909459723E+02  0.53606534687E+02 -0.13264683211E+03  0.14444801562E+03  0.00000000000E+00 0.  1.
         11    1    4    4    0    0 -0.46428459207E+01  0.55524433294E+02 -0.69948408840E+01  0.56155556358E+02  0.00000000000E+00 0. -1.
</event>
<event>
 8    1  0.6849590E-009  0.1720505E+03  0.7561462E-02  0.1175726E+00
         -2   -1    0    0    0  501 -0.00000000000E+00  0.00000000000E+00  0.50703783106E+02  0.50703783106E+02  0.00000000000E+00 0.  1.
          2   -1    0    0  501    0  0.00000000000E+00 -0.00000000000E+00 -0.99916881938E+03  0.99916881938E+03  0.00000000000E+00 0. -1.
         25    2    1    2    0    0  0.12868302891E+03 -0.32671161863E+02 -0.81779701609E+03  0.83789363418E+03  0.12508819260E+03 0.  0.
         23    2    1    2    0    0 -0.12868302891E+03  0.32671161863E+02 -0.13066802018E+03  0.21197896830E+03  0.10116434530E+03 0.  0.
          5    1    3    3  502    0 -0.24435389291E+01 -0.48769790428E+02 -0.26684578809E+03  0.27130906796E+03  0.41800000000E+01 0. -1.
         -5    1    3    3    0  502  0.13112656783E+03  0.16098628564E+02 -0.55095122800E+03  0.56658456621E+03  0.41800000000E+01 0. -1.
        -11    1    4    4    0    0 -0.32303771197E+02  0.55180972138E+02 -0.74506436123E+02  0.98181883988E+02  0.00000000000E+00 0.  1.
         11    1    4    4    0    0 -0.96379257708E+02 -0.22509810275E+02 -0.56161584059E+02  0.11379708432E+03  0.00000000000E+00 0. -1.
</event>
<event>
 8    1  0.6849590E-009  0.1213153E+03  0.7561462E-02  0.1240943E+00
         -2   -1    0    0    0  501 -0.00000000000E+00  0.00000000000E+00  0.38720133371E+02  0.38720133371E+02  0.00000000000E+00 0.  1.
          2   -1    0    0  501    0  0.00000000000E+00 -0.00000000000E+00 -0.43856556127E+03  0.43856556127E+03  0.00000000000E+00 0. -1.
         25    2    1    2    0    0  0.69055905094E+02 -0.10752900800E+02 -0.24708473600E+03  0.28562732926E+03  0.12509101308E+03 0.  0.
         23    2    1    2    0    0 -0.69055905094E+02  0.10752900800E+02 -0.15276069190E+03  0.19165836538E+03  0.92264603867E+02 0.  0.
          5    1    3    3  502    0 -0.36504767296E+02 -0.49070347954E+00 -0.73245213637E+02  0.81946156383E+02  0.41800000000E+01 0.  1.
         -5    1    3    3    0  502  0.10556067239E+03 -0.10262197321E+02 -0.17383952236E+03  0.20368117288E+03  0.41800000000E+01 0.  1.
        -11    1    4    4    0    0 -0.53002143461E+02 -0.26442060029E+02 -0.13500387642E+03  0.14742610487E+03  0.00000000000E+00 0. -1.
         11    1    4    4    0    0 -0.16053761634E+02  0.37194960829E+02 -0.17756815482E+02  0.44232260509E+02  0.00000000000E+00 0.  1.
</event>
<event>
 8    1  0.6849590E-009  0.1818561E+03  0.7561462E-02  0.1166019E+00
          1   -1    0    0  501    0  0.00000000000E+00  0.00000000000E+00  0.15303228712E+03  0.15303228712E+03  0.00000000000E+00 0. -1.
         -1   -1    0    0    0  501 -0.00000000000E+00 -0.00000000000E+00 -0.28075922933E+03  0.28075922933E+03  0.00000000000E+00 0.  1.
         25    2    1    2    0    0 -0.15268161482E+03 -0.75462793338E+02 -0.11359495430E+03  0.23991348022E+03  0.12509338779E+03 0.  0.
         23    2    1    2    0    0  0.15268161482E+03  0.75462793338E+02 -0.14131987910E+02  0.19387803622E+03  0.91556928556E+02 0.  0.
          5    1    3    3  502    0 -0.12585230913E+03 -0.45676687281E+02 -0.13838452742E+03  0.19259520582E+03  0.41800000000E+01 0.  1.
         -5    1    3    3    0  502 -0.26829305685E+02 -0.29786106057E+02  0.24789573116E+02  0.47318274407E+02  0.41800000000E+01 0.  1.
        -11    1    4    4    0    0  0.14294678456E+03  0.34091346831E+02  0.55064142933E+01  0.14705891249E+03  0.00000000000E+00 0. -1.
         11    1    4    4    0    0  0.97348302587E+01  0.41371446507E+02 -0.19638402203E+02  0.46819123735E+02  0.00000000000E+00 0.  1.
</event>
<event>
 8    1  0.6849590E-009  0.1082454E+03  0.7561462E-02  0.1263854E+00
          1   -1    0    0  501    0  0.00000000000E+00  0.00000000000E+00  0.85629411633E+03  0.85629411633E+03  0.00000000000E+00 0. -1.
         -1   -1    0    0    0  501 -0.00000000000E+00 -0.00000000000E+00 -0.18811548421E+02  0.18811548421E+02  0.00000000000E+00 0.  1.
         25    2    1    2    0    0  0.57696858922E+02  0.16176777633E+02  0.36769698849E+03  0.39298659242E+03  0.12508705293E+03 0.  0.
         23    2    1    2    0    0 -0.57696858922E+02 -0.16176777633E+02  0.46978557942E+03  0.48211907233E+03  0.90275653489E+02 0.  0.
          5    1    3    3  502    0 -0.20730709518E+02  0.28387552031E+02  0.31059954174E+02  0.47093615074E+02  0.41800000000E+01 0.  1.
         -5    1    3    3    0  502  0.78427568440E+02 -0.12210774398E+02  0.33663703432E+03  0.34589297735E+03  0.41800000000E+01 0.  1.
        -11    1    4    4    0    0 -0.65703190562E+02  0.16683105537E+02  0.38343874534E+03  0.38938477973E+03  0.00000000000E+00 0. -1.
         11    1    4    4    0    0  0.80063316405E+01 -0.32859883171E+02  0.86346834078E+02  0.92734292598E+02  0.00000000000E+00 0.  1.
</event>
<event>
 8    1  0.6849590E-009  0.2255973E+03  0.7561462E-02  0.1129778E+00
          2   -1    0    0  501    0  0.00000000000E+00  0.00000000000E+00  0.56700555146E+03  0.56700555146E+03  0.00000000000E+00 0. -1.
         -2   -1    0    0    0  501 -0.00000000000E+00 -0.00000000000E+00 -0.20485361526E+03  0.20485361526E+03  0.00000000000E+00 0.  1.
         25    2    1    2    0    0 -0.52424299659E+02 -0.21924487308E+03  0.44636921070E+03  0.51547038819E+03  0.12509047635E+03 0.  0.
         23    2    1    2    0    0  0.52424299659E+02  0.21924487308E+03 -0.84217274503E+02  0.25638877853E+03  0.88464879272E+02 0.  0.
          5    1    3    3  502    0 -0.20630392391E+02 -0.69347596756E+02  0.43740745402E+02  0.84648848039E+02  0.41800000000E+01 0.  1.
         -5    1    3    3    0  502 -0.31793907268E+02 -0.14989727632E+03  0.40262846530E+03  0.43082154015E+03  0.41800000000E+01 0.  1.
        -11    1    4    4    0    0  0.27706846439E+02  0.12001546841E+03 -0.92138399394E+02  0.15382089143E+03  0.00000000000E+00 0.  1.
         11    1    4    4    0    0  0.24717453219E+02  0.99229404665E+02  0.79211248908E+01  0.10256788710E+03  0.00000000000E+00 0. -1.
</event>
<event>
 8    1  0.6849590E-009  0.1404598E+03  0.7561462E-02  0.1212712E+00
          2   -1    0    0  501    0  0.00000000000E+00  0.00000000000E+00  0.11353859521E+04  0.11353859521E+04  0.00000000000E+00 0. -1.
         -2   -1    0    0    0  501 -0.00000000000E+00 -0.00000000000E+00 -0.19302320255E+02  0.19302320255E+02  0.00000000000E+00 0.  1.
         25    2    1    2    0    0 -0.86395302574E+02 -0.41831103433E+02  0.48509023629E+03  0.51006843050E+03  0.12507308635E+03 0.  0.
         23    2    1    2    0    0  0.86395302574E+02  0.41831103433E+02  0.63099339553E+03  0.64461984183E+03  0.90377462651E+02 0.  0.
          5    1    3    3  502    0 -0.83050613591E+02 -0.79976096466E+02  0.40635300589E+03  0.42241427322E+03  0.41800000000E+01 0. -1.
         -5    1    3    3    0  502 -0.33446889832E+01  0.38144993033E+02  0.78737230407E+02  0.87654157289E+02  0.41800000000E+01 0. -1.
        -11    1    4    4    0    0  0.90909226698E+02  0.62098403121E+01  0.52116923938E+03  0.52907506621E+03  0.00000000000E+00 0. -1.
         11    1    4    4    0    0 -0.45139241238E+01  0.35621263121E+02  0.10982415615E+03  0.11554477561E+03  0.00000000000E+00 0.  1.
</event>
<event>
 8    1  0.6849590E-009  0.2504559E+03  0.7561462E-02  0.1113017E+00
          1   -1    0    0  501    0  0.00000000000E+00  0.00000000000E+00  0.46430611831E+03  0.46430611831E+03  0.00000000000E+00 0. -1.
         -1   -1    0    0    0  501 -0.00000000000E+00 -0.00000000000E+00 -0.22961564735E+03  0.22961564735E+03  0.00000000000E+00 0.  1.
         25    2    1    2    0    0 -0.12519357698E+03 -0.18972166880E+03 -0.10095833839E+03  0.27840180586E+03  0.12508891272E+03 0.  0.
         23    2    1    2    0    0  0.12519357698E+03  0.18972166880E+03  0.33564880935E+03  0.41551995980E+03  0.91263193288E+02 0.  0.
          5    1    3    3  502    0 -0.10052195522E+02 -0.12231765956E+03 -0.70083452220E+02  0.14139242961E+03  0.41800000000E+01 0.  1.
         -5    1    3    3    0  502 -0.11514138145E+03 -0.67404009238E+02 -0.30874886172E+02  0.13700937625E+03  0.41800000000E+01 0.  1.
        -11    1    4    4    0    0  0.32747490445E+02  0.13117204160E+03  0.19596545325E+03  0.23807763754E+03  0.00000000000E+00 0.  1.
         11    1    4    4    0    0  0.92446086531E+02  0.58549627203E+02  0.13968335610E+03  0.17744232226E+03  0.00000000000E+00 0. -1.
</event>
<event>
 8    1  0.6849590E-009  0.8220474E+02  0.7561462E-02  0.1322909E+00
         -1   -1    0    0    0  501 -0.00000000000E+00  0.00000000000E+00  0.10428209788E+03  0.10428209788E+03  0.00000000000E+00 0.  1.
          1   -1    0    0  501    0  0.00000000000E+00 -0.00000000000E+00 -0.14719699518E+03  0.14719699518E+03  0.00000000000E+00 0. -1.
         25    2    1    2    0    0  0.37667502136E+02 -0.13576917735E+02 -0.68493372602E+02  0.14813008427E+03  0.12509199160E+03 0.  0.
         23    2    1    2    0    0 -0.37667502136E+02  0.13576917735E+02  0.25578475302E+02  0.10334900880E+03  0.91780094842E+02 0.  0.
          5    1    3    3  502    0  0.53515582798E+02 -0.14061230196E+02 -0.99003074620E+02  0.11349324641E+03  0.41800000000E+01 0. -1.
         -5    1    3    3    0  502 -0.15848080663E+02  0.48431246145E+00  0.30509702018E+02  0.34636837854E+02  0.41800000000E+01 0. -1.
        -11    1    4    4    0    0  0.36653287777E+01 -0.31298664385E+02  0.28192440761E+02  0.42283031389E+02  0.00000000000E+00 0. -1.
         11    1    4    4    0    0 -0.41332830914E+02  0.44875582120E+02 -0.26139654589E+01  0.61065977413E+02  0.00000000000E+00 0.  1.
</event>
<event>
 8    1  0.6849590E-009  0.1009101E+03  0.7561462E-02  0.1278394E+00
          3   -1    0    0  501    0  0.00000000000E+00  0.00000000000E+00  0.11189900938E+03  0.11189900938E+03  0.00000000000E+00 0. -1.
         -3   -1    0    0    0  501 -0.00000000000E+00 -0.00000000000E+00 -0.12360572250E+03  0.12360572250E+03  0.00000000000E+00 0.  1.
         25    2    1    2    0    0  0.44274513235E+02  0.38082527375E+00 -0.22678862467E+02  0.13460941387E+03  0.12507991825E+03 0.  0.
         23    2    1    2    0    0 -0.44274513235E+02 -0.38082527375E+00  0.10972149347E+02  0.10089531802E+03  0.89994997566E+02 0.  0.
          5    1    3    3  502    0  0.46356859667E+02  0.41116920186E+02 -0.54562826562E+02  0.82668821246E+02  0.41800000000E+01 0. -1.
         -5    1    3    3    0  502 -0.20823464316E+01 -0.40736094913E+02  0.31883964096E+02  0.51940592621E+02  0.41800000000E+01 0. -1.
        -11    1    4    4    0    0 -0.26852229311E+02 -0.44109893203E+02  0.14654944112E+02  0.53679533197E+02  0.00000000000E+00 0.  1.
         11    1    4    4    0    0 -0.17422283924E+02  0.43729067929E+02 -0.36827947654E+01  0.47215784822E+02  0.00000000000E+00 0. -1.
</event>
<event>
 8    1  0.6849590E-009  0.1064182E+03  0.7561462E-02  0.1267350E+00
          1   -1    0    0  501    0  0.00000000000E+00  0.00000000000E+00  0.96611966179E+02  0.96611966179E+02  0.00000000000E+00 0. -1.
         -1   -1    0    0    0  501 -0.00000000000E+00 -0.00000000000E+00 -0.24083809380E+03  0.24083809380E+03  0.00000000000E+00 0.  1.
         25    2    1    2    0    0  0.44010393087E+02  0.55383114029E+02 -0.16568041852E+03  0.21932242720E+03  0.12509245371E+03 0.  0.
         23    2    1    2    0    0 -0.44010393087E+02 -0.55383114029E+02  0.21454290901E+02  0.11812763277E+03  0.92139280479E+02 0.  0.
          5    1    3    3  502    0  0.28502913454E+02  0.93820196724E+02 -0.13787136844E+03  0.16923543371E+03  0.41800000000E+01 0. -1.
         -5    1    3    3    0  502  0.15507479633E+02 -0.38437082695E+02 -0.27809050082E+02  0.50086993492E+02  0.41800000000E+01 0. -1.
        -11    1    4    4    0    0 -0.41193558533E+02 -0.40077430303E+02 -0.29675466752E+02  0.64681859986E+02  0.00000000000E+00 0.  1.
         11    1    4    4    0    0 -0.28168345540E+01 -0.15305683726E+02  0.51129757652E+02  0.53445772787E+02  0.00000000000E+00 0. -1.
</event>
<event>
 7    1  0.6849590E-009  0.1332541E+03  0.7561462E-02  0.1222706E+00
          2   -1    0    0  501    0  0.00000000000E+00  0.00000000000E+00  0.15511019732E+04  0.15511019732E+04  0.00000000000E+00 0. -1.
         -2   -1    0    0    0  501 -0.00000000000E+00 -0.00000000000E+00 -0.11648334067E+02  0.11648334067E+02  0.00000000000E+00 0.  1.
         23    2    1    2    0    0 -0.15027642809E+01  0.75402289821E+02  0.59792078245E+03  0.60994219081E+03  0.93981117425E+02 0.  0.
          5    1    1    2  502    0  0.62977839366E+02 -0.33084494239E+02  0.48013179829E+03  0.48539139685E+03  0.41800000000E+01 0.  1.
         -5    1    1    2    0  502 -0.61475075085E+02 -0.42317795582E+02  0.46140105835E+03  0.46741671957E+03  0.41800000000E+01 0.  1.
        -11    1    3    3    0    0  0.41834658545E+02  0.62629427369E+02  0.37171831873E+03  0.37927179214E+03  0.00000000000E+00 0. -1.
         11    1    3    3    0    0 -0.43337422826E+02  0.12772862452E+02  0.22620246372E+03  0.23067039867E+03  0.00000000000E+00 0.  1.
</event>
<event>
 8    1  0.6849590E-009  0.1169425E+03  0.7561462E-02  0.1248228E+00
          2   -1    0    0  501    0  0.00000000000E+00  0.00000000000E+00  0.32910240450E+03  0.32910240450E+03  0.00000000000E+00 0. -1.
         -2   -1    0    0    0  501 -0.00000000000E+00 -0.00000000000E+00 -0.50461867667E+02  0.50461867667E+02  0.00000000000E+00 0.  1.
         25    2    1    2    0    0 -0.56453807918E+02  0.35191478255E+02  0.12543266416E+03  0.18922488526E+03  0.12508889397E+03 0.  0.
         23    2    1    2    0    0  0.56453807918E+02 -0.35191478255E+02  0.15320787268E+03  0.19033938691E+03  0.91274078398E+02 0.  0.
          5    1    3    3  502    0  0.15495812526E+02  0.57503951838E+02  0.84286349551E+02  0.10328836238E+03  0.41800000000E+01 0. -1.
         -5    1    3    3    0  502 -0.71949620444E+02 -0.22312473583E+02  0.41146314607E+02  0.85936522882E+02  0.41800000000E+01 0. -1.
        -11    1    4    4    0    0  0.13427804887E+02  0.22840494222E+02  0.91727821476E+02  0.95477679868E+02  0.00000000000E+00 0. -1.
         11    1    4    4    0    0  0.43026003031E+02 -0.58031972477E+02  0.61480051203E+02  0.94861707039E+02  0.00000000000E+00 0.  1.
</event>
<event>
 8    1  0.6849590E-009  0.1016734E+03  0.7561462E-02  0.1276816E+00
          2   -1    0    0  501    0  0.00000000000E+00  0.00000000000E+00  0.47740584851E+03  0.47740584851E+03  0.00000000000E+00 0. -1.
         -2   -1    0    0    0  501 -0.00000000000E+00 -0.00000000000E+00 -0.46499284253E+02  0.46499284253E+02  0.00000000000E+00 0.  1.
         25    2    1    2    0    0 -0.75243724414E+02 -0.47317841980E+02  0.32196084220E+03  0.35666161615E+03  0.12509247895E+03 0.  0.
         23    2    1    2    0    0  0.75243724414E+02  0.47317841980E+02  0.10894572206E+03  0.16724351662E+03  0.90557314792E+02 0.  0.
          5    1    3    3  502    0 -0.23578144615E+00 -0.38562901525E+02  0.16806106543E+02  0.42273757629E+02  0.41800000000E+01 0. -1.
         -5    1    3    3    0  502 -0.75007942968E+02 -0.87549404546E+01  0.30515473565E+03  0.31438785852E+03  0.41800000000E+01 0. -1.
        -11    1    4    4    0    0  0.30181092131E+02  0.17455837941E+02 -0.10267523852E+02  0.36345930261E+02  0.00000000000E+00 0.  1.
         11    1    4    4    0    0  0.45062632282E+02  0.29862004039E+02  0.11921324591E+03  0.13089758636E+03  0.00000000000E+00 0. -1.
</event>
<event>
 8    1  0.6849590E-009  0.1086981E+03  0.7561462E-02  0.1263000E+00
         -1   -1    0    0    0  501 -0.00000000000E+00  0.00000000000E+00  0.24519969373E+03  0.24519969373E+03  0.00000000000E+00 0.  1.
          1   -1    0    0  501    0  0.00000000000E+00 -0.00000000000E+00 -0.79448247481E+02  0.79448247481E+02  0.00000000000E+00 0. -1.
         25    2    1    2    0    0  0.24433464174E+02 -0.73959259141E+02  0.35245103632E+02  0.15154706700E+03  0.12512925318E+03 0.  0.
         23    2    1    2    0    0 -0.24433464174E+02  0.73959259141E+02  0.13050634262E+03  0.17310087422E+03  0.82855543003E+02 0.  0.
          5    1    3    3  502    0 -0.35004147150E+02 -0.56444317522E+02 -0.18870589551E+02  0.69172413925E+02  0.41800000000E+01 0. -1.
         -5    1    3    3    0  502  0.59437611324E+02 -0.17514941619E+02  0.54115693183E+02  0.82374653071E+02  0.41800000000E+01 0. -1.
        -11    1    4    4    0    0  0.93399525927E+01  0.39121115785E+02  0.11551404323E+03  0.12231594581E+03  0.00000000000E+00 0.  1.
         11    1    4    4    0    0 -0.33773416766E+02  0.34838143357E+02  0.14992299386E+02  0.50784928409E+02  0.00000000000E+00 0. -1.
</event>
<event>
 8    1  0.6849590E-009  0.1300892E+03  0.7561462E-02  0.1227323E+00
          4   -1    0    0  501    0  0.00000000000E+00  0.00000000000E+00  0.34005541695E+03  0.34005541695E+03  0.00000000000E+00 0. -1.
         -4   -1    0    0    0  501 -0.00000000000E+00 -0.00000000000E+00 -0.54759196023E+02  0.54759196023E+02  0.00000000000E+00 0.  1.
         25    2    1    2    0    0 -0.40521113311E+02 -0.71568832597E+02  0.16333589118E+03  0.22156283439E+03  0.12508963910E+03 0.  0.
         23    2    1    2    0    0  0.40521113311E+02  0.71568832597E+02  0.12196032974E+03  0.17325177858E+03  0.91530313709E+02 0.  0.
          5    1    3    3  502    0 -0.81708263100E+02 -0.22078556360E+02  0.84252291456E+02  0.11949738041E+03  0.41800000000E+01 0.  1.
         -5    1    3    3    0  502  0.41187149789E+02 -0.49490276237E+02  0.79083599727E+02  0.10206545398E+03  0.41800000000E+01 0.  1.
        -11    1    4    4    0    0 -0.21009965415E+02  0.30123889515E+02  0.79982045978E+02  0.88011334753E+02  0.00000000000E+00 0. -1.
         11    1    4    4    0    0  0.61531078725E+02  0.41444943082E+02  0.41978283762E+02  0.85240443826E+02  0.00000000000E+00 0.  1.
</event>
<event>
 8    1  0.6849590E-009  0.1169042E+03  0.7561462E-02  0.1248293E+00
          1   -1    0    0  501    0  0.00000000000E+00  0.00000000000E+00  0.33550383784E+02  0.33550383784E+02  0.00000000000E+00 0. -1.
         -1   -1    0    0    0  501 -0.00000000000E+00 -0.00000000000E+00 -0.55400217745E+03  0.55400217745E+03  0.00000000000E+00 0.  1.
         25    2    1    2    0    0  0.19962238592E+02 -0.79463445937E+02 -0.27222735751E+03  0.31059343461E+03  0.12509043624E+03 0.  0.
         23    2    1    2    0    0 -0.19962238592E+02  0.79463445937E+02 -0.24822443616E+03  0.27695912662E+03  0.91531726211E+02 0.  0.
          5    1    3    3  502    0  0.30748805182E+02 -0.11131163269E+03 -0.20579333786E+03  0.23601724280E+03  0.41800000000E+01 0.  1.
         -5    1    3    3    0  502 -0.10786566590E+02  0.31848186754E+02 -0.66434019651E+02  0.74576191813E+02  0.41800000000E+01 0.  1.
        -11    1    4    4    0    0 -0.18319123693E+02  0.31972909839E+02 -0.16433522516E+02  0.40347464837E+02  0.00000000000E+00 0. -1.
         11    1    4    4    0    0 -0.16431148991E+01  0.47490536098E+02 -0.23179091364E+03  0.23661166178E+03  0.00000000000E+00 0.  1.
</event>
<event>
 8    1  0.6849590E-009  0.9797209E+02  0.7561462E-02  0.1284619E+00
         -3   -1    0    0    0  501 -0.00000000000E+00  0.00000000000E+00  0.21606104652E+03  0.21606104652E+03  0.00000000000E+00 0.  1.
          3   -1    0    0  501    0  0.00000000000E+00 -0.00000000000E+00 -0.12404121760E+03  0.12404121760E+03  0.00000000000E+00 0. -1.
         25    2    1    2    0    0  0.77298768479E+02  0.96164361905E+01  0.15045210951E+03  0.21059682702E+03  0.12509041067E+03 0.  0.
         23    2    1    2    0    0 -0.77298768479E+02 -0.96164361905E+01 -0.58432280586E+02  0.12950543711E+03  0.85380040831E+02 0.  0.
          5    1    3    3  502    0  0.35456238003E+02  0.35410868635E+02 -0.20376889730E+01  0.50325927782E+02  0.41800000000E+01 0. -1.
         -5    1    3    3    0  502  0.41842530475E+02 -0.25794432444E+02  0.15248979848E+03  0.16027089924E+03  0.41800000000E+01 0. -1.
        -11    1    4    4    0    0 -0.42930469171E+02 -0.33517914007E+02 -0.67437899050E+02  0.86685327310E+02  0.00000000000E+00 0. -1.
         11    1    4    4    0    0 -0.34368299307E+02  0.23901477816E+02  0.90056184632E+01  0.42820109796E+02  0.00000000000E+00 0.  1.
</event>
<event>
 8    1  0.6849590E-009  0.1397032E+03  0.7561462E-02  0.1213729E+00
          2   -1    0    0  501    0  0.00000000000E+00  0.00000000000E+00  0.16913721259E+04  0.16913721259E+04  0.00000000000E+00 0. -1.
         -2   -1    0    0    0  501 -0.00000000000E+00 -0.00000000000E+00 -0.18715306941E+02  0.18715306941E+02  0.00000000000E+00 0.  1.
         25    2    1    2    0    0  0.77233190991E+02 -0.61814665239E+02  0.13629968033E+04  0.13722951053E+04  0.12509017429E+03 0.  0.
         23    2    1    2    0    0 -0.77233190991E+02  0.61814665239E+02  0.30966001573E+03  0.33779232757E+03  0.91805841837E+02 0.  0.
          5    1    3    3  502    0 -0.33271592011E+02 -0.72963221707E+01  0.39266035798E+03  0.39415715683E+03  0.41800000000E+01 0.  1.
         -5    1    3    3    0  502  0.11050478300E+03 -0.54518343068E+02  0.97033644529E+03  0.97813794848E+03  0.41800000000E+01 0.  1.
        -11    1    4    4    0    0 -0.34837186557E+02 -0.11854376774E+02  0.17288768399E+03  0.17676059259E+03  0.00000000000E+00 0. -1.
         11    1    4    4    0    0 -0.42396004434E+02  0.73669042013E+02  0.13677233174E+03  0.16103173499E+03  0.00000000000E+00 0.  1.
</event>
<event>
 8    1  0.6849590E-009  0.1551290E+03  0.7561462E-02  0.1194308E+00
         -2   -1    0    0    0  501 -0.00000000000E+00  0.00000000000E+00  0.27613243380E+03  0.27613243380E+03  0.00000000000E+00 0.  1.
          2   -1    0    0  501    0  0.00000000000E+00 -0.00000000000E+00 -0.12695919574E+03  0.12695919574E+03  0.00000000000E+00 0. -1.
         25    2    1    2    0    0 -0.12337266659E+03 -0.39744813088E+02  0.16384205972E+03  0.24349914479E+03  0.12508856044E+03 0.  0.
         23    2    1    2    0    0  0.12337266659E+03  0.39744813088E+02 -0.14668821656E+02  0.15959248475E+03  0.91946298633E+02 0.  0.
          5    1    3    3  502    0  0.25901673720E+02 -0.36330776904E+01  0.24909426693E+02  0.36359976529E+02  0.41800000000E+01 0.  1.
         -5    1    3    3    0  502 -0.14927434031E+03 -0.36111735398E+02  0.13893263303E+03  0.20713916826E+03  0.41800000000E+01 0.  1.
        -11    1    4    4    0    0  0.38860606973E+02  0.18241372807E+02  0.38325717785E+02  0.57547850523E+02  0.00000000000E+00 0.  1.
         11    1    4    4    0    0  0.84512059617E+02  0.21503440281E+02 -0.52994539441E+02  0.10204463423E+03  0.00000000000E+00 0. -1.
</event>
<event>
 8    1  0.6849590E-009  0.1023988E+03  0.7561462E-02  0.1275331E+00
          2   -1    0    0  501    0  0.00000000000E+00  0.00000000000E+00  0.84287252276E+02  0.84287252276E+02  0.00000000000E+00 0. -1.
         -2   -1    0    0    0  501 -0.00000000000E+00 -0.00000000000E+00 -0.17369780520E+03  0.17369780520E+03  0.00000000000E+00 0.  1.
         25    2    1    2    0    0 -0.17640437894E+02 -0.10276222280E+02 -0.10086982051E+03  0.16198889933E+03  0.12509555158E+03 0.  0.
         23    2    1    2    0    0  0.17640437894E+02  0.10276222280E+02  0.11459267584E+02  0.95996158139E+02  0.93097592721E+02 0.  0.
          5    1    3    3  502    0  0.20245711255E+02  0.47581812762E+02 -0.67370796135E+02  0.85030666831E+02  0.41800000000E+01 0.  1.
         -5    1    3    3    0  502 -0.37886149148E+02 -0.57858035042E+02 -0.33499024371E+02  0.76958232503E+02  0.41800000000E+01 0.  1.
        -11    1    4    4    0    0  0.11560239365E+02  0.45982817747E+02 -0.16539408811E+02  0.50215642045E+02  0.00000000000E+00 0.  1.
         11    1    4    4    0    0  0.60801985287E+01 -0.35706595467E+02  0.27998676395E+02  0.45780516094E+02  0.00000000000E+00 0. -1.
</event>
<event>
 8    1  0.6849590E-009  0.1188690E+03  0.7561462E-02  0.1244975E+00
          4   -1    0    0  501    0  0.00000000000E+00  0.00000000000E+00  0.27324380922E+02  0.27324380922E+02  0.00000000000E+00 0. -1.
         -4   -1    0    0    0  501 -0.00000000000E+00 -0.00000000000E+00 -0.87055420339E+03  0.87055420339E+03  0.00000000000E+00 0.  1.
         25    2    1    2    0    0 -0.38291875548E+02 -0.93799996187E+02 -0.31996626290E+03  0.35817845848E+03  0.12509473094E+03 0.  0.
         23    2    1    2    0    0  0.38291875548E+02  0.93799996187E+02 -0.52326355956E+03  0.53970012582E+03  0.84892673588E+02 0.  0.
          5    1    3    3  502    0  0.15495272540E+02 -0.60315348600E+02 -0.27072482974E+03  0.27782629571E+03  0.41800000000E+01 0.  1.
         -5    1    3    3    0  502 -0.53787148088E+02 -0.33484647587E+02 -0.49241433160E+02  0.80352162778E+02  0.41800000000E+01 0.  1.
        -11    1    4    4    0    0  0.11899711968E+02 -0.23429892804E+01 -0.72216202834E+01  0.14115400923E+02  0.00000000000E+00 0. -1.
         11    1    4    4    0    0  0.26392163580E+02  0.96142985467E+02 -0.51604193928E+03  0.52558472490E+03  0.00000000000E+00 0.  1.
</event>
<event>
 8    1  0.6849590E-009  0.8019114E+02  0.7561462E-02  0.1328510E+00
          1   -1    0    0  501    0  0.00000000000E+00  0.00000000000E+00  0.46983463116E+02  0.46983463116E+02  0.00000000000E+00 0. -1.
         -1   -1    0    0    0  501 -0.00000000000E+00 -0.00000000000E+00 -0.32744226531E+03  0.32744226531E+03  0.00000000000E+00 0.  1.
         25    2    1    2    0    0 -0.47781506650E+02  0.32130977370E+02 -0.12295814610E+03  0.18461912048E+03  0.12510012737E+03 0.  0.
         23    2    1    2    0    0  0.47781506650E+02 -0.32130977370E+02 -0.15750065609E+03  0.18980660795E+03  0.88907928030E+02 0.  0.
          5    1    3    3  502    0  0.22024911833E+02  0.13807039356E+02 -0.10752014558E+03  0.11069681650E+03  0.41800000000E+01 0. -1.
         -5    1    3    3    0  502 -0.69806418483E+02  0.18323938014E+02 -0.15438000522E+02  0.73922303981E+02  0.41800000000E+01 0. -1.
        -11    1    4    4    0    0  0.17406742114E+02 -0.25163965784E+02 -0.15560574433E+03  0.15858552114E+03  0.00000000000E+00 0.  1.
         11    1    4    4    0    0  0.30374764536E+02 -0.69670115857E+01 -0.18949117593E+01  0.31221086811E+02  0.00000000000E+00 0. -1.
</event>
<event>
 8    1  0.6849590E-009  0.9872901E+02  0.7561462E-02  0.1282992E+00
         -1   -1    0    0    0  501 -0.00000000000E+00  0.00000000000E+00  0.19744859251E+02  0.19744859251E+02  0.00000000000E+00 0.  1.
          1   -1    0    0  501    0  0.00000000000E+00 -0.00000000000E+00 -0.67230973989E+03  0.67230973989E+03  0.00000000000E+00 0. -1.
         25    2    1    2    0    0 -0.73548365542E+01  0.47180151747E+02 -0.36951140094E+03  0.39302174675E+03  0.12508939865E+03 0.  0.
         23    2    1    2    0    0  0.73548365542E+01 -0.47180151747E+02 -0.28305347971E+03  0.29903285240E+03  0.83793281939E+02 0.  0.
          5    1    3    3  502    0  0.31444836564E+02 -0.24706035808E+02 -0.55512441960E+02  0.68543924342E+02  0.41800000000E+01 0. -1.
         -5    1    3    3    0  502 -0.38799673118E+02  0.71886187555E+02 -0.31399895898E+03  0.32447782241E+03  0.41800000000E+01 0. -1.
        -11    1    4    4    0    0  0.47203909909E+01  0.13714135541E+02 -0.65909111392E+01  0.15931092693E+02  0.00000000000E+00 0.  1.
         11    1    4    4    0    0  0.26344455633E+01 -0.60894287288E+02 -0.27646256857E+03  0.28310175970E+03  0.00000000000E+00 0. -1.
</event>
<event>
 8    1  0.6849590E-009  0.9712812E+02  0.7561462E-02  0.1286454E+00
          1   -1    0    0  501    0  0.00000000000E+00  0.00000000000E+00  0.36401688528E+03  0.36401688528E+03  0.00000000000E+00 0. -1.
         -1   -1    0    0    0  501 -0.00000000000E+00 -0.00000000000E+00 -0.40743391133E+02  0.40743391133E+02  0.00000000000E+00 0.  1.
         25    2    1    2    0    0  0.37340120903E+02  0.34483489488E+02  0.15600063033E+03  0.20631949309E+03  0.12509252930E+03 0.  0.
         23    2    1    2    0    0 -0.37340120903E+02 -0.34483489488E+02  0.16727286381E+03  0.19844078332E+03  0.93888965493E+02 0.  0.
          5    1    3    3  502    0 -0.75750711006E+00 -0.30290659689E+02 -0.26701403194E+01  0.30703418877E+02  0.41800000000E+01 0.  1.
         -5    1    3    3    0  502  0.38097628013E+02  0.64774149177E+02  0.15867077065E+03  0.17561607421E+03  0.41800000000E+01 0.  1.
        -11    1    4    4    0    0 -0.28546403431E+02  0.18943321164E+02  0.12539226190E+03  0.12998832989E+03  0.00000000000E+00 0. -1.
         11    1    4    4    0    0 -0.87937174716E+01 -0.53426810652E+02  0.41880601919E+02  0.68452453429E+02  0.00000000000E+00 0.  1.
</event>
<event>
 8    1  0.6849590E-009  0.1353629E+03  0.7561462E-02  0.1219708E+00
         -1   -1    0    0    0  501 -0.00000000000E+00  0.00000000000E+00  0.81147848464E+02  0.81147848464E+02  0.00000000000E+00 0.  1.
          1   -1    0    0  501    0  0.00000000000E+00 -0.00000000000E+00 -0.28179577987E+03  0.28179577987E+03  0.00000000000E+00 0. -1.
         25    2    1    2    0    0 -0.86478935140E+02 -0.57044915562E+02 -0.82130436083E+02  0.18200450939E+03  0.12508998479E+03 0.  0.
         23    2    1    2    0    0  0.86478935140E+02  0.57044915562E+02 -0.11851749532E+03  0.18093911894E+03  0.89217932341E+02 0.  0.
          5    1    3    3  502    0 -0.11389910397E+03 -0.29734583162E+02 -0.39407103466E+02  0.12420766290E+03  0.41800000000E+01 0. -1.
         -5    1    3    3    0  502  0.27420168827E+02 -0.27310332400E+02 -0.42723332617E+02  0.57796846490E+02  0.41800000000E+01 0. -1.
        -11    1    4    4    0    0  0.74399359905E+01  0.29319997461E+02 -0.85867821970E+02  0.91040088689E+02  0.00000000000E+00 0. -1.
         11    1    4    4    0    0  0.79038999150E+02  0.27724918101E+02 -0.32649673353E+02  0.89899030252E+02  0.00000000000E+00 0.  1.
</event>
<event>
 8    1  0.6849590E-009  0.1123255E+03  0.7561462E-02  0.1256323E+00
          2   -1    0    0  501    0  0.00000000000E+00  0.00000000000E+00  0.13868032057E+04  0.13868032057E+04  0.00000000000E+00 0.  1.
         -2   -1    0    0    0  501 -0.00000000000E+00 -0.00000000000E+00 -0.14995311737E+02  0.14995311737E+02  0.00000000000E+00 0. -1.
         25    2    1    2    0    0 -0.59051471408E+02 -0.34421167581E+02  0.10651699884E+04  0.10746659236E+04  0.12509136733E+03 0.  0.
         23    2    1    2    0    0  0.59051471408E+02  0.34421167581E+02  0.30663790562E+03  0.32713259386E+03  0.91197783683E+02 0.  0.
          5    1    3    3  502    0 -0.69789532231E+02 -0.54464542006E+02  0.10207437204E+04  0.10245839060E+04  0.41800000000E+01 0.  1.
         -5    1    3    3    0  502  0.10738060823E+02  0.20043374425E+02  0.44426267922E+02  0.50082017632E+02  0.41800000000E+01 0.  1.
        -11    1    4    4    0    0  0.30435962393E+02  0.64542721770E+02  0.17153902443E+03  0.18578952511E+03  0.00000000000E+00 0. -1.
         11    1    4    4    0    0  0.28615509014E+02 -0.30121554189E+02  0.13509888119E+03  0.14134306875E+03  0.00000000000E+00 0.  1.
</event>
<event>
 8    1  0.6849590E-009  0.1152852E+03  0.7561462E-02  0.1251084E+00
         -2   -1    0    0    0  501 -0.00000000000E+00  0.00000000000E+00  0.40853616171E+02  0.40853616171E+02  0.00000000000E+00 0.  1.
          2   -1    0    0  501    0  0.00000000000E+00 -0.00000000000E+00 -0.43353004184E+03  0.43353004184E+03  0.00000000000E+00 0. -1.
         25    2    1    2    0    0 -0.57549316115E+02  0.43677701875E+02 -0.27351509888E+03  0.30931947494E+03  0.12509341643E+03 0.  0.
         23    2    1    2    0    0  0.57549316115E+02 -0.43677701875E+02 -0.11916132679E+03  0.16506418308E+03  0.88470883937E+02 0.  0.
          5    1    3    3  502    0  0.27476713618E+02  0.17489483503E+02 -0.16827560124E+03  0.17144970749E+03  0.41800000000E+01 0.  1.
         -5    1    3    3    0  502 -0.85026029734E+02  0.26188218373E+02 -0.10523949763E+03  0.13786976745E+03  0.41800000000E+01 0.  1.
        -11    1    4    4    0    0 -0.19071740558E+02 -0.21838529765E+02 -0.11644650138E+02  0.31245008353E+02  0.00000000000E+00 0.  1.
         11    1    4    4    0    0  0.76621056673E+02 -0.21839172111E+02 -0.10751667666E+03  0.13381917472E+03  0.00000000000E+00 0. -1.
</event>
<event>
 8    1  0.6849590E-009  0.1273044E+03  0.7561462E-02  0.1231511E+00
         -2   -1    0    0    0  501 -0.00000000000E+00  0.00000000000E+00  0.15038643088E+03  0.15038643088E+03  0.00000000000E+00 0.  1.
          2   -1    0    0  501    0  0.00000000000E+00 -0.00000000000E+00 -0.19423371199E+03  0.19423371199E+03  0.00000000000E+00 0. -1.
         25    2    1    2    0    0  0.99539447500E+02  0.48682553791E+02  0.47647389644E+02  0.17375770340E+03  0.12507347081E+03 0.  0.
         23    2    1    2    0    0 -0.99539447500E+02 -0.48682553791E+02 -0.91494670758E+02  0.17086243947E+03  0.92437036899E+02 0.  0.
          5    1    3    3  502    0  0.64618591816E+02  0.41292688494E+02  0.89933439475E+02  0.11826303086E+03  0.41800000000E+01 0. -1.
         -5    1    3    3    0  502  0.34920855684E+02  0.73898652971E+01 -0.42286049831E+02  0.55494672548E+02  0.41800000000E+01 0. -1.
        -11    1    4    4    0    0 -0.39962136776E+02  0.24983406864E+02 -0.45642354910E+02  0.65607679093E+02  0.00000000000E+00 0. -1.
         11    1    4    4    0    0 -0.59577310724E+02 -0.73665960656E+02 -0.45852315848E+02  0.10525476037E+03  0.00000000000E+00 0.  1.
</event>
<event>
 8    1  0.6849590E-009  0.9007137E+02  0.7561462E-02  0.1302679E+00
         -2   -1    0    0    0  501 -0.00000000000E+00  0.00000000000E+00  0.12866034171E+02  0.12866034171E+02  0.00000000000E+00 0.  1.
          2   -1    0    0  501    0  0.00000000000E+00 -0.00000000000E+00 -0.18710580163E+04  0.18710580163E+04  0.00000000000E+00 0. -1.
         25    2    1    2    0    0 -0.65169340796E+01  0.82224367299E+02 -0.15583157828E+04  0.15655029757E+04  0.12509265021E+03 0.  0.
         23    2    1    2    0    0  0.65169340796E+01 -0.82224367299E+02 -0.29987619938E+03  0.31842107477E+03  0.68285641973E+02 0.  0.
          5    1    3    3  502    0  0.22487588510E+01  0.30747369582E+01 -0.11186382746E+04  0.11186525701E+04  0.41800000000E+01 0.  1.
         -5    1    3    3    0  502 -0.87656929306E+01  0.79149630341E+02 -0.43967750819E+03  0.44685040558E+03  0.41800000000E+01 0.  1.
        -11    1    4    4    0    0 -0.16043253893E+02 -0.63288699809E+02 -0.12442567050E+03  0.14051545466E+03  0.00000000000E+00 0.  1.
         11    1    4    4    0    0  0.22560187973E+02 -0.18935667490E+02 -0.17545052888E+03  0.17790562011E+03  0.00000000000E+00 0. -1.
</event>
<event>
 8    1  0.6849590E-009  0.1020435E+03  0.7561462E-02  0.1276057E+00
          1   -1    0    0  501    0  0.00000000000E+00  0.00000000000E+00  0.63374787685E+02  0.63374787685E+02  0.00000000000E+00 0. -1.
         -1   -1    0    0    0  501 -0.00000000000E+00 -0.00000000000E+00 -0.21387261798E+03  0.21387261798E+03  0.00000000000E+00 0.  1.
         25    2    1    2    0    0  0.22979378583E+02 -0.14541062311E+02 -0.12686273355E+03  0.18022463251E+03  0.12508905094E+03 0.  0.
         23    2    1    2    0    0 -0.22979378583E+02  0.14541062311E+02 -0.23635096740E+02  0.97022773155E+02  0.90084995308E+02 0.  0.
          5    1    3    3  502    0 -0.18020055788E+02 -0.51513550571E+02 -0.17191930341E+02  0.57370751886E+02  0.41800000000E+01 0.  1.
         -5    1    3    3    0  502  0.40999434371E+02  0.36972488260E+02 -0.10967080321E+03  0.12285388062E+03  0.41800000000E+01 0.  1.
        -11    1    4    4    0    0 -0.60021132371E+01 -0.38154549946E+02 -0.73765360970E+01  0.39321855624E+02  0.00000000000E+00 0.  1.
         11    1    4    4    0    0 -0.16977265346E+02  0.52695612257E+02 -0.16258560643E+02  0.57700917531E+02  0.00000000000E+00 0. -1.
</event>
<event>
 8    1  0.6849590E-009  0.1280130E+03  0.7561462E-02  0.1230434E+00
         -1   -1    0    0    0  501 -0.00000000000E+00  0.00000000000E+00  0.22091771378E+02  0.22091771378E+02  0.00000000000E+00 0.  1.
          1   -1    0    0  501    0  0.00000000000E+00 -0.00000000000E+00 -0.12147695593E+04  0.12147695593E+04  0.00000000000E+00 0. -1.
         25    2    1    2    0    0  0.10848108446E+02 -0.99284184204E+02 -0.90629264538E+03  0.92032024848E+03  0.12509184623E+03 0.  0.
         23    2    1    2    0    0 -0.10848108446E+02  0.99284184204E+02 -0.28638514258E+03  0.31654108224E+03  0.90591258774E+02 0.  0.
          5    1    3    3  502    0  0.18880686534E+01  0.10669470564E+02 -0.47437496021E+03  0.47451709946E+03  0.41800000000E+01 0.  1.
         -5    1    3    3    0  502  0.89600397924E+01 -0.10995365477E+03 -0.43191768518E+03  0.44580314902E+03  0.41800000000E+01 0.  1.
        -11    1    4    4    0    0 -0.18977785459E+02  0.11487502959E+03 -0.23563505248E+03  0.26283132751E+03  0.00000000000E+00 0. -1.
         11    1    4    4    0    0  0.81296770131E+01 -0.15590845383E+02 -0.50750090103E+02  0.53709754734E+02  0.00000000000E+00 0.  1.
</event>
<event>
 8    1  0.6849590E-009  0.1113429E+03  0.7561462E-02  0.1258103E+00
          2   -1    0    0  501    0  0.00000000000E+00  0.00000000000E+00  0.26877544297E+02  0.26877544297E+02  0.00000000000E+00 0. -1.
         -2   -1    0    0    0  501 -0.00000000000E+00 -0.00000000000E+00 -0.64820416107E+03  0.64820416107E+03  0.00000000000E+00 0.  1.
         25    2    1    2    0    0  0.39062374971E+02 -0.61461596339E+02 -0.30738168524E+03  0.33975711665E+03  0.12509196988E+03 0.  0.
         23    2    1    2    0    0 -0.39062374971E+02  0.61461596339E+02 -0.31394493153E+03  0.33532458872E+03  0.92616212413E+02 0.  0.
          5    1    3    3  502    0  0.75360624330E+02 -0.32423522026E+02 -0.11210322351E+03  0.13897882429E+03  0.41800000000E+01 0. -1.
         -5    1    3    3    0  502 -0.36298249358E+02 -0.29038074313E+02 -0.19527846172E+03  0.20077829235E+03  0.41800000000E+01 0. -1.
        -11    1    4    4    0    0  0.80718042656E+01  0.42175038240E+02 -0.24958838435E+03  0.25325530494E+03  0.00000000000E+00 0.  1.
         11    1    4    4    0    0 -0.47134179237E+02  0.19286558098E+02 -0.64356547179E+02  0.82069283782E+02  0.00000000000E+00 0. -1.
</event>
<event>
 8    1  0.6849590E-009  0.1632615E+03  0.7561462E-02  0.1185063E+00
          2   -1    0    0  501    0  0.00000000000E+00  0.00000000000E+00  0.12099516070E+04  0.12099516070E+04  0.00000000000E+00 0.  1.
         -2   -1    0    0    0  501 -0.00000000000E+00 -0.00000000000E+00 -0.25973899935E+02  0.25973899935E+02  0.00000000000E+00 0. -1.
         25    2    1    2    0    0  0.40719495397E+02  0.12569142278E+03  0.47135829898E+03  0.50525524809E+03  0.12509120126E+03 0.  0.
         23    2    1    2    0    0 -0.40719495397E+02 -0.12569142278E+03  0.71261940804E+03  0.73067025880E+03  0.92715669222E+02 0.  0.
          5    1    3    3  502    0  0.53166283741E+02  0.14483821930E+03  0.43965684129E+03  0.46596177310E+03  0.41800000000E+01 0.  1.
         -5    1    3    3    0  502 -0.12446788344E+02 -0.19146796515E+02  0.31701457693E+02  0.39293474989E+02  0.41800000000E+01 0.  1.
        -11    1    4    4    0    0 -0.17745340754E+02  0.32066004277E+01  0.25767482856E+02  0.31450637156E+02  0.00000000000E+00 0. -1.
         11    1    4    4    0    0 -0.22974154643E+02 -0.12889802321E+03  0.68685192518E+03  0.69921962165E+03  0.00000000000E+00 0.  1.
</event>
<event>
 8    1  0.6849590E-009  0.9287063E+02  0.7561462E-02  0.1296045E+00
         -1   -1    0    0    0  501 -0.00000000000E+00  0.00000000000E+00  0.79644090186E+02  0.79644090186E+02  0.00000000000E+00 0.  1.
          1   -1    0    0  501    0  0.00000000000E+00 -0.00000000000E+00 -0.18790158946E+03  0.18790158946E+03  0.00000000000E+00 0. -1.
         25    2    1    2    0    0 -0.49754652119E+02 -0.10720546475E+01 -0.34808196774E+02  0.13905347704E+03  0.12509030421E+03 0.  0.
         23    2    1    2    0    0  0.49754652119E+02  0.10720546475E+01 -0.73449302501E+02  0.12849220260E+03  0.92944991169E+02 0.  0.
          5    1    3    3  502    0 -0.52478507093E+02  0.55026777448E+02 -0.32174425461E+02  0.82671675904E+02  0.41800000000E+01 0.  1.
         -5    1    3    3    0  502  0.27238549739E+01 -0.56098832095E+02 -0.26337713134E+01  0.56381801139E+02  0.41800000000E+01 0.  1.
        -11    1    4    4    0    0  0.37788511334E+02 -0.75281134340E+01 -0.94924918378E+02  0.10244698243E+03  0.00000000000E+00 0. -1.
         11    1    4    4    0    0  0.11966140786E+02  0.86001680815E+01  0.21475615878E+02  0.26045220169E+02  0.00000000000E+00 0.  1.
</event>
<event>
 8    1  0.6849590E-009  0.1069435E+03  0.7561462E-02  0.1266337E+00
          1   -1    0    0  501    0  0.00000000000E+00  0.00000000000E+00  0.10349598141E+03  0.10349598141E+03  0.00000000000E+00 0. -1.
         -1   -1    0    0    0  501 -0.00000000000E+00 -0.00000000000E+00 -0.16907576903E+03  0.16907576903E+03  0.00000000000E+00 0.  1.
         25    2    1    2    0    0 -0.67953165178E+02 -0.54946972867E+01 -0.64463842900E+02  0.15637057433E+03  0.12509334562E+03 0.  0.
         23    2    1    2    0    0  0.67953165178E+02  0.54946972867E+01 -0.11159447219E+01  0.11620117611E+03  0.94093802349E+02 0.  0.
          5    1    3    3  502    0 -0.28004555845E+02  0.33362859340E+02 -0.85988657676E+02  0.96482419022E+02  0.41800000000E+01 0.  1.
         -5    1    3    3    0  502 -0.39948609333E+02 -0.38857556626E+02  0.21524814776E+02  0.59888155304E+02  0.41800000000E+01 0.  1.
        -11    1    4    4    0    0  0.14185186874E+02  0.45218840143E+02  0.99933876071E+01  0.48433777742E+02  0.00000000000E+00 0.  1.
         11    1    4    4    0    0  0.53767978305E+02 -0.39724142856E+02 -0.11109332329E+02  0.67767398367E+02  0.00000000000E+00 0. -1.
</event>
<event>
 8    1  0.6849590E-009  0.1442840E+03  0.7561462E-02  0.1207678E+00
         -2   -1    0    0    0  501 -0.00000000000E+00  0.00000000000E+00  0.35047844088E+03  0.35047844088E+03  0.00000000000E+00 0.  1.
          2   -1    0    0  501    0  0.00000000000E+00 -0.00000000000E+00 -0.64957611190E+02  0.64957611190E+02  0.00000000000E+00 0. -1.
         25    2    1    2    0    0  0.93951541239E+02 -0.40710820590E+02  0.19377135075E+03  0.25234723190E+03  0.12509007180E+03 0.  0.
         23    2    1    2    0    0 -0.93951541239E+02  0.40710820590E+02  0.91749478945E+02  0.16308882017E+03  0.87725329092E+02 0.  0.
          5    1    3    3  502    0  0.10187884146E+03  0.15946118168E+02  0.13819059642E+03  0.17247518767E+03  0.41800000000E+01 0.  1.
         -5    1    3    3    0  502 -0.79273002209E+01 -0.56656938758E+02  0.55580754328E+02  0.79872044233E+02  0.41800000000E+01 0.  1.
        -11    1    4    4    0    0 -0.75236187362E+02 -0.81536657537E+01  0.28178938370E+02  0.80752824852E+02  0.00000000000E+00 0. -1.
         11    1    4    4    0    0 -0.18715353878E+02  0.48864486344E+02  0.63570540575E+02  0.82335995320E+02  0.00000000000E+00 0.  1.
</event>
<event>
 8    1  0.6849590E-009  0.8065344E+02  0.7561462E-02  0.1327207E+00
          1   -1    0    0  501    0  0.00000000000E+00  0.00000000000E+00  0.72822375638E+02  0.72822375638E+02  0.00000000000E+00 0. -1.
         -1   -1    0    0    0  501 -0.00000000000E+00 -0.00000000000E+00 -0.18216820925E+03  0.18216820925E+03  0.00000000000E+00 0.  1.
         25    2    1    2    0    0 -0.79947969888E+01  0.30118168462E+01 -0.11221413885E+03  0.16826235897E+03  0.12508885110E+03 0.  0.
         23    2    1    2    0    0  0.79947969888E+01 -0.30118168462E+01  0.28683052412E+01  0.86728225917E+02  0.86258739709E+02 0.  0.
          5    1    3    3  502    0 -0.47425311643E+02  0.30771414726E+02 -0.10499950901E+03  0.11932480648E+03  0.41800000000E+01 0.  1.
         -5    1    3    3    0  502  0.39430514654E+02 -0.27759597880E+02 -0.72146298434E+01  0.48937552494E+02  0.41800000000E+01 0.  1.
        -11    1    4    4    0    0 -0.18743043583E+02  0.14975619869E+02 -0.31512751713E+02  0.39605863123E+02  0.00000000000E+00 0.  1.
         11    1    4    4    0    0  0.26737840572E+02 -0.17987436715E+02  0.34381056954E+02  0.47122362794E+02  0.00000000000E+00 0. -1.
</event>
<event>
 8    1  0.6849590E-009  0.1040842E+03  0.7561462E-02  0.1271934E+00
         -3   -1    0    0    0  501 -0.00000000000E+00  0.00000000000E+00  0.18409343458E+03  0.18409343458E+03  0.00000000000E+00 0.  1.
          3   -1    0    0  501    0  0.00000000000E+00 -0.00000000000E+00 -0.12405386310E+03  0.12405386310E+03  0.00000000000E+00 0. -1.
         25    2    1    2    0    0  0.51197591108E+02 -0.71842271609E+02 -0.25266062404E+02  0.15514683783E+03  0.12509860932E+03 0.  0.
         23    2    1    2    0    0 -0.51197591108E+02  0.71842271609E+02  0.85305633890E+02  0.15300045985E+03  0.91376059315E+02 0.  0.
          5    1    3    3  502    0 -0.39644923152E+01 -0.63765214862E+02 -0.61295572837E+02  0.88635994241E+02  0.41800000000E+01 0.  1.
         -5    1    3    3    0  502  0.55162083423E+02 -0.80770567471E+01  0.36029510433E+02  0.66510843592E+02  0.41800000000E+01 0.  1.
        -11    1    4    4    0    0 -0.24008282449E+02  0.32149772076E+02  0.95706346896E+02  0.10377721478E+03  0.00000000000E+00 0.  1.
         11    1    4    4    0    0 -0.27189308659E+02  0.39692499532E+02 -0.10400713006E+02  0.49223245073E+02  0.00000000000E+00 0. -1.
</event>
<event>
 8    1  0.6849590E-009  0.9751250E+02  0.7561462E-02  0.1285616E+00
          1   -1    0    0  501    0  0.00000000000E+00  0.00000000000E+00  0.12109405891E+03  0.12109405891E+03  0.00000000000E+00 0. -1.
         -1   -1    0    0    0  501 -0.00000000000E+00 -0.00000000000E+00 -0.10403577943E+03  0.10403577943E+03  0.00000000000E+00 0.  1.
         25    2    1    2    0    0  0.28227076716E+02  0.13081271774E+02  0.12802420388E+02  0.12953610945E+03  0.12509122332E+03 0.  0.
         23    2    1    2    0    0 -0.28227076716E+02 -0.13081271774E+02  0.42558590964E+01  0.95593728892E+02  0.90289319057E+02 0.  0.
          5    1    3    3  502    0  0.34414106462E+02 -0.51989424913E+02 -0.14552155435E+01  0.62504568462E+02  0.41800000000E+01 0.  1.
         -5    1    3    3    0  502 -0.61870297460E+01  0.65070696687E+02  0.14257635932E+02  0.67031540985E+02  0.41800000000E+01 0.  1.
        -11    1    4    4    0    0 -0.31131581353E+02  0.17907871941E+02 -0.31794417385E+02  0.47966156943E+02  0.00000000000E+00 0.  1.
         11    1    4    4    0    0  0.29045046377E+01 -0.30989143715E+02  0.36050276481E+02  0.47627571949E+02  0.00000000000E+00 0. -1.
</event>
<event>
 8    1  0.6849590E-009  0.9327502E+02  0.7561462E-02  0.1295109E+00
          3   -1    0    0  501    0  0.00000000000E+00  0.00000000000E+00  0.37268849240E+02  0.37268849240E+02  0.00000000000E+00 0. -1.
         -3   -1    0    0    0  501 -0.00000000000E+00 -0.00000000000E+00 -0.39787039499E+03  0.39787039499E+03  0.00000000000E+00 0.  1.
         25    2    1    2    0    0 -0.30037921127E+02 -0.26492418796E+02 -0.27786795774E+03  0.30734950194E+03  0.12509592099E+03 0.  0.
         23    2    1    2    0    0  0.30037921127E+02  0.26492418796E+02 -0.82733588013E+02  0.12778974229E+03  0.88776385874E+02 0.  0.
          5    1    3    3  502    0 -0.33518676823E+02 -0.52611321722E+02 -0.27320279212E+03  0.28026539368E+03  0.41800000000E+01 0. -1.
         -5    1    3    3    0  502  0.34807556958E+01  0.26118902927E+02 -0.46651656137E+01  0.27084108265E+02  0.41800000000E+01 0. -1.
        -11    1    4    4    0    0 -0.10672714691E+02  0.49465706108E+02 -0.41096112411E+02  0.65189365505E+02  0.00000000000E+00 0.  1.
         11    1    4    4    0    0  0.40710635819E+02 -0.22973287312E+02 -0.41637475603E+02  0.62600376782E+02  0.00000000000E+00 0. -1.
</event>
<event>
 8    1  0.6849590E-009  0.1067982E+03  0.7561462E-02  0.1266617E+00
          1   -1    0    0  501    0  0.00000000000E+00  0.00000000000E+00  0.46638450342E+02  0.46638450342E+02  0.00000000000E+00 0. -1.
         -1   -1    0    0    0  501 -0.00000000000E+00 -0.00000000000E+00 -0.29157405691E+03  0.29157405691E+03  0.00000000000E+00 0.  1.
         25    2    1    2    0    0 -0.17470601999E+02  0.34997944622E+01 -0.13387200812E+03  0.18408073923E+03  0.12508610435E+03 0.  0.
         23    2    1    2    0    0  0.17470601999E+02 -0.34997944622E+01 -0.11106359844E+03  0.15413176802E+03  0.10537555939E+03 0.  0.
          5    1    3    3  502    0 -0.61911411607E+02  0.54104462178E+01 -0.12334395745E+03  0.13817923164E+03  0.41800000000E+01 0. -1.
         -5    1    3    3    0  502  0.44440809608E+02 -0.19106517555E+01 -0.10528050668E+02  0.45901507596E+02  0.41800000000E+01 0. -1.
        -11    1    4    4    0    0  0.62011088931E+02 -0.97403643245E+00 -0.69654853455E+02  0.93263725570E+02  0.00000000000E+00 0. -1.
         11    1    4    4    0    0 -0.44540486931E+02 -0.25257580298E+01 -0.41408744988E+02  0.60868042446E+02  0.00000000000E+00 0.  1.
</event>
<event>
 8    1  0.6849590E-009  0.1266141E+03  0.7561462E-02  0.1232568E+00
          1   -1    0    0  501    0  0.00000000000E+00  0.00000000000E+00  0.16858908151E+03  0.16858908151E+03  0.00000000000E+00 0. -1.
         -1   -1    0    0    0  501 -0.00000000000E+00 -0.00000000000E+00 -0.97754216155E+02  0.97754216155E+02  0.00000000000E+00 0.  1.
         25    2    1    2    0    0  0.13088262013E+02 -0.64394392298E+02  0.55304318278E+02  0.15174816540E+03  0.12510394766E+03 0.  0.
         23    2    1    2    0    0 -0.13088262013E+02  0.64394392298E+02  0.15530547081E+02  0.11459513227E+03  0.92589989117E+02 0.  0.
          5    1    3    3  502    0  0.37984747236E+02 -0.94527746105E+02  0.41546455161E+02  0.11009957376E+03  0.41800000000E+01 0.  1.
         -5    1    3    3    0  502 -0.24896485223E+02  0.30133353807E+02  0.13757863116E+02  0.41648591640E+02  0.41800000000E+01 0.  1.
        -11    1    4    4    0    0 -0.44471633139E+02  0.49611615350E+01 -0.30871485244E+01  0.44853871225E+02  0.00000000000E+00 0.  1.
         11    1    4    4    0    0  0.31383371126E+02  0.59433230763E+02  0.18617695605E+02  0.69741261042E+02  0.00000000000E+00 0. -1.
</event>
<event>
 8    1  0.6849590E-009  0.1347707E+03  0.7561462E-02  0.1220544E+00
          1   -1    0    0  501    0  0.00000000000E+00  0.00000000000E+00  0.54602714542E+02  0.54602714542E+02  0.00000000000E+00 0. -1.
         -1   -1    0    0    0  501 -0.00000000000E+00 -0.00000000000E+00 -0.60075113226E+03  0.60075113226E+03  0.00000000000E+00 0.  1.
         25    2    1    2    0    0 -0.56871594029E+02 -0.64907392871E+02 -0.49824827448E+03  0.52090999398E+03  0.12509408839E+03 0.  0.
         23    2    1    2    0    0  0.56871594029E+02  0.64907392871E+02 -0.47900143236E+02  0.13444385282E+03  0.91287337469E+02 0.  0.
          5    1    3    3  502    0  0.38922815814E+02 -0.16285526996E+02 -0.10517371009E+03  0.11339834952E+03  0.41800000000E+01 0.  1.
         -5    1    3    3    0  502 -0.95794409842E+02 -0.48621865875E+02 -0.39307456439E+03  0.40751164446E+03  0.41800000000E+01 0.  1.
        -11    1    4    4    0    0  0.60813004706E+02  0.65739440289E+01 -0.44941820505E+02  0.75902605435E+02  0.00000000000E+00 0.  1.
         11    1    4    4    0    0 -0.39414106778E+01  0.58333448843E+02 -0.29583227315E+01  0.58541247385E+02  0.00000000000E+00 0. -1.
</event>
<event>
 8    1  0.6849590E-009  0.8343083E+02  0.7561462E-02  0.1319588E+00
          2   -1    0    0  501    0  0.00000000000E+00  0.00000000000E+00  0.10441455073E+03  0.10441455073E+03  0.00000000000E+00 0. -1.
         -2   -1    0    0    0  501 -0.00000000000E+00 -0.00000000000E+00 -0.14549471036E+03  0.14549471036E+03  0.00000000000E+00 0.  1.
         25    2    1    2    0    0  0.10904853679E+02  0.56175179634E+02 -0.21392754921E+02  0.13920696395E+03  0.12508541965E+03 0.  0.
         23    2    1    2    0    0 -0.10904853679E+02 -0.56175179634E+02 -0.19687404709E+02  0.11070229715E+03  0.92697562259E+02 0.  0.
          5    1    3    3  502    0  0.22895610664E+01  0.10697706652E+02  0.51469300572E+02  0.52784887220E+02  0.41800000000E+01 0.  1.
         -5    1    3    3    0  502  0.86152926129E+01  0.45477472981E+02 -0.72862055493E+02  0.86422076729E+02  0.41800000000E+01 0.  1.
        -11    1    4    4    0    0  0.39490903169E+02 -0.38817383774E+02 -0.61948625993E+01  0.55719808316E+02  0.00000000000E+00 0.  1.
         11    1    4    4    0    0 -0.50395756848E+02 -0.17357795860E+02 -0.13492542110E+02  0.54982488831E+02  0.00000000000E+00 0. -1.
</event>
<event>
 8    1  0.6849590E-009  0.1067274E+03  0.7561462E-02  0.1266753E+00
         -2   -1    0    0    0  501 -0.00000000000E+00  0.00000000000E+00  0.13879586316E+03  0.13879586316E+03  0.00000000000E+00 0.  1.
          2   -1    0    0  501    0  0.00000000000E+00 -0.00000000000E+00 -0.10587958054E+03  0.10587958054E+03  0.00000000000E+00 0. -1.
         25    2    1    2    0    0  0.24652765326E+02  0.37080275830E+02  0.24855538927E+02  0.13509369723E+03  0.12509917475E+03 0.  0.
         23    2    1    2    0    0 -0.24652765326E+02 -0.37080275830E+02  0.80607436916E+01  0.10958174646E+03  0.99802193739E+02 0.  0.
          5    1    3    3  502    0  0.60661292468E+02  0.48297814036E+02 -0.16054004361E+02  0.79294859232E+02  0.41800000000E+01 0.  1.
         -5    1    3    3    0  502 -0.36008527142E+02 -0.11217538206E+02  0.40909543288E+02  0.55798838002E+02  0.41800000000E+01 0.  1.
        -11    1    4    4    0    0 -0.21806532985E+02 -0.65633426102E+02  0.28026835960E+02  0.74624225534E+02  0.00000000000E+00 0.  1.
         11    1    4    4    0    0 -0.28462323416E+01  0.28553150272E+02 -0.19966092268E+02  0.34957520928E+02  0.00000000000E+00 0. -1.
</event>
<event>
 8    1  0.6849590E-009  0.7906162E+02  0.7561462E-02  0.1331736E+00
         -1   -1    0    0    0  501 -0.00000000000E+00  0.00000000000E+00  0.10587136467E+03  0.10587136467E+03  0.00000000000E+00 0.  1.
          1   -1    0    0  501    0  0.00000000000E+00 -0.00000000000E+00 -0.15466806217E+03  0.15466806217E+03  0.00000000000E+00 0. -1.
         25    2    1    2    0    0 -0.48182549900E+02 -0.15460919407E+01  0.22021509470E+02  0.13585746252E+03  0.12509338403E+03 0.  0.
         23    2    1    2    0    0  0.48182549900E+02  0.15460919407E+01 -0.70818206973E+02  0.12468196432E+03  0.90589322066E+02 0.  0.
          5    1    3    3  502    0 -0.45743804165E+02 -0.43120088403E+02 -0.29425536527E+02  0.69535402805E+02  0.41800000000E+01 0. -1.
         -5    1    3    3    0  502 -0.24387457351E+01  0.41573996462E+02  0.51447045997E+02  0.66322059711E+02  0.41800000000E+01 0. -1.
        -11    1    4    4    0    0  0.19485185374E+02 -0.10510179316E+02  0.19280656351E+02  0.29357793303E+02  0.00000000000E+00 0.  1.
         11    1    4    4    0    0  0.28697364526E+02  0.12056271257E+02 -0.90098863325E+02  0.95324171015E+02  0.00000000000E+00 0. -1.
</event>
<event>
 8    1  0.6849590E-009  0.9259663E+02  0.7561462E-02  0.1296683E+00
          1   -1    0    0  501    0  0.00000000000E+00  0.00000000000E+00  0.18155092316E+03  0.18155092316E+03  0.00000000000E+00 0. -1.
         -1   -1    0    0    0  501 -0.00000000000E+00 -0.00000000000E+00 -0.86066146334E+02  0.86066146334E+02  0.00000000000E+00 0.  1.
         25    2    1    2    0    0  0.25356960773E+01 -0.49864420820E+02  0.94170608782E+02  0.16431290674E+03  0.12505093980E+03 0.  0.
         23    2    1    2    0    0 -0.25356960773E+01  0.49864420820E+02  0.13141680460E+01  0.10330416275E+03  0.90427500168E+02 0.  0.
          5    1    3    3  502    0 -0.33712646566E+02 -0.80123424407E+02  0.65403470811E+02  0.10886409909E+03  0.41800000000E+01 0. -1.
         -5    1    3    3    0  502  0.36248342643E+02  0.30259003588E+02  0.28767137972E+02  0.55448807648E+02  0.41800000000E+01 0. -1.
        -11    1    4    4    0    0 -0.60207242047E+01  0.30919792057E+02 -0.43972406304E+02  0.54091174668E+02  0.00000000000E+00 0.  1.
         11    1    4    4    0    0  0.34850281274E+01  0.18944628762E+02  0.45286574350E+02  0.49212988086E+02  0.00000000000E+00 0. -1.
</event>
<event>
 8    1  0.6849590E-009  0.1514817E+03  0.7561462E-02  0.1198664E+00
          2   -1    0    0  501    0  0.00000000000E+00  0.00000000000E+00  0.11194190759E+04  0.11194190759E+04  0.00000000000E+00 0. -1.
         -2   -1    0    0    0  501 -0.00000000000E+00 -0.00000000000E+00 -0.28085501937E+02  0.28085501937E+02  0.00000000000E+00 0.  1.
         25    2    1    2    0    0 -0.13722908854E+03 -0.19674231890E+02  0.63418844045E+03  0.66110619939E+03  0.12509009048E+03 0.  0.
         23    2    1    2    0    0  0.13722908854E+03  0.19674231890E+02  0.45714513354E+03  0.48639837847E+03  0.91557693924E+02 0.  0.
          5    1    3    3  502    0 -0.72662557624E+02 -0.39457171705E+02  0.53293958123E+03  0.53933179521E+03  0.41800000000E+01 0.  1.
         -5    1    3    3    0  502 -0.64566530913E+02  0.19782939816E+02  0.10124885921E+03  0.12177440418E+03  0.41800000000E+01 0.  1.
        -11    1    4    4    0    0  0.75445308407E+02  0.42568102130E+02  0.35045492810E+03  0.36100234696E+03  0.00000000000E+00 0. -1.
         11    1    4    4    0    0  0.61783780130E+02 -0.22893870241E+02  0.10669020544E+03  0.12539603151E+03  0.00000000000E+00 0.  1.
</event>
<event>
 7    1  0.6849590E-009  0.1297435E+03  0.7561462E-02  0.1227837E+00
          2   -1    0    0  501    0  0.00000000000E+00  0.00000000000E+00  0.32606034820E+03  0.32606034820E+03  0.00000000000E+00 0. -1.
         -2   -1    0    0    0  501 -0.00000000000E+00 -0.00000000000E+00 -0.92707837225E+02  0.92707837225E+02  0.00000000000E+00 0.  1.
         23    2    1    2    0    0 -0.25277218973E+02 -0.10017012215E+03  0.21355938482E+03  0.25468930398E+03  0.92660884663E+02 0.  0.
          5    1    1    2  502    0 -0.13371503343E+02  0.11198336720E+03  0.38644227140E+02  0.11928922970E+03  0.41800000000E+01 0. -1.
         -5    1    1    2    0  502  0.38648722315E+02 -0.11813245055E+02 -0.18851100981E+02  0.44789651746E+02  0.41800000000E+01 0. -1.
        -11    1    3    3    0    0  0.30193339255E+01 -0.32680808644E+02  0.16169714302E+03  0.16499429593E+03  0.00000000000E+00 0. -1.
         11    1    3    3    0    0 -0.28296552898E+02 -0.67489313505E+02  0.51862241799E+02  0.89695008042E+02  0.00000000000E+00 0.  1.
</event>
<event>
 8    1  0.6849590E-009  0.7969541E+02  0.7561462E-02  0.1329918E+00
         -4   -1    0    0    0  501 -0.00000000000E+00  0.00000000000E+00  0.11608621305E+03  0.11608621305E+03  0.00000000000E+00 0.  1.
          4   -1    0    0  501    0  0.00000000000E+00 -0.00000000000E+00 -0.10104780015E+03  0.10104780015E+03  0.00000000000E+00 0. -1.
         25    2    1    2    0    0 -0.11685819674E+02  0.18825286958E+01  0.82658533106E+01  0.12591907906E+03  0.12508871989E+03 0.  0.
         23    2    1    2    0    0  0.11685819674E+02 -0.18825286958E+01  0.67725595903E+01  0.91214934149E+02  0.90189768559E+02 0.  0.
          5    1    3    3  502    0  0.94014135225E+01 -0.47570807743E+02 -0.32323396531E+02  0.58426386923E+02  0.41800000000E+01 0.  1.
         -5    1    3    3    0  502 -0.21087233196E+02  0.49453336439E+02  0.40589249842E+02  0.67492692134E+02  0.41800000000E+01 0.  1.
        -11    1    4    4    0    0  0.14047158959E+02  0.25606284016E+02  0.39042877296E+02  0.48758083673E+02  0.00000000000E+00 0.  1.
         11    1    4    4    0    0 -0.23613392856E+01 -0.27488812712E+02 -0.32270317706E+02  0.42456850476E+02  0.00000000000E+00 0. -1.
</event>
<event>
 8    1  0.6849590E-009  0.1792085E+03  0.7561462E-02  0.1168571E+00
          1   -1    0    0  501    0  0.00000000000E+00  0.00000000000E+00  0.83364473805E+03  0.83364473805E+03  0.00000000000E+00 0. -1.
         -1   -1    0    0    0  501 -0.00000000000E+00 -0.00000000000E+00 -0.47896041889E+02  0.47896041889E+02  0.00000000000E+00 0.  1.
         25    2    1    2    0    0 -0.15673571290E+03  0.20013573608E+02  0.29378684494E+03  0.35626516600E+03  0.12509009319E+03 0.  0.
         23    2    1    2    0    0  0.15673571290E+03 -0.20013573608E+02  0.49196185122E+03  0.52527561394E+03  0.94453060927E+02 0.  0.
          5    1    3    3  502    0 -0.19616158411E+02 -0.23372847634E+02  0.14898397032E+03  0.15213408391E+03  0.41800000000E+01 0. -1.
         -5    1    3    3    0  502 -0.13711955449E+03  0.43386421242E+02  0.14480287462E+03  0.20413108208E+03  0.41800000000E+01 0. -1.
        -11    1    4    4    0    0  0.42835222674E+01 -0.30618925624E+02  0.71283333125E+02  0.77699296977E+02  0.00000000000E+00 0.  1.
         11    1    4    4    0    0  0.15245219064E+03  0.10605352016E+02  0.42067851809E+03  0.44757631696E+03  0.00000000000E+00 0. -1.
</event>
<event>
 8    1  0.6849590E-009  0.1486092E+03  0.7561462E-02  0.1202192E+00
         -2   -1    0    0    0  501 -0.00000000000E+00  0.00000000000E+00  0.44656927797E+02  0.44656927797E+02  0.00000000000E+00 0.  1.
          2   -1    0    0  501    0  0.00000000000E+00 -0.00000000000E+00 -0.55139538619E+03  0.55139538619E+03  0.00000000000E+00 0. -1.
         25    2    1    2    0    0  0.24569827387E+02  0.10498917353E+03 -0.33393508962E+03  0.37254154334E+03  0.12509258355E+03 0.  0.
         23    2    1    2    0    0 -0.24569827387E+02 -0.10498917353E+03 -0.17280336878E+03  0.22351077065E+03  0.92030741382E+02 0.  0.
          5    1    3    3  502    0 -0.73714755477E+01 -0.27481376273E+02 -0.54417263873E+02  0.61548969943E+02  0.41800000000E+01 0.  1.
         -5    1    3    3    0  502  0.31941302935E+02  0.13247054980E+03 -0.27951782575E+03  0.31099257340E+03  0.41800000000E+01 0.  1.
        -11    1    4    4    0    0 -0.52378534173E+02 -0.70384467859E+02 -0.72472042725E+02  0.11379666574E+03  0.00000000000E+00 0.  1.
         11    1    4    4    0    0  0.27808706786E+02 -0.34604705672E+02 -0.10033132605E+03  0.10971410491E+03  0.00000000000E+00 0. -1.
</event>
<event>
 8    1  0.6849590E-009  0.8766687E+02  0.7561462E-02  0.1308602E+00
          2   -1    0    0  501    0  0.00000000000E+00  0.00000000000E+00  0.11647850431E+03  0.11647850431E+03  0.00000000000E+00 0. -1.
         -2   -1    0    0    0  501 -0.00000000000E+00 -0.00000000000E+00 -0.13993176562E+03  0.13993176562E+03  0.00000000000E+00 0.  1.
         25    2    1    2    0    0  0.28804536675E+02  0.21080679545E+02 -0.80086810996E+02  0.15275968456E+03  0.12509007774E+03 0.  0.
         23    2    1    2    0    0 -0.28804536675E+02 -0.21080679545E+02  0.56633549677E+02  0.10365058537E+03  0.79132727210E+02 0.  0.
          5    1    3    3  502    0 -0.31690556329E+02  0.87984999863E+01  0.17288682159E+02  0.37390853069E+02  0.41800000000E+01 0.  1.
         -5    1    3    3    0  502  0.60495093003E+02  0.12282179559E+02 -0.97375493155E+02  0.11536883149E+03  0.41800000000E+01 0.  1.
        -11    1    4    4    0    0  0.20522410067E+02 -0.23152525303E+02  0.41984397266E+02  0.52152644772E+02  0.00000000000E+00 0.  1.
         11    1    4    4    0    0 -0.49326946742E+02  0.20718457576E+01  0.14649152411E+02  0.51497940600E+02  0.00000000000E+00 0. -1.
</event>
<event>
 8    1  0.6849590E-009  0.1106233E+03  0.7561462E-02  0.1259420E+00
          2   -1    0    0  501    0  0.00000000000E+00  0.00000000000E+00  0.76322901841E+03  0.76322901841E+03  0.00000000000E+00 0. -1.
         -2   -1    0    0    0  501 -0.00000000000E+00 -0.00000000000E+00 -0.26672019501E+02  0.26672019501E+02  0.00000000000E+00 0.  1.
         25    2    1    2    0    0 -0.68948328671E+02  0.22254010060E+02  0.56199996505E+03  0.58029306129E+03  0.12508782221E+03 0.  0.
         23    2    1    2    0    0  0.68948328671E+02 -0.22254010060E+02  0.17455703385E+03  0.20960797662E+03  0.90643437745E+02 0.  0.
          5    1    3    3  502    0 -0.48571738786E+02 -0.35388380363E+02  0.43642812157E+03  0.44056614597E+03  0.41800000000E+01 0. -1.
         -5    1    3    3    0  502 -0.20376589885E+02  0.57642390423E+02  0.12557184348E+03  0.13972691532E+03  0.41800000000E+01 0. -1.
        -11    1    4    4    0    0  0.60274937569E+02  0.14472314107E+02  0.50550388053E+02  0.79986609547E+02  0.00000000000E+00 0.  1.
         11    1    4    4    0    0  0.86733911023E+01 -0.36726324167E+02  0.12400664580E+03  0.12962136708E+03  0.00000000000E+00 0. -1.
</event>
<event>
 8    1  0.6849590E-009  0.1105207E+03  0.7561462E-02  0.1259609E+00
          3   -1    0    0  501    0  0.00000000000E+00  0.00000000000E+00  0.14640507685E+02  0.14640507685E+02  0.00000000000E+00 0. -1.
         -3   -1    0    0    0  501 -0.00000000000E+00 -0.00000000000E+00 -0.11558826650E+04  0.11558826650E+04  0.00000000000E+00 0.  1.
         25    2    1    2    0    0  0.19464049019E+02 -0.58929765071E+02 -0.79128788089E+03  0.80351531355E+03  0.12509509282E+03 0.  0.
         23    2    1    2    0    0 -0.19464049019E+02  0.58929765071E+02 -0.34995427644E+03  0.36700785915E+03  0.91516155216E+02 0.  0.
          5    1    3    3  502    0 -0.11853940219E+02 -0.76703600734E+02 -0.26991138353E+03  0.28088001997E+03  0.41800000000E+01 0. -1.
         -5    1    3    3    0  502  0.31317989238E+02  0.17773835664E+02 -0.52137649736E+03  0.52263529357E+03  0.41800000000E+01 0. -1.
        -11    1    4    4    0    0  0.33701074938E+02  0.10913109840E+02 -0.16283936562E+03  0.16664788451E+03  0.00000000000E+00 0.  1.
         11    1    4    4    0    0 -0.53165123958E+02  0.48016655230E+02 -0.18711491082E+03  0.20035997464E+03  0.00000000000E+00 0. -1.
</event>
<event>
 8    1  0.6849590E-009  0.1166450E+03  0.7561462E-02  0.1248737E+00
         -2   -1    0    0    0  501 -0.00000000000E+00  0.00000000000E+00  0.75732924733E+02  0.75732924733E+02  0.00000000000E+00 0.  1.
          2   -1    0    0  501    0  0.00000000000E+00 -0.00000000000E+00 -0.21116876638E+03  0.21116876638E+03  0.00000000000E+00 0. -1.
         25    2    1    2    0    0 -0.54031612627E+02 -0.22166070827E+01 -0.11830357225E+03  0.18046459740E+03  0.12508959669E+03 0.  0.
         23    2    1    2    0    0  0.54031612627E+02  0.22166070827E+01 -0.17132269403E+02  0.10643709371E+03  0.90061155627E+02 0.  0.
          5    1    3    3  502    0  0.15990248311E+02 -0.44218716346E+02 -0.73164006194E+02  0.87071390932E+02  0.41800000000E+01 0.  1.
         -5    1    3    3    0  502 -0.70021860939E+02  0.42002109263E+02 -0.45139566053E+02  0.93393206473E+02  0.41800000000E+01 0.  1.
        -11    1    4    4    0    0  0.34268971547E+02  0.45371282794E+02 -0.31064013263E+01  0.56943528539E+02  0.00000000000E+00 0.  1.
         11    1    4    4    0    0  0.19762641080E+02 -0.43154675711E+02 -0.14025868077E+02  0.49493565173E+02  0.00000000000E+00 0. -1.
</event>
<event>
 8    1  0.6849590E-009  0.1952808E+03  0.7561462E-02  0.1153783E+00
          1   -1    0    0  501    0  0.00000000000E+00  0.00000000000E+00  0.19670217736E+04  0.19670217736E+04  0.00000000000E+00 0. -1.
         -1   -1    0    0    0  501 -0.00000000000E+00 -0.00000000000E+00 -0.27714127890E+02  0.27714127890E+02  0.00000000000E+00 0.  1.
         25    2    1    2    0    0 -0.84674249147E+02 -0.17104724038E+03  0.13393278389E+04  0.13586292634E+04  0.12509008134E+03 0.  0.
         23    2    1    2    0    0  0.84674249147E+02  0.17104724038E+03  0.59997980678E+03  0.63610663804E+03  0.90713833066E+02 0.  0.
          5    1    3    3  502    0 -0.23547380815E+02 -0.16791626569E+02  0.60805627135E+03  0.60875803025E+03  0.41800000000E+01 0. -1.
         -5    1    3    3    0  502 -0.61126868332E+02 -0.15425561381E+03  0.73127156755E+03  0.74987123317E+03  0.41800000000E+01 0. -1.
        -11    1    4    4    0    0  0.16939127539E+02  0.80610951981E+02  0.13983756391E+03  0.16229480553E+03  0.00000000000E+00 0.  1.
         11    1    4    4    0    0  0.67735121608E+02  0.90436288397E+02  0.46014224287E+03  0.47381183251E+03  0.00000000000E+00 0. -1.
</event>
<event>
 8    1  0.6849590E-009  0.8558772E+02  0.7561462E-02  0.1313903E+00
         -1   -1    0    0    0  501 -0.00000000000E+00  0.00000000000E+00  0.43930035331E+03  0.43930035331E+03  0.00000000000E+00 0.  1.
          1   -1    0    0  501    0  0.00000000000E+00 -0.00000000000E+00 -0.35487341451E+02  0.35487341451E+02  0.00000000000E+00 0. -1.
         25    2    1    2    0    0  0.36210421677E+01 -0.60435351794E+02  0.26392758936E+03  0.29827827167E+03  0.12508641505E+03 0.  0.
         23    2    1    2    0    0 -0.36210421677E+01  0.60435351794E+02  0.13988542250E+03  0.17650942310E+03  0.89006186978E+02 0.  0.
          5    1    3    3  502    0  0.14579968835E+02 -0.70530436159E+02  0.60191618340E+02  0.93955421527E+02  0.41800000000E+01 0.  1.
         -5    1    3    3    0  502 -0.10958926668E+02  0.10095084365E+02  0.20373597102E+03  0.20432285014E+03  0.41800000000E+01 0.  1.
        -11    1    4    4    0    0  0.19778715221E+02  0.11395565707E+01  0.98579960236E+02  0.10055100559E+03  0.00000000000E+00 0.  1.
         11    1    4    4    0    0 -0.23399757389E+02  0.59295795223E+02  0.41305462265E+02  0.75958417505E+02  0.00000000000E+00 0. -1.
</event>
<event>
 8    1  0.6849590E-009  0.1523085E+03  0.7561462E-02  0.1197665E+00
         -2   -1    0    0    0  501 -0.00000000000E+00  0.00000000000E+00  0.19918498495E+02  0.19918498495E+02  0.00000000000E+00 0.  1.
          2   -1    0    0  501    0  0.00000000000E+00 -0.00000000000E+00 -0.13046664456E+04  0.13046664456E+04  0.00000000000E+00 0. -1.
         25    2    1    2    0    0 -0.38131451886E+02  0.10776586902E+03 -0.54081126522E+03  0.56673770478E+03  0.12508921326E+03 0.  0.
         23    2    1    2    0    0  0.38131451886E+02 -0.10776586902E+03 -0.74393668189E+03  0.75784723932E+03  0.88448636741E+02 0.  0.
          5    1    3    3  502    0  0.40200390344E+02  0.34622153619E+02 -0.10247047383E+03  0.11546616523E+03  0.41800000000E+01 0. -1.
         -5    1    3    3    0  502 -0.78331842230E+02  0.73143715404E+02 -0.43834079139E+03  0.45127153955E+03  0.41800000000E+01 0. -1.
        -11    1    4    4    0    0 -0.26569896587E+02 -0.53359675381E+02 -0.33544006387E+03  0.34069524624E+03  0.00000000000E+00 0.  1.
         11    1    4    4    0    0  0.64701348473E+02 -0.54406193643E+02 -0.40849661802E+03  0.41715199309E+03  0.00000000000E+00 0. -1.
</event>
<event>
 8    1  0.6849590E-009  0.1570466E+03  0.7561462E-02  0.1192072E+00
          1   -1    0    0  501    0  0.00000000000E+00  0.00000000000E+00  0.17667537951E+02  0.17667537951E+02  0.00000000000E+00 0. -1.
         -1   -1    0    0    0  501 -0.00000000000E+00 -0.00000000000E+00 -0.19033196062E+04  0.19033196062E+04  0.00000000000E+00 0.  1.
         25    2    1    2    0    0 -0.11600172522E+03 -0.44180836695E+02 -0.14010476164E+04  0.14120872275E+04  0.12509023884E+03 0.  0.
         23    2    1    2    0    0  0.11600172522E+03  0.44180836695E+02 -0.48460445185E+03  0.50889991673E+03  0.93430743911E+02 0.  0.
          5    1    3    3  502    0 -0.54087744874E+02 -0.72488539508E+02 -0.47639486988E+03  0.48492227929E+03  0.41800000000E+01 0. -1.
         -5    1    3    3    0  502 -0.61913980343E+02  0.28307702813E+02 -0.92465274655E+03  0.92716494817E+03  0.41800000000E+01 0. -1.
        -11    1    4    4    0    0  0.25736881643E+02  0.58538738806E+02 -0.20316488590E+03  0.21299094319E+03  0.00000000000E+00 0.  1.
         11    1    4    4    0    0  0.90264843575E+02 -0.14357902111E+02 -0.28143956595E+03  0.29590897354E+03  0.00000000000E+00 0. -1.
</event>
<event>
 8    1  0.6849590E-009  0.1035978E+03  0.7561462E-02  0.1272907E+00
         -2   -1    0    0    0  501 -0.00000000000E+00  0.00000000000E+00  0.10923669186E+03  0.10923669186E+03  0.00000000000E+00 0.  1.
          2   -1    0    0  501    0  0.00000000000E+00 -0.00000000000E+00 -0.21535628733E+03  0.21535628733E+03  0.00000000000E+00 0. -1.
         25    2    1    2    0    0 -0.10255490771E+03  0.17557721100E+01 -0.98919330501E+02  0.18961816775E+03  0.12509765691E+03 0.  0.
         23    2    1    2    0    0  0.10255490771E+03 -0.17557721100E+01 -0.72002649770E+01  0.13497481144E+03  0.87440059910E+02 0.  0.
          5    1    3    3  502    0 -0.58623376466E+02 -0.75674126995E+01  0.19913133879E+02  0.62513768916E+02  0.41800000000E+01 0.  1.
         -5    1    3    3    0  502 -0.43931531240E+02  0.93231848095E+01 -0.11883246438E+03  0.12710439883E+03  0.41800000000E+01 0.  1.
        -11    1    4    4    0    0  0.45425201362E+02 -0.44386911089E+01 -0.46830886961E+02  0.65393293778E+02  0.00000000000E+00 0.  1.
         11    1    4    4    0    0  0.57129706343E+02  0.26829189989E+01  0.39630621984E+02  0.69581517661E+02  0.00000000000E+00 0. -1.
</event>
<event>
 8    1  0.6849590E-009  0.2466694E+03  0.7561462E-02  0.1115428E+00
         -1   -1    0    0    0  501 -0.00000000000E+00  0.00000000000E+00  0.16477394101E+03  0.16477394101E+03  0.00000000000E+00 0.  1.
          1   -1    0    0  501    0  0.00000000000E+00 -0.00000000000E+00 -0.47945371365E+03  0.47945371365E+03  0.00000000000E+00 0. -1.
         25    2    1    2    0    0 -0.93573849360E+02  0.20959940967E+03 -0.29971703417E+03  0.39769996931E+03  0.12508791788E+03 0.  0.
         23    2    1    2    0    0  0.93573849360E+02 -0.20959940967E+03 -0.14962738468E+02  0.24652768535E+03  0.88679412962E+02 0.  0.
          5    1    3    3  502    0 -0.10712673658E+03  0.21629486987E+03 -0.29527753024E+03  0.38139992224E+03  0.41800000000E+01 0. -1.
         -5    1    3    3    0  502  0.13552887221E+02 -0.66954601980E+01 -0.44395039318E+01  0.16300047069E+02  0.41800000000E+01 0. -1.
        -11    1    4    4    0    0  0.48692683455E+02 -0.16849226808E+03  0.19695986975E+02  0.17648952866E+03  0.00000000000E+00 0. -1.
         11    1    4    4    0    0  0.44881165905E+02 -0.41107141588E+02 -0.34658725442E+02  0.70038156685E+02  0.00000000000E+00 0.  1.
</event>
<event>
 8    1  0.6849590E-009  0.1163768E+03  0.7561462E-02  0.1249197E+00
          3   -1    0    0  501    0  0.00000000000E+00  0.00000000000E+00  0.35185305338E+02  0.35185305338E+02  0.00000000000E+00 0. -1.
         -3   -1    0    0    0  501 -0.00000000000E+00 -0.00000000000E+00 -0.62359120522E+03  0.62359120522E+03  0.00000000000E+00 0.  1.
         25    2    1    2    0    0  0.79315475804E+02 -0.63677223865E+02 -0.30204165574E+03  0.34237760852E+03  0.12509009343E+03 0.  0.
         23    2    1    2    0    0 -0.79315475804E+02  0.63677223865E+02 -0.28636424415E+03  0.31639890204E+03  0.88079801009E+02 0.  0.
          5    1    3    3  502    0  0.46199556953E+02 -0.51181258264E+02 -0.29869695415E+03  0.30657994566E+03  0.41800000000E+01 0.  1.
         -5    1    3    3    0  502  0.33115918852E+02 -0.12495965601E+02 -0.33447015854E+01  0.35797662862E+02  0.41800000000E+01 0.  1.
        -11    1    4    4    0    0 -0.45556151022E+02 -0.10313253527E+02 -0.61138145410E+02  0.76938929798E+02  0.00000000000E+00 0.  1.
         11    1    4    4    0    0 -0.33759324782E+02  0.73990477392E+02 -0.22522609874E+03  0.23945997225E+03  0.00000000000E+00 0. -1.
</event>
<event>
 8    1  0.6849590E-009  0.8990122E+02  0.7561462E-02  0.1303091E+00
         -1   -1    0    0    0  501 -0.00000000000E+00  0.00000000000E+00  0.64148599347E+02  0.64148599347E+02  0.00000000000E+00 0.  1.
          1   -1    0    0  501    0  0.00000000000E+00 -0.00000000000E+00 -0.20858768327E+03  0.20858768327E+03  0.00000000000E+00 0. -1.
         25    2    1    2    0    0  0.96043751018E+01 -0.25554202256E+02 -0.51684685559E+02  0.13804428650E+03  0.12505861442E+03 0.  0.
         23    2    1    2    0    0 -0.96043751018E+01  0.25554202256E+02 -0.92754398368E+02  0.13469199612E+03  0.93772565964E+02 0.  0.
          5    1    3    3  502    0  0.32744652141E+02 -0.55784307503E+02 -0.70162065033E+02  0.95521144136E+02  0.41800000000E+01 0. -1.
         -5    1    3    3    0  502 -0.23140277039E+02  0.30230105247E+02  0.18477379473E+02  0.42523142368E+02  0.41800000000E+01 0. -1.
        -11    1    4    4    0    0  0.22319766319E+02 -0.13621524536E+02  0.31005769744E+01  0.26331188290E+02  0.00000000000E+00 0.  1.
         11    1    4    4    0    0 -0.31924141420E+02  0.39175726792E+02 -0.95854975343E+02  0.10836080783E+03  0.00000000000E+00 0. -1.
</event>
<event>
 8    1  0.6849590E-009  0.1842930E+03  0.7561462E-02  0.1163712E+00
          1   -1    0    0  501    0  0.00000000000E+00  0.00000000000E+00  0.56400433423E+03  0.56400433423E+03  0.00000000000E+00 0. -1.
         -1   -1    0    0    0  501 -0.00000000000E+00 -0.00000000000E+00 -0.83623820021E+02  0.83623820021E+02  0.00000000000E+00 0.  1.
         25    2    1    2    0    0 -0.63723894304E+02 -0.16934043826E+03  0.32906876620E+03  0.39581646285E+03  0.12508997016E+03 0.  0.
         23    2    1    2    0    0  0.63723894304E+02  0.16934043826E+03  0.15131174800E+03  0.25181169140E+03  0.88187097162E+02 0.  0.
          5    1    3    3  502    0 -0.67325971686E+02 -0.12904622553E+03  0.32350722984E+03  0.35476769152E+03  0.41800000000E+01 0.  1.
         -5    1    3    3    0  502  0.36020773819E+01 -0.40294212730E+02  0.55615363672E+01  0.41048771330E+02  0.41800000000E+01 0.  1.
        -11    1    4    4    0    0  0.54600468964E+02  0.16075598061E+03  0.95872960647E+02  0.19497518072E+03  0.00000000000E+00 0.  1.
         11    1    4    4    0    0  0.91234253396E+01  0.85844576557E+01  0.55438787357E+02  0.56836510684E+02  0.00000000000E+00 0. -1.
</event>
<event>
 8    1  0.6849590E-009  0.1277471E+03  0.7561462E-02  0.1230837E+00
          1   -1    0    0  501    0  0.00000000000E+00  0.00000000000E+00  0.12949961661E+04  0.12949961661E+04  0.00000000000E+00 0.  1.
         -1   -1    0    0    0  501 -0.00000000000E+00 -0.00000000000E+00 -0.20416951777E+02  0.20416951777E+02  0.00000000000E+00 0. -1.
         25    2    1    2    0    0  0.11519983866E+03  0.86867571700E+01  0.83344521252E+03  0.85065817704E+03  0.12506777885E+03 0.  0.
         23    2    1    2    0    0 -0.11519983866E+03 -0.86867571700E+01  0.44113400183E+03  0.46475494087E+03  0.89730066950E+02 0.  0.
          5    1    3    3  502    0  0.38536397853E+02  0.38897623618E+02  0.11442695047E+03  0.12692154457E+03  0.41800000000E+01 0. -1.
         -5    1    3    3    0  502  0.76663440802E+02 -0.30210866448E+02  0.71901826205E+03  0.72373663246E+03  0.41800000000E+01 0. -1.
        -11    1    4    4    0    0 -0.38931673795E+02 -0.14591839782E+02  0.44855109865E+02  0.61160264009E+02  0.00000000000E+00 0. -1.
         11    1    4    4    0    0 -0.76268164861E+02  0.59050826123E+01  0.39627889197E+03  0.40359467686E+03  0.00000000000E+00 0.  1.
</event>
<event>
 8    1  0.6849590E-009  0.1115992E+03  0.7561462E-02  0.1257637E+00
         -3   -1    0    0    0  501 -0.00000000000E+00  0.00000000000E+00  0.10575612932E+03  0.10575612932E+03  0.00000000000E+00 0.  1.
          3   -1    0    0  501    0  0.00000000000E+00 -0.00000000000E+00 -0.19244907699E+03  0.19244907699E+03  0.00000000000E+00 0. -1.
         25    2    1    2    0    0 -0.70444414201E+02  0.35942178451E+02  0.18399870719E+01  0.14800261768E+03  0.12508850308E+03 0.  0.
         23    2    1    2    0    0  0.70444414201E+02 -0.35942178451E+02 -0.88532934741E+02  0.15020258864E+03  0.92024352296E+02 0.  0.
          5    1    3    3  502    0 -0.19352185285E+02  0.75284328024E+02 -0.18956433297E+02  0.80119010757E+02  0.41800000000E+01 0.  1.
         -5    1    3    3    0  502 -0.51092228917E+02 -0.39342149574E+02  0.20796420369E+02  0.67883606923E+02  0.41800000000E+01 0.  1.
        -11    1    4    4    0    0  0.40132383125E+02 -0.11364445597E+02  0.11131662016E+02  0.43170275634E+02  0.00000000000E+00 0.  1.
         11    1    4    4    0    0  0.30312031076E+02 -0.24577732853E+02 -0.99664596757E+02  0.10703231300E+03  0.00000000000E+00 0. -1.
</event>
<event>
 8    1  0.6849590E-009  0.3042492E+03  0.7561462E-02  0.1083136E+00
         -2   -1    0    0    0  501 -0.00000000000E+00  0.00000000000E+00  0.27645940486E+03  0.27645940486E+03  0.00000000000E+00 0.  1.
          2   -1    0    0  501    0  0.00000000000E+00 -0.00000000000E+00 -0.40538584756E+03  0.40538584756E+03  0.00000000000E+00 0. -1.
         25    2    1    2    0    0  0.69722807919E+01 -0.29934332286E+03 -0.16716311073E+03  0.36502518615E+03  0.12507934798E+03 0.  0.
         23    2    1    2    0    0 -0.69722807919E+01  0.29934332286E+03  0.38236668033E+02  0.31682006627E+03  0.96217846414E+02 0.  0.
          5    1    3    3  502    0  0.37680081339E+02 -0.22529148144E+03 -0.16989008820E+03  0.28470362591E+03  0.41800000000E+01 0.  1.
         -5    1    3    3    0  502 -0.30707800547E+02 -0.74051841421E+02  0.27269774677E+01  0.80321560233E+02  0.41800000000E+01 0.  1.
        -11    1    4    4    0    0 -0.53059986756E+01  0.33664381277E+02  0.38123923954E+02  0.51135875532E+02  0.00000000000E+00 0.  1.
         11    1    4    4    0    0 -0.16662821164E+01  0.26567894159E+03  0.11274407858E+00  0.26568419074E+03  0.00000000000E+00 0. -1.
</event>
<event>
 8    1  0.6849590E-009  0.1446216E+03  0.7561462E-02  0.1207242E+00
         -2   -1    0    0    0  501 -0.00000000000E+00  0.00000000000E+00  0.33597866987E+02  0.33597866987E+02  0.00000000000E+00 0.  1.
          2   -1    0    0  501    0  0.00000000000E+00 -0.00000000000E+00 -0.76737883768E+03  0.76737883768E+03  0.00000000000E+00 0. -1.
         25    2    1    2    0    0  0.18293631461E+02 -0.11803359691E+03 -0.38006480426E+03  0.41756798087E+03  0.12508867358E+03 0.  0.
         23    2    1    2    0    0 -0.18293631461E+02  0.11803359691E+03 -0.35371616643E+03  0.38340872379E+03  0.87295682231E+02 0.  0.
          5    1    3    3  502    0 -0.17973690113E+02  0.95189498102E+00 -0.18669146377E+03  0.18760366384E+03  0.41800000000E+01 0.  1.
         -5    1    3    3    0  502  0.36267321574E+02 -0.11898549190E+03 -0.19337334049E+03  0.22996431703E+03  0.41800000000E+01 0.  1.
        -11    1    4    4    0    0  0.17948336014E+02  0.10689336598E+03 -0.28518461950E+03  0.30508785891E+03  0.00000000000E+00 0.  1.
         11    1    4    4    0    0 -0.36241967475E+02  0.11140230939E+02 -0.68531546932E+02  0.78320864887E+02  0.00000000000E+00 0. -1.
</event>
<event>
 8    1  0.6849590E-009  0.1317839E+03  0.7561462E-02  0.1224832E+00
         -1   -1    0    0    0  501 -0.00000000000E+00  0.00000000000E+00  0.25230340824E+02  0.25230340824E+02  0.00000000000E+00 0.  1.
          1   -1    0    0  501    0  0.00000000000E+00 -0.00000000000E+00 -0.10195385931E+04  0.10195385931E+04  0.00000000000E+00 0. -1.
         25    2    1    2    0    0  0.29903458928E+01 -0.10113972376E+03 -0.72879572681E+03  0.74634389633E+03  0.12509122384E+03 0.  0.
         23    2    1    2    0    0 -0.29903458928E+01  0.10113972376E+03 -0.26551252551E+03  0.29842503764E+03  0.91227276605E+02 0.  0.
          5    1    3    3  502    0  0.22147424156E+02  0.22441066704E+01 -0.21386380078E+02  0.31151148684E+02  0.41800000000E+01 0. -1.
         -5    1    3    3    0  502 -0.19157078263E+02 -0.10338383043E+03 -0.70740934673E+03  0.71519274764E+03  0.41800000000E+01 0. -1.
        -11    1    4    4    0    0  0.11675143255E+02  0.11495317462E+03 -0.21581565259E+03  0.24479979009E+03  0.00000000000E+00 0. -1.
         11    1    4    4    0    0 -0.14665489148E+02 -0.13813450862E+02 -0.49696872929E+02  0.53625247557E+02  0.00000000000E+00 0.  1.
</event>
<event>
 8    1  0.6849590E-009  0.1043383E+03  0.7561462E-02  0.1271429E+00
         -3   -1    0    0    0  501 -0.00000000000E+00  0.00000000000E+00  0.31124548999E+03  0.31124548999E+03  0.00000000000E+00 0.  1.
          3   -1    0    0  501    0  0.00000000000E+00 -0.00000000000E+00 -0.55700780223E+02  0.55700780223E+02  0.00000000000E+00 0. -1.
         25    2    1    2    0    0 -0.35962737879E+02 -0.65649191707E+02  0.13011549457E+03  0.19539962958E+03  0.12509132034E+03 0.  0.
         23    2    1    2    0    0  0.35962737879E+02  0.65649191707E+02  0.12542921520E+03  0.17154664063E+03  0.89959029564E+02 0.  0.
          5    1    3    3  502    0 -0.40883019941E+02 -0.18885573754E+02  0.14003839526E+03  0.14716083298E+03  0.41800000000E+01 0. -1.
         -5    1    3    3    0  502  0.49202820622E+01 -0.46763617953E+02 -0.99229006907E+01  0.48238796603E+02  0.41800000000E+01 0. -1.
        -11    1    4    4    0    0  0.39151797313E+02 -0.10093330862E+02  0.34415403824E+02  0.53095749181E+02  0.00000000000E+00 0.  1.
         11    1    4    4    0    0 -0.31890594345E+01  0.75742522568E+02  0.91013811373E+02  0.11845089145E+03  0.00000000000E+00 0. -1.
</event>
<event>
 8    1  0.6849590E-009  0.1784969E+03  0.7561462E-02  0.1169266E+00
         -2   -1    0    0    0  501 -0.00000000000E+00  0.00000000000E+00  0.37197925208E+02  0.37197925208E+02  0.00000000000E+00 0.  1.
          2   -1    0    0  501    0  0.00000000000E+00 -0.00000000000E+00 -0.91064366314E+03  0.91064366314E+03  0.00000000000E+00 0. -1.
         25    2    1    2    0    0  0.14123470951E+03  0.24716476670E+02 -0.36130520821E+03  0.40834611710E+03  0.12508777110E+03 0.  0.
         23    2    1    2    0    0 -0.14123470951E+03 -0.24716476670E+02 -0.51214052972E+03  0.53949547125E+03  0.90605153959E+02 0.  0.
          5    1    3    3  502    0  0.14920956681E+03  0.53368389619E+02 -0.28132915674E+03  0.32291677979E+03  0.41800000000E+01 0.  1.
         -5    1    3    3    0  502 -0.79748572941E+01 -0.28651912949E+02 -0.79976051472E+02  0.85429337311E+02  0.41800000000E+01 0.  1.
        -11    1    4    4    0    0 -0.15186818966E+03 -0.32442434250E+02 -0.45194069381E+03  0.47787744171E+03  0.00000000000E+00 0.  1.
         11    1    4    4    0    0  0.10633480152E+02  0.77259575796E+01 -0.60199835907E+02  0.61618029536E+02  0.00000000000E+00 0. -1.
</event>
<event>
 8    1  0.6849590E-009  0.1933872E+03  0.7561462E-02  0.1155441E+00
          2   -1    0    0  501    0  0.00000000000E+00  0.00000000000E+00  0.40327138699E+03  0.40327138699E+03  0.00000000000E+00 0. -1.
         -2   -1    0    0    0  501 -0.00000000000E+00 -0.00000000000E+00 -0.11640481030E+03  0.11640481030E+03  0.00000000000E+00 0.  1.
         25    2    1    2    0    0  0.16059566980E+03  0.92335991969E+02  0.11565548644E+03  0.25168851102E+03  0.12511598806E+03 0.  0.
         23    2    1    2    0    0 -0.16059566980E+03 -0.92335991969E+02  0.17121109025E+03  0.26798768627E+03  0.90483468081E+02 0.  0.
          5    1    3    3  502    0  0.92120670556E+02  0.46803418644E+02  0.13206023894E+03  0.16773239713E+03  0.41800000000E+01 0.  1.
         -5    1    3    3    0  502  0.68474999240E+02  0.45532573325E+02 -0.16404752500E+02  0.83956113888E+02  0.41800000000E+01 0.  1.
        -11    1    4    4    0    0 -0.13436262535E+02 -0.44191491432E+02  0.66892068944E+02  0.81289420920E+02  0.00000000000E+00 0. -1.
         11    1    4    4    0    0 -0.14715940726E+03 -0.48144500537E+02  0.10431902131E+03  0.18669826535E+03  0.00000000000E+00 0.  1.
</event>
<event>
 8    1  0.6849590E-009  0.1056782E+03  0.7561462E-02  0.1268789E+00
         -1   -1    0    0    0  501 -0.00000000000E+00  0.00000000000E+00  0.85952699019E+02  0.85952699019E+02  0.00000000000E+00 0.  1.
          1   -1    0    0  501    0  0.00000000000E+00 -0.00000000000E+00 -0.14989036436E+03  0.14989036436E+03  0.00000000000E+00 0. -1.
         25    2    1    2    0    0 -0.36907720190E+01  0.23487463122E+02 -0.62144658048E+02  0.14164981133E+03  0.12504970133E+03 0.  0.
         23    2    1    2    0    0  0.36907720190E+01 -0.23487463122E+02 -0.17930072951E+01  0.94193252051E+02  0.91125578927E+02 0.  0.
          5    1    3    3  502    0 -0.44527877325E+02  0.50946944573E+02 -0.62578851403E+02  0.92260002511E+02  0.41800000000E+01 0.  1.
         -5    1    3    3    0  502  0.40837105306E+02 -0.27459481451E+02  0.43419335525E+00  0.49389808819E+02  0.41800000000E+01 0.  1.
        -11    1    4    4    0    0 -0.13805493879E+02 -0.55772111182E+02 -0.10851612710E+01  0.57465621217E+02  0.00000000000E+00 0. -1.
         11    1    4    4    0    0  0.17496265897E+02  0.32284648059E+02 -0.70784602414E+00  0.36727630834E+02  0.00000000000E+00 0.  1.
</event>
<event>
 8    1  0.6849590E-009  0.1039102E+03  0.7561462E-02  0.1272282E+00
          2   -1    0    0  501    0  0.00000000000E+00  0.00000000000E+00  0.14763667173E+03  0.14763667173E+03  0.00000000000E+00 0. -1.
         -2   -1    0    0    0  501 -0.00000000000E+00 -0.00000000000E+00 -0.13861911522E+03  0.13861911522E+03  0.00000000000E+00 0.  1.
         25    2    1    2    0    0  0.38402115229E+02 -0.64560907779E+02 -0.49145586241E+02  0.15396588649E+03  0.12508945715E+03 0.  0.
         23    2    1    2    0    0 -0.38402115229E+02  0.64560907779E+02  0.58163142755E+02  0.13228990046E+03  0.92058857922E+02 0.  0.
          5    1    3    3  502    0  0.71799614132E+02 -0.48024305386E+02 -0.69816179360E+02  0.11114535437E+03  0.41800000000E+01 0.  1.
         -5    1    3    3    0  502 -0.33397498903E+02 -0.16536602393E+02  0.20670593118E+02  0.42820532126E+02  0.41800000000E+01 0.  1.
        -11    1    4    4    0    0 -0.21786405785E+02  0.63562510956E+02 -0.46068552360E+01  0.67350303572E+02  0.00000000000E+00 0.  1.
         11    1    4    4    0    0 -0.16615709444E+02  0.99839682301E+00  0.62769997991E+02  0.64939596890E+02  0.00000000000E+00 0. -1.
</event>
<event>
 8    1  0.6849590E-009  0.9719347E+02  0.7561462E-02  0.1286311E+00
          1   -1    0    0  501    0  0.00000000000E+00  0.00000000000E+00  0.14818656179E+03  0.14818656179E+03  0.00000000000E+00 0. -1.
         -1   -1    0    0    0  501 -0.00000000000E+00 -0.00000000000E+00 -0.94787852064E+02  0.94787852064E+02  0.00000000000E+00 0.  1.
         25    2    1    2    0    0  0.47441502656E+02  0.19719268570E+01  0.12009648505E+02  0.13434387697E+03  0.12509780555E+03 0.  0.
         23    2    1    2    0    0 -0.47441502656E+02 -0.19719268570E+01  0.41389061221E+02  0.10863053688E+03  0.88503980051E+02 0.  0.
          5    1    3    3  502    0 -0.86666415068E+01  0.38841940796E+02  0.44325361391E+02  0.59716137703E+02  0.41800000000E+01 0. -1.
         -5    1    3    3    0  502  0.56108144162E+02 -0.36870013939E+02 -0.32315712885E+02  0.74627739270E+02  0.41800000000E+01 0. -1.
        -11    1    4    4    0    0 -0.59443869987E+02 -0.22305658847E+02  0.30007742805E+01  0.63561944132E+02  0.00000000000E+00 0.  1.
         11    1    4    4    0    0  0.12002367331E+02  0.20333731990E+02  0.38388286941E+02  0.45068592750E+02  0.00000000000E+00 0. -1.
</event>
<event>
 8    1  0.6849590E-009  0.9950197E+02  0.7561462E-02  0.1281347E+00
          2   -1    0    0  501    0  0.00000000000E+00  0.00000000000E+00  0.42154828130E+03  0.42154828130E+03  0.00000000000E+00 0. -1.
         -2   -1    0    0    0  501 -0.00000000000E+00 -0.00000000000E+00 -0.36730332725E+02  0.36730332725E+02  0.00000000000E+00 0.  1.
         25    2    1    2    0    0 -0.42363986923E+02  0.38672204229E+02  0.25577464734E+03  0.29044612412E+03  0.12509210217E+03 0.  0.
         23    2    1    2    0    0  0.42363986923E+02 -0.38672204229E+02  0.12904330123E+03  0.16783248990E+03  0.90693573673E+02 0.  0.
          5    1    3    3  502    0  0.43463520391E+02  0.20434292398E+02  0.70566257091E+02  0.85461727986E+02  0.41800000000E+01 0. -1.
         -5    1    3    3    0  502 -0.85827507314E+02  0.18237911831E+02  0.18520839025E+03  0.20498439614E+03  0.41800000000E+01 0. -1.
        -11    1    4    4    0    0  0.90022418794E+01 -0.25571395651E+02  0.12917635562E+03  0.13199040680E+03  0.00000000000E+00 0. -1.
         11    1    4    4    0    0  0.33361745044E+02 -0.13100808578E+02 -0.13305439115E+00  0.35842083104E+02  0.00000000000E+00 0.  1.
</event>
<event>
 8    1  0.6849590E-009  0.1193631E+03  0.7561462E-02  0.1244151E+00
          2   -1    0    0  501    0  0.00000000000E+00  0.00000000000E+00  0.73772626498E+03  0.73772626498E+03  0.00000000000E+00 0.  1.
         -2   -1    0    0    0  501 -0.00000000000E+00 -0.00000000000E+00 -0.20662693705E+02  0.20662693705E+02  0.00000000000E+00 0. -1.
         25    2    1    2    0    0  0.44918284015E+02  0.33930150508E+02  0.45639658900E+03  0.47656241592E+03  0.12507990432E+03 0.  0.
         23    2    1    2    0    0 -0.44918284015E+02 -0.33930150508E+02  0.26066698228E+03  0.28182654277E+03  0.91159295773E+02 0.  0.
          5    1    3    3  502    0  0.58134326044E+02  0.71353976584E+02  0.37149087041E+03  0.38274525345E+03  0.41800000000E+01 0. -1.
         -5    1    3    3    0  502 -0.13216042029E+02 -0.37423826076E+02  0.84905718586E+02  0.93817162468E+02  0.41800000000E+01 0. -1.
        -11    1    4    4    0    0  0.25970537153E+02 -0.23516130436E+02  0.98169577095E+02  0.10423407820E+03  0.00000000000E+00 0.  1.
         11    1    4    4    0    0 -0.70888821168E+02 -0.10414020073E+02  0.16249740518E+03  0.17759246457E+03  0.00000000000E+00 0. -1.
</event>
<event>
 8    1  0.6849590E-009  0.3677722E+03  0.7561462E-02  0.1055548E+00
          2   -1    0    0  501    0  0.00000000000E+00  0.00000000000E+00  0.26247478125E+03  0.26247478125E+03  0.00000000000E+00 0. -1.
         -2   -1    0    0    0  501 -0.00000000000E+00 -0.00000000000E+00 -0.55991558733E+03  0.55991558733E+03  0.00000000000E+00 0.  1.
         25    2    1    2    0    0 -0.34020519952E+03  0.11948927076E+03 -0.80939382243E+02  0.39014935694E+03  0.12509226003E+03 0.  0.
         23    2    1    2    0    0  0.34020519952E+03 -0.11948927076E+03 -0.21650142384E+03  0.43224101164E+03  0.99710390712E+02 0.  0.
          5    1    3    3  502    0 -0.32699717656E+03  0.12730743246E+03 -0.10040467356E+03  0.36501083095E+03  0.41800000000E+01 0. -1.
         -5    1    3    3    0  502 -0.13208022955E+02 -0.78181617024E+01  0.19465291318E+02  0.25138525989E+02  0.41800000000E+01 0. -1.
        -11    1    4    4    0    0  0.86314048629E+02 -0.67437314251E+02 -0.32030594493E+02  0.11412215091E+03  0.00000000000E+00 0. -1.
         11    1    4    4    0    0  0.25389115089E+03 -0.52051956508E+02 -0.18447082935E+03  0.31811886074E+03  0.00000000000E+00 0.  1.
</event>
<event>
 8    1  0.6849590E-009  0.1511037E+03  0.7561462E-02  0.1199123E+00
         -1   -1    0    0    0  501 -0.00000000000E+00  0.00000000000E+00  0.19668032692E+03  0.19668032692E+03  0.00000000000E+00 0.  1.
          1   -1    0    0  501    0  0.00000000000E+00 -0.00000000000E+00 -0.14965377405E+03  0.14965377405E+03  0.00000000000E+00 0. -1.
         25    2    1    2    0    0  0.72198087817E+02  0.11110433621E+03  0.47251991732E+02  0.18824347393E+03  0.12508444085E+03 0.  0.
         23    2    1    2    0    0 -0.72198087817E+02 -0.11110433621E+03 -0.22543885584E+00  0.15809062705E+03  0.86231421933E+02 0.  0.
          5    1    3    3  502    0  0.42045800101E+02  0.10500249617E+03  0.83400147674E+02  0.14059313831E+03  0.41800000000E+01 0.  1.
         -5    1    3    3    0  502  0.30152287716E+02  0.61018400437E+01 -0.36148155943E+02  0.47650335618E+02  0.41800000000E+01 0.  1.
        -11    1    4    4    0    0 -0.90021937646E+02 -0.72968774842E+02  0.24922524009E+01  0.11590773348E+03  0.00000000000E+00 0.  1.
         11    1    4    4    0    0  0.17823849829E+02 -0.38135561367E+02 -0.27176912568E+01  0.42182893562E+02  0.00000000000E+00 0. -1.
</event>
<event>
 8    1  0.6849590E-009  0.1161954E+03  0.7561462E-02  0.1249509E+00
         -2   -1    0    0    0  501 -0.00000000000E+00  0.00000000000E+00  0.28969321015E+02  0.28969321015E+02  0.00000000000E+00 0.  1.
          2   -1    0    0  501    0  0.00000000000E+00 -0.00000000000E+00 -0.75427610536E+03  0.75427610536E+03  0.00000000000E+00 0. -1.
         25    2    1    2    0    0 -0.80272123711E+02 -0.57312775124E+02 -0.35154840414E+03  0.38595585805E+03  0.12508907177E+03 0.  0.
         23    2    1    2    0    0  0.80272123711E+02  0.57312775124E+02 -0.37375838021E+03  0.39728956833E+03  0.91734978528E+02 0.  0.
          5    1    3    3  502    0 -0.57967220886E+02 -0.43024986741E+02 -0.35178339128E+03  0.35913837857E+03  0.41800000000E+01 0.  1.
         -5    1    3    3    0  502 -0.22304902825E+02 -0.14287788383E+02  0.23498714196E+00  0.26817479484E+02  0.41800000000E+01 0.  1.
        -11    1    4    4    0    0  0.27141324295E+01 -0.22096989462E+02 -0.43322704597E+02  0.48708317480E+02  0.00000000000E+00 0.  1.
         11    1    4    4    0    0  0.77557991281E+02  0.79409764586E+02 -0.33043567561E+03  0.34858125085E+03  0.00000000000E+00 0. -1.
</event>
<event>
 8    1  0.6849590E-009  0.1045198E+03  0.7561462E-02  0.1271069E+00
          1   -1    0    0  501    0  0.00000000000E+00  0.00000000000E+00  0.39868082364E+02  0.39868082364E+02  0.00000000000E+00 0. -1.
         -1   -1    0    0    0  501 -0.00000000000E+00 -0.00000000000E+00 -0.41492749831E+03  0.41492749831E+03  0.00000000000E+00 0.  1.
         25    2    1    2    0    0 -0.36268797285E+02  0.48551671468E+02 -0.14942973779E+03  0.20408079957E+03  0.12508811198E+03 0.  0.
         23    2    1    2    0    0  0.36268797285E+02 -0.48551671468E+02 -0.22562967815E+03  0.25071478110E+03  0.90975047889E+02 0.  0.
          5    1    3    3  502    0  0.19593616803E+02  0.74580376787E+02 -0.82716371640E+02  0.11316188828E+03  0.41800000000E+01 0. -1.
         -5    1    3    3    0  502 -0.55862414088E+02 -0.26028705319E+02 -0.66713366149E+02  0.90918911296E+02  0.41800000000E+01 0. -1.
        -11    1    4    4    0    0  0.43171746768E+02 -0.38461663975E+02 -0.23043558065E+03  0.23757873673E+03  0.00000000000E+00 0.  1.
         11    1    4    4    0    0 -0.69029494832E+01 -0.10090007494E+02  0.48059025006E+01  0.13136044368E+02  0.00000000000E+00 0. -1.
</event>
<event>
 8    1  0.6849590E-009  0.1598958E+03  0.7561462E-02  0.1188814E+00
          1   -1    0    0  501    0  0.00000000000E+00  0.00000000000E+00  0.30168917279E+03  0.30168917279E+03  0.00000000000E+00 0. -1.
         -1   -1    0    0    0  501 -0.00000000000E+00 -0.00000000000E+00 -0.16224478792E+03  0.16224478792E+03  0.00000000000E+00 0.  1.
         25    2    1    2    0    0  0.76840955210E+02  0.11859728742E+03  0.20963438216E+03  0.28207094652E+03  0.12509035016E+03 0.  0.
         23    2    1    2    0    0 -0.76840955210E+02 -0.11859728742E+03 -0.70189997296E+02  0.18186301420E+03  0.90430477336E+02 0.  0.
          5    1    3    3  502    0  0.84808443254E+02  0.98686594505E+02  0.84872238986E+02  0.15541005544E+03  0.41800000000E+01 0.  1.
         -5    1    3    3    0  502 -0.79674880437E+01  0.19910692914E+02  0.12476214318E+03  0.12666089108E+03  0.41800000000E+01 0.  1.
        -11    1    4    4    0    0  0.12407587334E+02 -0.59343176830E+02 -0.26651641292E+02  0.66225907644E+02  0.00000000000E+00 0.  1.
         11    1    4    4    0    0 -0.89248542545E+02 -0.59254110588E+02 -0.43538356004E+02  0.11563710655E+03  0.00000000000E+00 0. -1.
</event>
<event>
 8    1  0.6849590E-009  0.9994669E+02  0.7561462E-02  0.1280408E+00
         -2   -1    0    0    0  501 -0.00000000000E+00  0.00000000000E+00  0.52837893250E+02  0.52837893250E+02  0.00000000000E+00 0.  1.
          2   -1    0    0  501    0  0.00000000000E+00 -0.00000000000E+00 -0.24502276339E+03  0.24502276339E+03  0.00000000000E+00 0. -1.
         25    2    1    2    0    0 -0.24897771880E+02  0.16640248947E+02 -0.13266530084E+03  0.18477364283E+03  0.12507765631E+03 0.  0.
         23    2    1    2    0    0  0.24897771880E+02 -0.16640248947E+02 -0.59519569300E+02  0.11308701381E+03  0.91374485680E+02 0.  0.
          5    1    3    3  502    0  0.24735744573E+02 -0.32924802839E+02 -0.98076354177E+02  0.10645347975E+03  0.41800000000E+01 0. -1.
         -5    1    3    3    0  502 -0.49633516453E+02  0.49565051785E+02 -0.34588946661E+02  0.78320163082E+02  0.41800000000E+01 0. -1.
        -11    1    4    4    0    0  0.42588134830E+02  0.20371700458E+02 -0.53948358562E+02  0.71688079897E+02  0.00000000000E+00 0. -1.
         11    1    4    4    0    0 -0.17690362950E+02 -0.37011949405E+02 -0.55712107376E+01  0.41398933913E+02  0.00000000000E+00 0.  1.
</event>
<event>
 8    1  0.6849590E-009  0.8711450E+02  0.7561462E-02  0.1309994E+00
          2   -1    0    0  501    0  0.00000000000E+00  0.00000000000E+00  0.66332680414E+02  0.66332680414E+02  0.00000000000E+00 0. -1.
         -2   -1    0    0    0  501 -0.00000000000E+00 -0.00000000000E+00 -0.26476839541E+03  0.26476839541E+03  0.00000000000E+00 0.  1.
         25    2    1    2    0    0  0.21048377356E+02 -0.43041558898E+02 -0.36155953792E+02  0.13874308979E+03  0.12508709761E+03 0.  0.
         23    2    1    2    0    0 -0.21048377356E+02  0.43041558898E+02 -0.16227976121E+03  0.19235798604E+03  0.91494611389E+02 0.  0.
          5    1    3    3  502    0  0.43674075722E+01  0.12094186924E+02 -0.70341223747E+02  0.71628931058E+02  0.41800000000E+01 0. -1.
         -5    1    3    3    0  502  0.16680969784E+02 -0.55135745822E+02  0.34185269954E+02  0.67114158731E+02  0.41800000000E+01 0. -1.
        -11    1    4    4    0    0 -0.53511614464E+02  0.62322295939E+01 -0.77245170094E+02  0.94176164029E+02  0.00000000000E+00 0. -1.
         11    1    4    4    0    0  0.32463237107E+02  0.36809329304E+02 -0.85034591112E+02  0.98181822009E+02  0.00000000000E+00 0.  1.
</event>
<event>
 8    1  0.6849590E-009  0.1394332E+03  0.7561462E-02  0.1214094E+00
          1   -1    0    0  501    0  0.00000000000E+00  0.00000000000E+00  0.58601739079E+03  0.58601739079E+03  0.00000000000E+00 0. -1.
         -1   -1    0    0    0  501 -0.00000000000E+00 -0.00000000000E+00 -0.33876546681E+02  0.33876546681E+02  0.00000000000E+00 0.  1.
         25    2    1    2    0    0  0.15527033472E+01 -0.89358310808E+02  0.33067161523E+03  0.36466206936E+03  0.12508952440E+03 0.  0.
         23    2    1    2    0    0 -0.15527033472E+01  0.89358310808E+02  0.22146922888E+03  0.25523186811E+03  0.90040927134E+02 0.  0.
          5    1    3    3  502    0  0.44414681758E+02  0.94324872547E+01  0.11018300039E+03  0.11924513300E+03  0.41800000000E+01 0.  1.
         -5    1    3    3    0  502 -0.42861978411E+02 -0.98790798063E+02  0.22048861485E+03  0.24541693636E+03  0.41800000000E+01 0.  1.
        -11    1    4    4    0    0 -0.16896350558E+02  0.10335752224E+03  0.16923346148E+03  0.19901816136E+03  0.00000000000E+00 0. -1.
         11    1    4    4    0    0  0.15343647211E+02 -0.13999211436E+02  0.52235767398E+02  0.56213706747E+02  0.00000000000E+00 0.  1.
</event>
<event>
 8    1  0.6849590E-009  0.1025657E+03  0.7561462E-02  0.1274991E+00
         -2   -1    0    0    0  501 -0.00000000000E+00  0.00000000000E+00  0.47832574973E+02  0.47832574973E+02  0.00000000000E+00 0.  1.
          2   -1    0    0  501    0  0.00000000000E+00 -0.00000000000E+00 -0.27526268314E+03  0.27526268314E+03  0.00000000000E+00 0. -1.
         25    2    1    2    0    0  0.19149062026E+02  0.15553629214E+02 -0.93013406500E+02  0.15782000893E+03  0.12508820677E+03 0.  0.
         23    2    1    2    0    0 -0.19149062026E+02 -0.15553629214E+02 -0.13441670167E+03  0.16527524918E+03  0.92948675875E+02 0.  0.
          5    1    3    3  502    0  0.44748535305E+02 -0.38314979439E+02 -0.74829262010E+02  0.95327645069E+02  0.41800000000E+01 0.  1.
         -5    1    3    3    0  502 -0.25599473279E+02  0.53868608653E+02 -0.18184144490E+02  0.62492363863E+02  0.41800000000E+01 0.  1.
        -11    1    4    4    0    0 -0.24823650859E+02  0.30814994331E+02 -0.99115946262E+02  0.10672276384E+03  0.00000000000E+00 0.  1.
         11    1    4    4    0    0  0.56745888322E+01 -0.46368623546E+02 -0.35300755406E+02  0.58552485346E+02  0.00000000000E+00 0. -1.
</event>
<event>
 8    1  0.6849590E-009  0.1618191E+03  0.7561462E-02  0.1186658E+00
          2   -1    0    0  501    0  0.00000000000E+00  0.00000000000E+00  0.63609867600E+03  0.63609867600E+03  0.00000000000E+00 0.  1.
         -2   -1    0    0    0  501 -0.00000000000E+00 -0.00000000000E+00 -0.59491094686E+02  0.59491094686E+02  0.00000000000E+00 0. -1.
         25    2    1    2    0    0 -0.11635986848E+03 -0.56877110449E+02  0.47439931452E+03  0.50742405570E+03  0.12509931255E+03 0.  0.
         23    2    1    2    0    0  0.11635986848E+03  0.56877110449E+02  0.10220826680E+03  0.18816571499E+03  0.90471994618E+02 0.  0.
          5    1    3    3  502    0  0.12472365905E+02 -0.48442052789E+02  0.15359062973E+03  0.16158510553E+03  0.41800000000E+01 0.  1.
         -5    1    3    3    0  502 -0.12883223439E+03 -0.84350576601E+01  0.32080868479E+03  0.34583895016E+03  0.41800000000E+01 0.  1.
        -11    1    4    4    0    0  0.96011435672E+02  0.14291948598E+02  0.10222391363E+03  0.14096873445E+03  0.00000000000E+00 0.  1.
         11    1    4    4    0    0  0.20348432808E+02  0.42585161851E+02 -0.15646827500E-01  0.47196980543E+02  0.00000000000E+00 0. -1.
</event>
<event>
 8    1  0.6849590E-009  0.1465504E+03  0.7561462E-02  0.1204777E+00
          2   -1    0    0  501    0  0.00000000000E+00  0.00000000000E+00  0.21685079408E+03  0.21685079408E+03  0.00000000000E+00 0. -1.
         -2   -1    0    0    0  501 -0.00000000000E+00 -0.00000000000E+00 -0.13701859928E+03  0.13701859928E+03  0.00000000000E+00 0.  1.
         25    2    1    2    0    0 -0.44410408036E+02  0.95067427658E+02 -0.41723592305E+02  0.16851860570E+03  0.12509021611E+03 0.  0.
         23    2    1    2    0    0  0.44410408036E+02 -0.95067427658E+02  0.12155578711E+03  0.18535078767E+03  0.92568920086E+02 0.  0.
          5    1    3    3  502    0  0.34311404177E+02  0.62294681401E+02 -0.42854143424E+02  0.83137535422E+02  0.41800000000E+01 0. -1.
         -5    1    3    3    0  502 -0.78721812213E+02  0.32772746258E+02  0.11305511188E+01  0.85381070274E+02  0.41800000000E+01 0. -1.
        -11    1    4    4    0    0 -0.12352178944E+02 -0.75410822786E+02  0.87986388132E+02  0.11653743182E+03  0.00000000000E+00 0. -1.
         11    1    4    4    0    0  0.56762586980E+02 -0.19656604873E+02  0.33569398976E+02  0.68813355851E+02  0.00000000000E+00 0.  1.
</event>
<event>
 8    1  0.6849590E-009  0.1033504E+03  0.7561462E-02  0.1273404E+00
         -1   -1    0    0    0  501 -0.00000000000E+00  0.00000000000E+00  0.70814642689E+03  0.70814642689E+03  0.00000000000E+00 0.  1.
          1   -1    0    0  501    0  0.00000000000E+00 -0.00000000000E+00 -0.31120960982E+02  0.31120960982E+02  0.00000000000E+00 0. -1.
         25    2    1    2    0    0 -0.52386163192E+01  0.47801776795E+02  0.14580265509E+03  0.19803619209E+03  0.12508983244E+03 0.  0.
         23    2    1    2    0    0  0.52386163192E+01 -0.47801776795E+02  0.53122281081E+03  0.54123119578E+03  0.91766440436E+02 0.  0.
          5    1    3    3  502    0  0.43399096623E+02  0.26166860050E+02  0.96091373133E+01  0.51749338860E+02  0.41800000000E+01 0.  1.
         -5    1    3    3    0  502 -0.48637712942E+02  0.21634916745E+02  0.13619351778E+03  0.14628685323E+03  0.41800000000E+01 0.  1.
        -11    1    4    4    0    0  0.29652587470E+02 -0.65767492798E+02  0.40841762887E+03  0.41474039907E+03  0.00000000000E+00 0.  1.
         11    1    4    4    0    0 -0.24413971151E+02  0.17965716003E+02  0.12280518194E+03  0.12649079671E+03  0.00000000000E+00 0. -1.
</event>
<event>
 8    1  0.6849590E-009  0.1062852E+03  0.7561462E-02  0.1267608E+00
          1   -1    0    0  501    0  0.00000000000E+00  0.00000000000E+00  0.25394592712E+03  0.25394592712E+03  0.00000000000E+00 0. -1.
         -1   -1    0    0    0  501 -0.00000000000E+00 -0.00000000000E+00 -0.11606694722E+03  0.11606694722E+03  0.00000000000E+00 0.  1.
         25    2    1    2    0    0  0.31109439220E+02 -0.62742124392E+02  0.19493321239E+03  0.24196987044E+03  0.12508432965E+03 0.  0.
         23    2    1    2    0    0 -0.31109439220E+02  0.62742124392E+02 -0.57054232495E+02  0.12804300391E+03  0.90749402325E+02 0.  0.
          5    1    3    3  502    0  0.64435654224E+02 -0.28723512218E+02  0.43074009396E+02  0.82763738285E+02  0.41800000000E+01 0.  1.
         -5    1    3    3    0  502 -0.33326215003E+02 -0.34018612174E+02  0.15185920300E+03  0.15920613216E+03  0.41800000000E+01 0.  1.
        -11    1    4    4    0    0 -0.38272321236E+02  0.72503970782E+02 -0.13815770497E+02  0.83141276551E+02  0.00000000000E+00 0. -1.
         11    1    4    4    0    0  0.71628820161E+01 -0.97618463901E+01 -0.43238461998E+02  0.44901727357E+02  0.00000000000E+00 0.  1.
</event>
<event>
 8    1  0.6849590E-009  0.1006078E+03  0.7561462E-02  0.1279023E+00
         -1   -1    0    0    0  501 -0.00000000000E+00  0.00000000000E+00  0.25148749539E+02  0.25148749539E+02  0.00000000000E+00 0.  1.
          1   -1    0    0  501    0  0.00000000000E+00 -0.00000000000E+00 -0.51803898496E+03  0.51803898496E+03  0.00000000000E+00 0. -1.
         25    2    1    2    0    0 -0.12260547662E+02 -0.27207550793E+02 -0.32916208651E+03  0.35340917208E+03  0.12513909008E+03 0.  0.
         23    2    1    2    0    0  0.12260547662E+02  0.27207550793E+02 -0.16372814891E+03  0.18977856241E+03  0.91205395443E+02 0.  0.
          5    1    3    3  502    0 -0.14158232029E+02  0.37870153169E+02 -0.23719445304E+03  0.24065179199E+03  0.41800000000E+01 0. -1.
         -5    1    3    3    0  502  0.18976843671E+01 -0.65077703962E+02 -0.91967633473E+02  0.11275738009E+03  0.41800000000E+01 0. -1.
        -11    1    4    4    0    0  0.30585257343E+02 -0.25315187355E+02 -0.57638397166E+02  0.69989295648E+02  0.00000000000E+00 0. -1.
         11    1    4    4    0    0 -0.18324709681E+02  0.52522738148E+02 -0.10608975174E+03  0.11978926676E+03  0.00000000000E+00 0.  1.
</event>
<event>
 8    1  0.6849590E-009  0.8423703E+02  0.7561462E-02  0.1317440E+00
          1   -1    0    0  501    0  0.00000000000E+00  0.00000000000E+00  0.96869674658E+03  0.96869674658E+03  0.00000000000E+00 0. -1.
         -1   -1    0    0    0  501 -0.00000000000E+00 -0.00000000000E+00 -0.19329304265E+02  0.19329304265E+02  0.00000000000E+00 0.  1.
         25    2    1    2    0    0  0.51849041318E+01  0.69308516119E+02  0.68821145532E+03  0.70293151950E+03  0.12508860952E+03 0.  0.
         23    2    1    2    0    0 -0.51849041318E+01 -0.69308516119E+02  0.26115598699E+03  0.28509453134E+03  0.90806875417E+02 0.  0.
          5    1    3    3  502    0  0.15138397152E+02  0.47236212253E+01  0.54733384571E+03  0.54757948713E+03  0.41800000000E+01 0. -1.
         -5    1    3    3    0  502 -0.99534930200E+01  0.64584894894E+02  0.14087760962E+03  0.15535203238E+03  0.41800000000E+01 0. -1.
        -11    1    4    4    0    0 -0.25597993473E+02 -0.57668878895E+02  0.25215854580E+03  0.25993247023E+03  0.00000000000E+00 0. -1.
         11    1    4    4    0    0  0.20413089341E+02 -0.11639637224E+02  0.89974411888E+01  0.25162061106E+02  0.00000000000E+00 0.  1.
</event>
<event>
 8    1  0.6849590E-009  0.9320043E+02  0.7561462E-02  0.1295281E+00
         -2   -1    0    0    0  501 -0.00000000000E+00  0.00000000000E+00  0.38506955133E+03  0.38506955133E+03  0.00000000000E+00 0.  1.
          2   -1    0    0  501    0  0.00000000000E+00 -0.00000000000E+00 -0.54855806288E+02  0.54855806288E+02  0.00000000000E+00 0. -1.
         25    2    1    2    0    0  0.37373137308E+01  0.68337113618E+02  0.27841947883E+03  0.31280794138E+03  0.12508986124E+03 0.  0.
         23    2    1    2    0    0 -0.37373137308E+01 -0.68337113618E+02  0.51794266208E+02  0.12711741624E+03  0.93767067178E+02 0.  0.
          5    1    3    3  502    0 -0.60123897364E+01  0.31931111452E+02  0.27246009607E+03  0.27442252287E+03  0.41800000000E+01 0.  1.
         -5    1    3    3    0  502  0.97497034671E+01  0.36406002166E+02  0.59593827662E+01  0.38385418512E+02  0.41800000000E+01 0.  1.
        -11    1    4    4    0    0 -0.41946299279E+02 -0.65009213585E+02  0.39323538656E+02  0.86787271916E+02  0.00000000000E+00 0.  1.
         11    1    4    4    0    0  0.38208985548E+02 -0.33279000325E+01  0.12470727552E+02  0.40330144321E+02  0.00000000000E+00 0. -1.
</event>
<event>
 8    1  0.6849590E-009  0.1287205E+03  0.7561462E-02  0.1229367E+00
          2   -1    0    0  501    0  0.00000000000E+00  0.00000000000E+00  0.32302272129E+03  0.32302272129E+03  0.00000000000E+00 0. -1.
         -2   -1    0    0    0  501 -0.00000000000E+00 -0.00000000000E+00 -0.58600916477E+02  0.58600916477E+02  0.00000000000E+00 0.  1.
         25    2    1    2    0    0 -0.93242771493E+01  0.80313244266E+02  0.17548449259E+03  0.23017307292E+03  0.12509067515E+03 0.  0.
         23    2    1    2    0    0  0.93242771493E+01 -0.80313244266E+02  0.88937312220E+02  0.15145056485E+03  0.92142654283E+02 0.  0.
          5    1    3    3  502    0 -0.60415367837E+02  0.41279041045E+02  0.13631847311E+03  0.15477136173E+03  0.41800000000E+01 0.  1.
         -5    1    3    3    0  502  0.51091090688E+02  0.39034203221E+02  0.39166019486E+02  0.75401711195E+02  0.41800000000E+01 0.  1.
        -11    1    4    4    0    0 -0.12483428806E+02 -0.93436914101E+02  0.55373070196E+02  0.10932735163E+03  0.00000000000E+00 0.  1.
         11    1    4    4    0    0  0.21807705955E+02  0.13123669835E+02  0.33564242023E+02  0.42123213215E+02  0.00000000000E+00 0. -1.
</event>
<event>
 8    1  0.6849590E-009  0.9075574E+02  0.7561462E-02  0.1301032E+00
          1   -1    0    0  501    0  0.00000000000E+00  0.00000000000E+00  0.10341192671E+03  0.10341192671E+03  0.00000000000E+00 0. -1.
         -1   -1    0    0    0  501 -0.00000000000E+00 -0.00000000000E+00 -0.13882029907E+03  0.13882029907E+03  0.00000000000E+00 0.  1.
         25    2    1    2    0    0 -0.41354253010E+02 -0.26111354657E+02 -0.89946205847E+01  0.13461086982E+03  0.12508879242E+03 0.  0.
         23    2    1    2    0    0  0.41354253010E+02  0.26111354657E+02 -0.26413751778E+02  0.10762135596E+03  0.92155807697E+02 0.  0.
          5    1    3    3  502    0 -0.10958485988E+01  0.31190990909E+02 -0.45649780407E+02  0.55456772798E+02  0.41800000000E+01 0.  1.
         -5    1    3    3    0  502 -0.40258404411E+02 -0.57302345566E+02  0.36655159822E+02  0.79154097018E+02  0.41800000000E+01 0.  1.
        -11    1    4    4    0    0  0.35914622463E+02  0.46506125724E+02 -0.49144255583E+02  0.76601812598E+02  0.00000000000E+00 0.  1.
         11    1    4    4    0    0  0.54396305476E+01 -0.20394771067E+02  0.22730503805E+02  0.31019543365E+02  0.00000000000E+00 0. -1.
</event>
<event>
 8    1  0.6849590E-009  0.1181685E+03  0.7561462E-02  0.1246149E+00
          4   -1    0    0  501    0  0.00000000000E+00  0.00000000000E+00  0.37466302460E+02  0.37466302460E+02  0.00000000000E+00 0. -1.
         -4   -1    0    0    0  501 -0.00000000000E+00 -0.00000000000E+00 -0.72161764852E+03  0.72161764852E+03  0.00000000000E+00 0.  1.
         25    2    1    2    0    0 -0.19921818649E+02 -0.83352148013E+02 -0.57031552493E+03  0.59012864992E+03  0.12509023158E+03 0.  0.
         23    2    1    2    0    0  0.19921818649E+02  0.83352148013E+02 -0.11383582113E+03  0.16895530106E+03  0.90790088384E+02 0.  0.
          5    1    3    3  502    0 -0.27021966908E+02 -0.10843517654E+03 -0.53181365792E+03  0.54344421366E+03  0.41800000000E+01 0. -1.
         -5    1    3    3    0  502  0.71001482594E+01  0.25083028528E+02 -0.38501867013E+02  0.46684436260E+02  0.41800000000E+01 0. -1.
        -11    1    4    4    0    0 -0.61349468259E+01  0.67135013523E+02 -0.12001054006E+03  0.13764910947E+03  0.00000000000E+00 0.  1.
         11    1    4    4    0    0  0.26056765475E+02  0.16217134490E+02  0.61747189306E+01  0.31306191591E+02  0.00000000000E+00 0. -1.
</event>
<event>
 8    1  0.6849590E-009  0.1243519E+03  0.7561462E-02  0.1236086E+00
          2   -1    0    0  501    0  0.00000000000E+00  0.00000000000E+00  0.48089529102E+03  0.48089529102E+03  0.00000000000E+00 0. -1.
         -2   -1    0    0    0  501 -0.00000000000E+00 -0.00000000000E+00 -0.60739409789E+02  0.60739409789E+02  0.00000000000E+00 0.  1.
         25    2    1    2    0    0 -0.69177992300E+02  0.74329308354E+02  0.35573129782E+03  0.39051626108E+03  0.12509097978E+03 0.  0.
         23    2    1    2    0    0  0.69177992300E+02 -0.74329308354E+02  0.64424583417E+02  0.15111843973E+03  0.91519479783E+02 0.  0.
          5    1    3    3  502    0 -0.90479960787E+02  0.76245409208E+02  0.34767692883E+03  0.36728286779E+03  0.41800000000E+01 0. -1.
         -5    1    3    3    0  502  0.21301968487E+02 -0.19161008542E+01  0.80543689818E+01  0.23233393287E+02  0.41800000000E+01 0. -1.
        -11    1    4    4    0    0  0.21458695675E+02 -0.51141685237E+02  0.78605075290E+02  0.96201379670E+02  0.00000000000E+00 0. -1.
         11    1    4    4    0    0  0.47719296625E+02 -0.23187623117E+02 -0.14180491874E+02  0.54917060063E+02  0.00000000000E+00 0.  1.
</event>
<event>
 8    1  0.6849590E-009  0.1054247E+03  0.7561462E-02  0.1269285E+00
          2   -1    0    0  501    0  0.00000000000E+00  0.00000000000E+00  0.14735239121E+02  0.14735239121E+02  0.00000000000E+00 0. -1.
         -2   -1    0    0    0  501 -0.00000000000E+00 -0.00000000000E+00 -0.11043806956E+04  0.11043806956E+04  0.00000000000E+00 0.  1.
         25    2    1    2    0    0 -0.11037303128E+02 -0.59866768461E+02 -0.54317420273E+03  0.56070656847E+03  0.12509112434E+03 0.  0.
         23    2    1    2    0    0  0.11037303128E+02  0.59866768461E+02 -0.54647125380E+03  0.55840936630E+03  0.97387561417E+02 0.  0.
          5    1    3    3  502    0  0.10271991971E+02 -0.71642694533E+02 -0.14840969474E+03  0.16516991067E+03  0.41800000000E+01 0. -1.
         -5    1    3    3    0  502 -0.21309295099E+02  0.11775926072E+02 -0.39476450799E+03  0.39553665779E+03  0.41800000000E+01 0. -1.
        -11    1    4    4    0    0  0.34500742655E+02 -0.13176469016E+02 -0.14183247402E+03  0.14656183427E+03  0.00000000000E+00 0.  1.
         11    1    4    4    0    0 -0.23463439527E+02  0.73043237477E+02 -0.40463877978E+03  0.41184753203E+03  0.00000000000E+00 0. -1.
</event>
<event>
 8    1  0.6849590E-009  0.9312485E+02  0.7561462E-02  0.1295456E+00
         -2   -1    0    0    0  501 -0.00000000000E+00  0.00000000000E+00  0.96477472744E+02  0.96477472744E+02  0.00000000000E+00 0.  1.
          2   -1    0    0  501    0  0.00000000000E+00 -0.00000000000E+00 -0.22465784142E+03  0.22465784142E+03  0.00000000000E+00 0. -1.
         25    2    1    2    0    0  0.71127083632E+02  0.58483537317E+01  0.59066575778E+01  0.14417189661E+03  0.12512946057E+03 0.  0.
         23    2    1    2    0    0 -0.71127083632E+02 -0.58483537317E+01 -0.13408702626E+03  0.17696341755E+03  0.90793475948E+02 0.  0.
          5    1    3    3  502    0  0.26129445707E+02  0.20827547009E+02  0.62026282670E+02  0.70578090009E+02  0.41800000000E+01 0.  1.
         -5    1    3    3    0  502  0.44997637924E+02 -0.14979193277E+02 -0.56119625092E+02  0.73593806604E+02  0.41800000000E+01 0.  1.
        -11    1    4    4    0    0 -0.83629402684E+02 -0.20096136212E+02 -0.72386412420E+02  0.11241674425E+03  0.00000000000E+00 0.  1.
         11    1    4    4    0    0  0.12502319052E+02  0.14247782480E+02 -0.61700613836E+02  0.64546673307E+02  0.00000000000E+00 0. -1.
</event>
<event>
 8    1  0.6849590E-009  0.1362502E+03  0.7561462E-02  0.1218465E+00
          1   -1    0    0  501    0  0.00000000000E+00  0.00000000000E+00  0.52389454198E+02  0.52389454198E+02  0.00000000000E+00 0. -1.
         -1   -1    0    0    0  501 -0.00000000000E+00 -0.00000000000E+00 -0.55599638149E+03  0.55599638149E+03  0.00000000000E+00 0.  1.
         25    2    1    2    0    0  0.24685586633E+02  0.12826879540E+03 -0.29033014267E+03  0.34205693559E+03  0.12509633641E+03 0.  0.
         23    2    1    2    0    0 -0.24685586633E+02 -0.12826879540E+03 -0.21327678462E+03  0.26632890009E+03  0.91552357187E+02 0.  0.
          5    1    3    3  502    0 -0.16108290166E+01  0.66665676970E+02 -0.25993195476E+03  0.26838219159E+03  0.41800000000E+01 0. -1.
         -5    1    3    3    0  502  0.26296415649E+02  0.61603118430E+02 -0.30398187914E+02  0.73674744008E+02  0.41800000000E+01 0. -1.
        -11    1    4    4    0    0  0.13089205373E+02 -0.19986854011E+02 -0.10813830182E+03  0.11074607872E+03  0.00000000000E+00 0.  1.
         11    1    4    4    0    0 -0.37774792006E+02 -0.10828194139E+03 -0.10513848280E+03  0.15558282137E+03  0.00000000000E+00 0. -1.
</event>
<event>
 8    1  0.6849590E-009  0.1333128E+03  0.7561462E-02  0.1222621E+00
          2   -1    0    0  501    0  0.00000000000E+00  0.00000000000E+00  0.18659646881E+03  0.18659646881E+03  0.00000000000E+00 0. -1.
         -2   -1    0    0    0  501 -0.00000000000E+00 -0.00000000000E+00 -0.11784646611E+03  0.11784646611E+03  0.00000000000E+00 0.  1.
         25    2    1    2    0    0  0.78491390976E+02  0.59593695458E+02  0.54057873472E+02  0.16817429027E+03  0.12509209099E+03 0.  0.
         23    2    1    2    0    0 -0.78491390976E+02 -0.59593695458E+02  0.14692129228E+02  0.13626864465E+03  0.92956860199E+02 0.  0.
          5    1    3    3  502    0  0.75019398591E+02 -0.19442522258E+02  0.12168738018E+02  0.78558719577E+02  0.41800000000E+01 0.  1.
         -5    1    3    3    0  502  0.34719923850E+01  0.79036217716E+02  0.41889135454E+02  0.89615570695E+02  0.41800000000E+01 0.  1.
        -11    1    4    4    0    0 -0.12820348557E+02 -0.38868791014E+02 -0.32939396049E+02  0.52537111304E+02  0.00000000000E+00 0.  1.
         11    1    4    4    0    0 -0.65671042418E+02 -0.20724904443E+02  0.47631525277E+02  0.83731533347E+02  0.00000000000E+00 0. -1.
</event>
<event>
 8    1  0.6849590E-009  0.1802961E+03  0.7561462E-02  0.1167517E+00
         -2   -1    0    0    0  501 -0.00000000000E+00  0.00000000000E+00  0.31684667156E+02  0.31684667156E+02  0.00000000000E+00 0.  1.
          2   -1    0    0  501    0  0.00000000000E+00 -0.00000000000E+00 -0.12632012850E+04  0.12632012850E+04  0.00000000000E+00 0. -1.
         25    2    1    2    0    0 -0.12640767344E+03  0.82481347515E+02 -0.80172881755E+03  0.82534797303E+03  0.12509239426E+03 0.  0.
         23    2    1    2    0    0  0.12640767344E+03 -0.82481347515E+02 -0.42978780026E+03  0.46953797909E+03  0.11386960949E+03 0.  0.
          5    1    3    3  502    0 -0.11481419595E+03  0.99606056558E+02 -0.78137331871E+03  0.79603103061E+03  0.41800000000E+01 0.  1.
         -5    1    3    3    0  502 -0.11593477489E+02 -0.17124709043E+02 -0.20355498839E+02  0.29316942424E+02  0.41800000000E+01 0.  1.
        -11    1    4    4    0    0  0.98448257238E+02 -0.11040422473E+03 -0.31180247867E+03  0.34511148618E+03  0.00000000000E+00 0. -1.
         11    1    4    4    0    0  0.27959416203E+02  0.27922877217E+02 -0.11798532159E+03  0.12442649291E+03  0.00000000000E+00 0.  1.
</event>
<event>
 8    1  0.6849590E-009  0.9140040E+02  0.7561462E-02  0.1299495E+00
          1   -1    0    0  501    0  0.00000000000E+00  0.00000000000E+00  0.21985634586E+03  0.21985634586E+03  0.00000000000E+00 0. -1.
         -1   -1    0    0    0  501 -0.00000000000E+00 -0.00000000000E+00 -0.69264505813E+02  0.69264505813E+02  0.00000000000E+00 0.  1.
         25    2    1    2    0    0  0.40221392409E+02 -0.28589020795E+01  0.36749845461E+02  0.13647055054E+03  0.12509087215E+03 0.  0.
         23    2    1    2    0    0 -0.40221392409E+02  0.28589020795E+01  0.11384199459E+03  0.15265030113E+03  0.93360489370E+02 0.  0.
          5    1    3    3  502    0  0.38798773372E+02 -0.35388750186E+02  0.71405274951E+02  0.88734965745E+02  0.41800000000E+01 0.  1.
         -5    1    3    3    0  502  0.14226190372E+01  0.32529848107E+02 -0.34655429491E+02  0.47735584797E+02  0.41800000000E+01 0.  1.
        -11    1    4    4    0    0 -0.37473797416E+02  0.43011457941E+02  0.44005593906E+02  0.72046952066E+02  0.00000000000E+00 0. -1.
         11    1    4    4    0    0 -0.27475949934E+01 -0.40152555861E+02  0.69836400681E+02  0.80603349065E+02  0.00000000000E+00 0.  1.
</event>
<event>
 8    1  0.6849590E-009  0.1032657E+03  0.7561462E-02  0.1273575E+00
         -2   -1    0    0    0  501 -0.00000000000E+00  0.00000000000E+00  0.17553963533E+02  0.17553963533E+02  0.00000000000E+00 0. -1.
          2   -1    0    0  501    0  0.00000000000E+00 -0.00000000000E+00 -0.67348674958E+03  0.67348674958E+03  0.00000000000E+00 0.  1.
         25    2    1    2    0    0 -0.13743960306E+02  0.63820108719E+00 -0.39633810613E+03  0.41583587756E+03  0.12508508686E+03 0.  0.
         23    2    1    2    0    0  0.13743960306E+02 -0.63820108719E+00 -0.25959467992E+03  0.27520483554E+03  0.90327182626E+02 0.  0.
          5    1    3    3  502    0 -0.12245927569E+02  0.57972960892E+02 -0.27787178276E+03  0.28414965598E+03  0.41800000000E+01 0. -1.
         -5    1    3    3    0  502 -0.14980327365E+01 -0.57334759805E+02 -0.11846632336E+03  0.13168622158E+03  0.41800000000E+01 0. -1.
        -11    1    4    4    0    0  0.46489199676E+02 -0.21056927318E+02 -0.17364420609E+03  0.18098881232E+03  0.00000000000E+00 0.  1.
         11    1    4    4    0    0 -0.32745239371E+02  0.20418726231E+02 -0.85950473822E+02  0.94216023226E+02  0.00000000000E+00 0. -1.
</event>
<event>
 8    1  0.6849590E-009  0.1158983E+03  0.7561462E-02  0.1250021E+00
          2   -1    0    0  501    0  0.00000000000E+00  0.00000000000E+00  0.46430686867E+02  0.46430686867E+02  0.00000000000E+00 0. -1.
         -2   -1    0    0    0  501 -0.00000000000E+00 -0.00000000000E+00 -0.35567351879E+03  0.35567351879E+03  0.00000000000E+00 0.  1.
         25    2    1    2    0    0  0.63284697240E+02 -0.41052550811E+01 -0.20970207748E+03  0.25227777201E+03  0.12508919588E+03 0.  0.
         23    2    1    2    0    0 -0.63284697240E+02  0.41052550811E+01 -0.99540754444E+02  0.14982643365E+03  0.92291886969E+02 0.  0.
          5    1    3    3  502    0  0.56819852482E+01  0.56109636704E+02 -0.77248348199E+02  0.95735865729E+02  0.41800000000E+01 0. -1.
         -5    1    3    3    0  502  0.57602711992E+02 -0.60214891785E+02 -0.13245372928E+03  0.15654190628E+03  0.41800000000E+01 0. -1.
        -11    1    4    4    0    0 -0.40128351628E+02 -0.30338680228E+02 -0.10220125807E+02  0.51333917577E+02  0.00000000000E+00 0. -1.
         11    1    4    4    0    0 -0.23156345613E+02  0.34443935309E+02 -0.89320628638E+02  0.98492516071E+02  0.00000000000E+00 0.  1.
</event>
<event>
 8    1  0.6849590E-009  0.1066052E+03  0.7561462E-02  0.1266989E+00
          2   -1    0    0  501    0  0.00000000000E+00  0.00000000000E+00  0.12292938814E+03  0.12292938814E+03  0.00000000000E+00 0. -1.
         -2   -1    0    0    0  501 -0.00000000000E+00 -0.00000000000E+00 -0.11359291834E+03  0.11359291834E+03  0.00000000000E+00 0.  1.
         25    2    1    2    0    0 -0.18641365797E+02 -0.39882294081E+02 -0.59151161785E+01  0.13274102472E+03  0.12508834136E+03 0.  0.
         23    2    1    2    0    0  0.18641365797E+02  0.39882294081E+02  0.15251585976E+02  0.10378128177E+03  0.92735352861E+02 0.  0.
          5    1    3    3  502    0  0.52465234274E+02 -0.94685556815E+01 -0.12793496202E+02  0.54985455342E+02  0.41800000000E+01 0. -1.
         -5    1    3    3    0  502 -0.71106600070E+02 -0.30413738399E+02  0.68783800235E+01  0.77755569374E+02  0.41800000000E+01 0. -1.
        -11    1    4    4    0    0  0.21621432770E+02 -0.15637362183E+02 -0.23866196537E+02  0.35799564079E+02  0.00000000000E+00 0.  1.
         11    1    4    4    0    0 -0.29800669738E+01  0.55519656264E+02  0.39117782514E+02  0.67981717686E+02  0.00000000000E+00 0. -1.
</event>
<event>
 8    1  0.6849590E-009  0.7868431E+02  0.7561462E-02  0.1332827E+00
         -1   -1    0    0    0  501 -0.00000000000E+00  0.00000000000E+00  0.27600031870E+02  0.27600031870E+02  0.00000000000E+00 0.  1.
          1   -1    0    0  501    0  0.00000000000E+00 -0.00000000000E+00 -0.48124190305E+03  0.48124190305E+03  0.00000000000E+00 0. -1.
         25    2    1    2    0    0  0.25071348057E+02 -0.27239369626E+02 -0.24579320710E+03  0.27826447613E+03  0.12508502015E+03 0.  0.
         23    2    1    2    0    0 -0.25071348057E+02  0.27239369626E+02 -0.20784866408E+03  0.23057745879E+03  0.92705671851E+02 0.  0.
          5    1    3    3  502    0 -0.25899388573E+01  0.15779710776E+02  0.86800967269E+01  0.18668785034E+02  0.41800000000E+01 0.  1.
         -5    1    3    3    0  502  0.27661286914E+02 -0.43019080402E+02 -0.25447330383E+03  0.25959569109E+03  0.41800000000E+01 0.  1.
        -11    1    4    4    0    0 -0.32520666201E+02 -0.22297963168E+02 -0.14467801908E+03  0.14995506692E+03  0.00000000000E+00 0. -1.
         11    1    4    4    0    0  0.74493181441E+01  0.49537332794E+02 -0.63170645002E+02  0.80622391871E+02  0.00000000000E+00 0.  1.
</event>
<event>
 8    1  0.6849590E-009  0.1134405E+03  0.7561462E-02  0.1254328E+00
          1   -1    0    0  501    0  0.00000000000E+00  0.00000000000E+00  0.32219190742E+03  0.32219190742E+03  0.00000000000E+00 0. -1.
         -1   -1    0    0    0  501 -0.00000000000E+00 -0.00000000000E+00 -0.55976108127E+02  0.55976108127E+02  0.00000000000E+00 0.  1.
         25    2    1    2    0    0  0.71715290801E+02  0.41478991469E+01  0.19570425047E+03  0.24311952669E+03  0.12508662041E+03 0.  0.
         23    2    1    2    0    0 -0.71715290801E+02 -0.41478991469E+01  0.70511548828E+02  0.13504848886E+03  0.90032926324E+02 0.  0.
          5    1    3    3  502    0  0.78713082762E+02  0.33038470576E+02  0.19520643587E+03  0.21309696136E+03  0.41800000000E+01 0. -1.
         -5    1    3    3    0  502 -0.69977919608E+01 -0.28890571429E+02  0.49781459812E+00  0.30022565334E+02  0.41800000000E+01 0. -1.
        -11    1    4    4    0    0  0.15651965418E+02  0.15301295823E+02  0.13411139050E+01  0.21929711850E+02  0.00000000000E+00 0.  1.
         11    1    4    4    0    0 -0.87367256219E+02 -0.19449194970E+02  0.69170434923E+02  0.11311877701E+03  0.00000000000E+00 0. -1.
</event>
<event>
 8    1  0.6849590E-009  0.1017650E+03  0.7561462E-02  0.1276628E+00
          2   -1    0    0  501    0  0.00000000000E+00  0.00000000000E+00  0.14072077620E+03  0.14072077620E+03  0.00000000000E+00 0. -1.
         -2   -1    0    0    0  501 -0.00000000000E+00 -0.00000000000E+00 -0.12160171176E+03  0.12160171176E+03  0.00000000000E+00 0.  1.
         25    2    1    2    0    0  0.25861701598E+02  0.57038420010E+01 -0.57216811514E+02  0.14006430411E+03  0.12507151691E+03 0.  0.
         23    2    1    2    0    0 -0.25861701598E+02 -0.57038420010E+01  0.76335875953E+02  0.12225818385E+03  0.91752581090E+02 0.  0.
          5    1    3    3  502    0  0.61695567072E+02 -0.30333085037E+02 -0.82504339937E+01  0.69368444593E+02  0.41800000000E+01 0.  1.
         -5    1    3    3    0  502 -0.35833865474E+02  0.36036927038E+02 -0.48966377521E+02  0.70695859516E+02  0.41800000000E+01 0.  1.
        -11    1    4    4    0    0 -0.36018351420E+02 -0.36472737083E+02  0.15874348173E+02  0.53661691357E+02  0.00000000000E+00 0.  1.
         11    1    4    4    0    0  0.10156649823E+02  0.30768895082E+02  0.60461527780E+02  0.68596492488E+02  0.00000000000E+00 0. -1.
</event>
<event>
 8    1  0.6849590E-009  0.1576034E+03  0.7561462E-02  0.1191429E+00
         -2   -1    0    0    0  501 -0.00000000000E+00  0.00000000000E+00  0.95709389690E+02  0.95709389690E+02  0.00000000000E+00 0.  1.
          2   -1    0    0  501    0  0.00000000000E+00 -0.00000000000E+00 -0.32655445201E+03  0.32655445201E+03  0.00000000000E+00 0. -1.
         25    2    1    2    0    0  0.13069473200E+03  0.28972769823E+02 -0.18320682885E+03  0.25910061630E+03  0.12509137807E+03 0.  0.
         23    2    1    2    0    0 -0.13069473200E+03 -0.28972769823E+02 -0.47638233468E+02  0.16316322540E+03  0.80201636336E+02 0.  0.
          5    1    3    3  502    0  0.10909956556E+03  0.57657963477E+02 -0.73724569670E+02  0.14380521733E+03  0.41800000000E+01 0.  1.
         -5    1    3    3    0  502  0.21595166435E+02 -0.28685193654E+02 -0.10948225918E+03  0.11529539897E+03  0.41800000000E+01 0.  1.
        -11    1    4    4    0    0 -0.10736947341E+03  0.12411899866E+02 -0.38832140662E+02  0.11484857085E+03  0.00000000000E+00 0. -1.
         11    1    4    4    0    0 -0.23325258591E+02 -0.41384669688E+02 -0.88060928066E+01  0.48314654548E+02  0.00000000000E+00 0.  1.
</event>
<event>
 8    1  0.6849590E-009  0.9962008E+02  0.7561462E-02  0.1281097E+00
         -1   -1    0    0    0  501 -0.00000000000E+00  0.00000000000E+00  0.13460381249E+03  0.13460381249E+03  0.00000000000E+00 0.  1.
          1   -1    0    0  501    0  0.00000000000E+00 -0.00000000000E+00 -0.76988432172E+02  0.76988432172E+02  0.00000000000E+00 0. -1.
         25    2    1    2    0    0 -0.14740304288E+02  0.15445614604E+02  0.23089290975E+02  0.12897991785E+03  0.12508741052E+03 0.  0.
         23    2    1    2    0    0  0.14740304288E+02 -0.15445614604E+02  0.34526089347E+02  0.82612326814E+02  0.71950692248E+02 0.  0.
          5    1    3    3  502    0  0.11897860343E+01  0.69881479086E+02  0.13425640746E+02  0.71292053831E+02  0.41800000000E+01 0.  1.
         -5    1    3    3    0  502 -0.15930090322E+02 -0.54435864482E+02  0.96636502289E+01  0.57687864021E+02  0.41800000000E+01 0.  1.
        -11    1    4    4    0    0 -0.24159146103E+01  0.26719859370E+02  0.24831045886E+01  0.26943521235E+02  0.00000000000E+00 0. -1.
         11    1    4    4    0    0  0.17156218898E+02 -0.42165473974E+02  0.32042984758E+02  0.55668805578E+02  0.00000000000E+00 0.  1.
</event>
<event>
 8    1  0.6849590E-009  0.1840332E+03  0.7561462E-02  0.1163956E+00
          2   -1    0    0  501    0  0.00000000000E+00  0.00000000000E+00  0.14195677805E+04  0.14195677805E+04  0.00000000000E+00 0. -1.
         -2   -1    0    0    0  501 -0.00000000000E+00 -0.00000000000E+00 -0.28393358852E+02  0.28393358852E+02  0.00000000000E+00 0.  1.
         25    2    1    2    0    0  0.16367279853E+03 -0.38159148214E+02  0.80008527106E+03  0.82706384063E+03  0.12511294871E+03 0.  0.
         23    2    1    2    0    0 -0.16367279853E+03  0.38159148214E+02  0.59108915062E+03  0.62089729876E+03  0.88781563701E+02 0.  0.
          5    1    3    3  502    0  0.16164423988E+03 -0.61508801358E+02  0.56804248393E+03  0.59380293775E+03  0.41800000000E+01 0. -1.
         -5    1    3    3    0  502  0.20285586502E+01  0.23349653143E+02  0.23204278713E+03  0.23326090288E+03  0.41800000000E+01 0. -1.
        -11    1    4    4    0    0 -0.76101748219E+02  0.34641858875E+02  0.42454234529E+03  0.43269820593E+03  0.00000000000E+00 0. -1.
         11    1    4    4    0    0 -0.87571050309E+02  0.35172893393E+01  0.16654680533E+03  0.18819909283E+03  0.00000000000E+00 0.  1.
</event>
<event>
 8    1  0.6849590E-009  0.1112123E+03  0.7561462E-02  0.1258341E+00
          1   -1    0    0  501    0  0.00000000000E+00  0.00000000000E+00  0.12693880193E+03  0.12693880193E+03  0.00000000000E+00 0. -1.
         -1   -1    0    0    0  501 -0.00000000000E+00 -0.00000000000E+00 -0.10771295860E+03  0.10771295860E+03  0.00000000000E+00 0.  1.
         25    2    1    2    0    0 -0.16976737604E+02 -0.39978978945E+02  0.71657353901E+01  0.13260762495E+03  0.12508759352E+03 0.  0.
         23    2    1    2    0    0  0.16976737604E+02  0.39978978945E+02  0.12060107934E+02  0.10204413558E+03  0.91547971175E+02 0.  0.
          5    1    3    3  502    0  0.46517300753E+02 -0.33731468115E+02  0.29698035116E+02  0.64816023483E+02  0.41800000000E+01 0. -1.
         -5    1    3    3    0  502 -0.63494038356E+02 -0.62475108301E+01 -0.22532299726E+02  0.67791601466E+02  0.41800000000E+01 0. -1.
        -11    1    4    4    0    0  0.53552223823E+02  0.34968640430E+02  0.29839072352E+01  0.64027729870E+02  0.00000000000E+00 0.  1.
         11    1    4    4    0    0 -0.36575486219E+02  0.50103385151E+01  0.90762006988E+01  0.38016405713E+02  0.00000000000E+00 0. -1.
</event>
<event>
 8    1  0.6849590E-009  0.1756895E+03  0.7561462E-02  0.1172041E+00
         -1   -1    0    0    0  501 -0.00000000000E+00  0.00000000000E+00  0.12478668152E+03  0.12478668152E+03  0.00000000000E+00 0.  1.
          1   -1    0    0  501    0  0.00000000000E+00 -0.00000000000E+00 -0.26455294706E+03  0.26455294706E+03  0.00000000000E+00 0. -1.
         25    2    1    2    0    0 -0.11531455228E+03  0.85307593922E+02 -0.61517666100E+02  0.20002153641E+03  0.12509740300E+03 0.  0.
         23    2    1    2    0    0  0.11531455228E+03 -0.85307593922E+02 -0.78248599439E+02  0.18931809216E+03  0.95622513849E+02 0.  0.
          5    1    3    3  502    0 -0.77035502684E+02  0.11225488194E+03 -0.68570940824E+02  0.15249614263E+03  0.41800000000E+01 0.  1.
         -5    1    3    3    0  502 -0.38279049600E+02 -0.26947288015E+02  0.70532747240E+01  0.47525393781E+02  0.41800000000E+01 0.  1.
        -11    1    4    4    0    0  0.56635238150E+02 -0.93102544881E+02 -0.70075808710E+02  0.12956177303E+03  0.00000000000E+00 0. -1.
         11    1    4    4    0    0  0.58679314134E+02  0.77949509592E+01 -0.81727907291E+01  0.59756319130E+02  0.00000000000E+00 0.  1.
</event>
<event>
 8    1  0.6849590E-009  0.1068142E+03  0.7561462E-02  0.1266586E+00
         -1   -1    0    0    0  501 -0.00000000000E+00  0.00000000000E+00  0.12296135349E+03  0.12296135349E+03  0.00000000000E+00 0.  1.
          1   -1    0    0  501    0  0.00000000000E+00 -0.00000000000E+00 -0.12686708008E+03  0.12686708008E+03  0.00000000000E+00 0. -1.
         25    2    1    2    0    0 -0.43500733758E+02  0.44782097237E+02  0.93698542913E+01  0.14011690918E+03  0.12508878446E+03 0.  0.
         23    2    1    2    0    0  0.43500733758E+02 -0.44782097237E+02 -0.13275580881E+02  0.10971152439E+03  0.89233555712E+02 0.  0.
          5    1    3    3  502    0  0.19948884905E+02 -0.13418288986E+02  0.41483285606E+02  0.48128410247E+02  0.41800000000E+01 0.  1.
         -5    1    3    3    0  502 -0.63449618663E+02  0.58200386222E+02 -0.32113431315E+02  0.91988498932E+02  0.41800000000E+01 0.  1.
        -11    1    4    4    0    0  0.46903048860E+02  0.10148998273E+02  0.11513109534E+02  0.49350277096E+02  0.00000000000E+00 0.  1.
         11    1    4    4    0    0 -0.34023151023E+01 -0.54931095509E+02 -0.24788690415E+02  0.60361247290E+02  0.00000000000E+00 0. -1.
</event>
<event>
 8    1  0.6849590E-009  0.2946956E+03  0.7561462E-02  0.1087923E+00
         -1   -1    0    0    0  501 -0.00000000000E+00  0.00000000000E+00  0.16389546309E+03  0.16389546309E+03  0.00000000000E+00 0.  1.
          1   -1    0    0  501    0  0.00000000000E+00 -0.00000000000E+00 -0.69091506091E+03  0.69091506091E+03  0.00000000000E+00 0. -1.
         25    2    1    2    0    0  0.16128002524E+03 -0.24332765303E+03 -0.11149811796E+03  0.33659851820E+03  0.12508852416E+03 0.  0.
         23    2    1    2    0    0 -0.16128002524E+03  0.24332765303E+03 -0.41552147986E+03  0.51821200579E+03  0.10327627728E+03 0.  0.
          5    1    3    3  502    0  0.10839624251E+03 -0.18238206217E+03 -0.13614606662E+03  0.25212335443E+03  0.41800000000E+01 0.  1.
         -5    1    3    3    0  502  0.52883782726E+02 -0.60945590861E+02  0.24647948667E+02  0.84475163772E+02  0.41800000000E+01 0.  1.
        -11    1    4    4    0    0 -0.10300967231E+03  0.19560027318E+03 -0.23516125897E+03  0.32275575468E+03  0.00000000000E+00 0. -1.
         11    1    4    4    0    0 -0.58270352926E+02  0.47727379848E+02 -0.18036022090E+03  0.19545625111E+03  0.00000000000E+00 0.  1.
</event>
<event>
 7    1  0.6849590E-009  0.1170049E+03  0.7561462E-02  0.1248121E+00
          4   -1    0    0  501    0  0.00000000000E+00  0.00000000000E+00  0.41630046012E+03  0.41630046012E+03  0.00000000000E+00 0. -1.
         -4   -1    0    0    0  501 -0.00000000000E+00 -0.00000000000E+00 -0.35310095428E+02  0.35310095428E+02  0.00000000000E+00 0.  1.
         23    2    1    2    0    0 -0.48150313655E+02  0.11153934002E+02  0.13022513965E+03  0.16692223696E+03  0.91986864534E+02 0.  0.
          5    1    1    2  502    0 -0.29190585754E+02  0.32270387272E+02  0.59660923791E+02  0.73961925468E+02  0.41800000000E+01 0. -1.
         -5    1    1    2    0  502  0.77340899409E+02 -0.43424321273E+02  0.19110430126E+03  0.21072639312E+03  0.41800000000E+01 0. -1.
        -11    1    3    3    0    0 -0.18359272070E+02 -0.39033739149E+02  0.36477689963E+02  0.56491747432E+02  0.00000000000E+00 0. -1.
         11    1    3    3    0    0 -0.29791041585E+02  0.50187673151E+02  0.93747449683E+02  0.11043048953E+03  0.00000000000E+00 0.  1.
</event>
<event>
 8    1  0.6849590E-009  0.1159622E+03  0.7561462E-02  0.1249911E+00
          1   -1    0    0  501    0  0.00000000000E+00  0.00000000000E+00  0.57983029779E+02  0.57983029779E+02  0.00000000000E+00 0. -1.
         -1   -1    0    0    0  501 -0.00000000000E+00 -0.00000000000E+00 -0.25947852758E+03  0.25947852758E+03  0.00000000000E+00 0.  1.
         25    2    1    2    0    0  0.34776933995E+02 -0.58189253642E+02 -0.11948375865E+03  0.18579526339E+03  0.12509231366E+03 0.  0.
         23    2    1    2    0    0 -0.34776933995E+02  0.58189253642E+02 -0.82011739151E+02  0.13166629397E+03  0.77554259929E+02 0.  0.
          5    1    3    3  502    0  0.54164316890E+02  0.17104866216E+02 -0.80792214016E+02  0.98849400190E+02  0.41800000000E+01 0. -1.
         -5    1    3    3    0  502 -0.19387382895E+02 -0.75294119858E+02 -0.38691544639E+02  0.86945863198E+02  0.41800000000E+01 0. -1.
        -11    1    4    4    0    0 -0.26553025515E+02  0.74363804499E+02 -0.46109476138E+02  0.91439173079E+02  0.00000000000E+00 0.  1.
         11    1    4    4    0    0 -0.82239084793E+01 -0.16174550858E+02 -0.35902263013E+02  0.40227120896E+02  0.00000000000E+00 0. -1.
</event>
<event>
 8    1  0.6849590E-009  0.8445278E+02  0.7561462E-02  0.1316870E+00
         -1   -1    0    0    0  501 -0.00000000000E+00  0.00000000000E+00  0.63766764976E+02  0.63766764976E+02  0.00000000000E+00 0.  1.
          1   -1    0    0  501    0  0.00000000000E+00 -0.00000000000E+00 -0.38147028280E+03  0.38147028280E+03  0.00000000000E+00 0. -1.
         25    2    1    2    0    0  0.69634467243E+01  0.22633209909E+02 -0.32637934275E+03  0.35033024839E+03  0.12508819201E+03 0.  0.
         23    2    1    2    0    0 -0.69634467243E+01 -0.22633209909E+02  0.86758249228E+01  0.94906799392E+02  0.91494693024E+02 0.  0.
          5    1    3    3  502    0  0.51689490871E+02  0.48868879539E+02 -0.14382926853E+03  0.16051262175E+03  0.41800000000E+01 0.  1.
         -5    1    3    3    0  502 -0.44726044147E+02 -0.26235669629E+02 -0.18255007422E+03  0.18981762664E+03  0.41800000000E+01 0.  1.
        -11    1    4    4    0    0  0.68488734562E+01 -0.29442540412E+02  0.45708437532E+02  0.54799922583E+02  0.00000000000E+00 0.  1.
         11    1    4    4    0    0 -0.13812320181E+02  0.68093305024E+01 -0.37032612609E+02  0.40106876808E+02  0.00000000000E+00 0. -1.
</event>
<event>
 8    1  0.6849590E-009  0.1180464E+03  0.7561462E-02  0.1246355E+00
         -3   -1    0    0    0  501 -0.00000000000E+00  0.00000000000E+00  0.42849247335E+03  0.42849247335E+03  0.00000000000E+00 0.  1.
          3   -1    0    0  501    0  0.00000000000E+00 -0.00000000000E+00 -0.39398422399E+02  0.39398422399E+02  0.00000000000E+00 0. -1.
         25    2    1    2    0    0 -0.18824866797E+02 -0.69224825348E+02  0.20897481309E+03  0.25389486765E+03  0.12508268968E+03 0.  0.
         23    2    1    2    0    0  0.18824866797E+02  0.69224825348E+02  0.18011923786E+03  0.21399602810E+03  0.90580948000E+02 0.  0.
          5    1    3    3  502    0 -0.44385476078E+02 -0.91620036888E+02  0.11380233888E+03  0.15275060190E+03  0.41800000000E+01 0.  1.
         -5    1    3    3    0  502  0.25560609281E+02  0.22395211540E+02  0.95172474213E+02  0.10114426575E+03  0.41800000000E+01 0.  1.
        -11    1    4    4    0    0 -0.87847088047E+01  0.71705095879E+02  0.16960325598E+03  0.18434765071E+03  0.00000000000E+00 0.  1.
         11    1    4    4    0    0  0.27609575602E+02 -0.24802705312E+01  0.10515981881E+02  0.29648377388E+02  0.00000000000E+00 0. -1.
</event>
<event>
 8    1  0.6849590E-009  0.8810980E+02  0.7561462E-02  0.1307495E+00
          2   -1    0    0  501    0  0.00000000000E+00  0.00000000000E+00  0.34300557020E+03  0.34300557020E+03  0.00000000000E+00 0. -1.
         -2   -1    0    0    0  501 -0.00000000000E+00 -0.00000000000E+00 -0.45213293419E+02  0.45213293419E+02  0.00000000000E+00 0.  1.
         25    2    1    2    0    0 -0.47696389344E+02 -0.29485734505E+02  0.14714488980E+03  0.20110030175E+03  0.12508140819E+03 0.  0.
         23    2    1    2    0    0  0.47696389344E+02  0.29485734505E+02  0.15064738698E+03  0.18711856187E+03  0.95782915468E+02 0.  0.
          5    1    3    3  502    0 -0.23551641623E+02 -0.66706683833E+02  0.13868494964E+03  0.15574161020E+03  0.41800000000E+01 0. -1.
         -5    1    3    3    0  502 -0.24144747721E+02  0.37220949328E+02  0.84599401558E+01  0.45358691547E+02  0.41800000000E+01 0. -1.
        -11    1    4    4    0    0  0.25089768033E+02  0.28769814410E+02  0.15861071437E+03  0.16313968675E+03  0.00000000000E+00 0. -1.
         11    1    4    4    0    0  0.22606621311E+02  0.71592009543E+00 -0.79633273878E+01  0.23978875115E+02  0.00000000000E+00 0.  1.
</event>
<event>
 8    1  0.6849590E-009  0.1306200E+03  0.7561462E-02  0.1226539E+00
          2   -1    0    0  501    0  0.00000000000E+00  0.00000000000E+00  0.39431371475E+03  0.39431371475E+03  0.00000000000E+00 0. -1.
         -2   -1    0    0    0  501 -0.00000000000E+00 -0.00000000000E+00 -0.52333554057E+02  0.52333554057E+02  0.00000000000E+00 0.  1.
         25    2    1    2    0    0 -0.92053319996E+02 -0.21057681258E+02  0.18601881089E+03  0.24323915026E+03  0.12508016050E+03 0.  0.
         23    2    1    2    0    0  0.92053319996E+02  0.21057681258E+02  0.15596134981E+03  0.20340811855E+03  0.90186919212E+02 0.  0.
          5    1    3    3  502    0  0.20950681119E+02  0.21296780582E+02  0.68001756267E+02  0.74392171348E+02  0.41800000000E+01 0. -1.
         -5    1    3    3    0  502 -0.11300400111E+03 -0.42354461840E+02  0.11801705462E+03  0.16884697891E+03  0.41800000000E+01 0. -1.
        -11    1    4    4    0    0  0.31522679950E+01  0.21187291136E+02  0.90514839548E+02  0.93014914275E+02  0.00000000000E+00 0. -1.
         11    1    4    4    0    0  0.88901052001E+02 -0.12960987740E+00  0.65446510262E+02  0.11039320428E+03  0.00000000000E+00 0.  1.
</event>
<event>
 8    1  0.6849590E-009  0.1026378E+03  0.7561462E-02  0.1274845E+00
         -1   -1    0    0    0  501 -0.00000000000E+00  0.00000000000E+00  0.32795759611E+03  0.32795759611E+03  0.00000000000E+00 0.  1.
          1   -1    0    0  501    0  0.00000000000E+00 -0.00000000000E+00 -0.50443626154E+02  0.50443626154E+02  0.00000000000E+00 0. -1.
         25    2    1    2    0    0  0.61509290313E+02 -0.22320602325E+01  0.10163221509E+03  0.17252615709E+03  0.12509113817E+03 0.  0.
         23    2    1    2    0    0 -0.61509290313E+02  0.22320602325E+01  0.17588175487E+03  0.20587506518E+03  0.87531570742E+02 0.  0.
          5    1    3    3  502    0 -0.29554299146E+02  0.23452046441E+02  0.55344420982E+02  0.67111343408E+02  0.41800000000E+01 0.  1.
         -5    1    3    3    0  502  0.91063589459E+02 -0.25684106674E+02  0.46287794107E+02  0.10541481368E+03  0.41800000000E+01 0.  1.
        -11    1    4    4    0    0 -0.22640717684E+02 -0.17874624985E+02  0.47475371988E+01  0.29234285096E+02  0.00000000000E+00 0. -1.
         11    1    4    4    0    0 -0.38868572629E+02  0.20106685218E+02  0.17113421767E+03  0.17664078008E+03  0.00000000000E+00 0.  1.
</event>
<event>
 8    1  0.6849590E-009  0.1363800E+03  0.7561462E-02  0.1218285E+00
         -2   -1    0    0    0  501 -0.00000000000E+00  0.00000000000E+00  0.27427052793E+02  0.27427052793E+02  0.00000000000E+00 0.  1.
          2   -1    0    0  501    0  0.00000000000E+00 -0.00000000000E+00 -0.90643681796E+03  0.90643681796E+03  0.00000000000E+00 0. -1.
         25    2    1    2    0    0  0.47296409297E+02 -0.95171310321E+02 -0.59208312900E+03  0.61441461718E+03  0.12509341118E+03 0.  0.
         23    2    1    2    0    0 -0.47296409297E+02  0.95171310321E+02 -0.28692663617E+03  0.31944925357E+03  0.91795437928E+02 0.  0.
          5    1    3    3  502    0  0.40521014718E+02  0.26203049589E+01 -0.55277069256E+02  0.68715685381E+02  0.41800000000E+01 0. -1.
         -5    1    3    3    0  502  0.67753945792E+01 -0.97791615280E+02 -0.53680605974E+03  0.54569893180E+03  0.41800000000E+01 0. -1.
        -11    1    4    4    0    0 -0.63801765159E+02  0.37871893730E+02 -0.10949033319E+03  0.13226140267E+03  0.00000000000E+00 0.  1.
         11    1    4    4    0    0  0.16505355863E+02  0.57299416591E+02 -0.17743630298E+03  0.18718785091E+03  0.00000000000E+00 0. -1.
</event>
<event>
 8    1  0.6849590E-009  0.1222473E+03  0.7561462E-02  0.1239435E+00
          2   -1    0    0  501    0  0.00000000000E+00  0.00000000000E+00  0.72196496873E+03  0.72196496873E+03  0.00000000000E+00 0. -1.
         -2   -1    0    0    0  501 -0.00000000000E+00 -0.00000000000E+00 -0.25255145589E+02  0.25255145589E+02  0.00000000000E+00 0.  1.
         25    2    1    2    0    0 -0.76075882380E+02  0.10336835139E+02  0.30662947362E+03  0.33994651381E+03  0.12509039978E+03 0.  0.
         23    2    1    2    0    0  0.76075882380E+02 -0.10336835139E+02  0.39008034952E+03  0.40727360051E+03  0.88400885470E+02 0.  0.
          5    1    3    3  502    0 -0.10740217711E+03 -0.97333236002E+00  0.26810823265E+03  0.28885233570E+03  0.41800000000E+01 0.  1.
         -5    1    3    3    0  502  0.31326294733E+02  0.11310167499E+02  0.38521240970E+02  0.51094178107E+02  0.41800000000E+01 0.  1.
        -11    1    4    4    0    0  0.20423345563E+02 -0.36591446696E+02  0.72094989157E+02  0.83389054899E+02  0.00000000000E+00 0.  1.
         11    1    4    4    0    0  0.55652536816E+02  0.26254611557E+02  0.31798536036E+03  0.32388454561E+03  0.00000000000E+00 0. -1.
</event>
<event>
 8    1  0.6849590E-009  0.2536664E+03  0.7561462E-02  0.1111009E+00
          1   -1    0    0  501    0  0.00000000000E+00  0.00000000000E+00  0.48711890968E+03  0.48711890968E+03  0.00000000000E+00 0. -1.
         -1   -1    0    0    0  501 -0.00000000000E+00 -0.00000000000E+00 -0.13566799904E+03  0.13566799904E+03  0.00000000000E+00 0.  1.
         25    2    1    2    0    0  0.15434644649E+02  0.23048589449E+03  0.21464773731E+03  0.33923615092E+03  0.12508212961E+03 0.  0.
         23    2    1    2    0    0 -0.15434644649E+02 -0.23048589449E+03  0.13680317333E+03  0.28355075780E+03  0.91235673942E+02 0.  0.
          5    1    3    3  502    0  0.54664289152E+01  0.24275381505E+03  0.21259168127E+03  0.32275686191E+03  0.41800000000E+01 0. -1.
         -5    1    3    3    0  502  0.99682157335E+01 -0.12267920561E+02  0.20560560328E+01  0.16479289008E+02  0.41800000000E+01 0. -1.
        -11    1    4    4    0    0  0.27713915577E+02 -0.17819038581E+03  0.93862641758E+02  0.20329798383E+03  0.00000000000E+00 0.  1.
         11    1    4    4    0    0 -0.43148560226E+02 -0.52295508682E+02  0.42940531574E+02  0.80252773969E+02  0.00000000000E+00 0. -1.
</event>
<event>
 8    1  0.6849590E-009  0.1130034E+03  0.7561462E-02  0.1255107E+00
         -2   -1    0    0    0  501 -0.00000000000E+00  0.00000000000E+00  0.81309498634E+02  0.81309498634E+02  0.00000000000E+00 0.  1.
          2   -1    0    0  501    0  0.00000000000E+00 -0.00000000000E+00 -0.20422308544E+03  0.20422308544E+03  0.00000000000E+00 0. -1.
         25    2    1    2    0    0 -0.17732678485E+02  0.58328554491E+02 -0.30084337793E+02  0.14238606809E+03  0.12510818058E+03 0.  0.
         23    2    1    2    0    0  0.17732678485E+02 -0.58328554491E+02 -0.92829249018E+02  0.14314651599E+03  0.90316041834E+02 0.  0.
          5    1    3    3  502    0  0.22278436232E+02  0.71365951587E+02 -0.55358118452E+02  0.93120467381E+02  0.41800000000E+01 0. -1.
         -5    1    3    3    0  502 -0.40011114717E+02 -0.13037397096E+02  0.25273780659E+02  0.49265600704E+02  0.41800000000E+01 0. -1.
        -11    1    4    4    0    0  0.53450020575E+02 -0.47526236369E+02 -0.57683519223E+02  0.91885995848E+02  0.00000000000E+00 0.  1.
         11    1    4    4    0    0 -0.35717342090E+02 -0.10802318121E+02 -0.35145729795E+02  0.51260520146E+02  0.00000000000E+00 0. -1.
</event>
<event>
 8    1  0.6849590E-009  0.1050378E+03  0.7561462E-02  0.1270045E+00
          2   -1    0    0  501    0  0.00000000000E+00  0.00000000000E+00  0.74584230108E+03  0.74584230108E+03  0.00000000000E+00 0. -1.
         -2   -1    0    0    0  501 -0.00000000000E+00 -0.00000000000E+00 -0.34555173589E+02  0.34555173589E+02  0.00000000000E+00 0.  1.
         25    2    1    2    0    0 -0.46646356550E+02  0.66176309324E+01  0.64640294053E+03  0.66007869799E+03  0.12508976932E+03 0.  0.
         23    2    1    2    0    0  0.46646356550E+02 -0.66176309324E+01  0.64884186960E+02  0.12031877668E+03  0.89704931229E+02 0.  0.
          5    1    3    3  502    0  0.26968632440E+02  0.33441684050E+02  0.11349785161E+03  0.12142853078E+03  0.41800000000E+01 0.  1.
         -5    1    3    3    0  502 -0.73614988989E+02 -0.26824053118E+02  0.53290508892E+03  0.53865016721E+03  0.41800000000E+01 0.  1.
        -11    1    4    4    0    0  0.48212017021E+02  0.26689443488E+02  0.98623705465E+01  0.55982062589E+02  0.00000000000E+00 0.  1.
         11    1    4    4    0    0 -0.15656604706E+01 -0.33307074421E+02  0.55021816414E+02  0.64336714096E+02  0.00000000000E+00 0. -1.
</event>
<event>
 8    1  0.6849590E-009  0.1102791E+03  0.7561462E-02  0.1260054E+00
         -1   -1    0    0    0  501 -0.00000000000E+00  0.00000000000E+00  0.15023578112E+03  0.15023578112E+03  0.00000000000E+00 0.  1.
          1   -1    0    0  501    0  0.00000000000E+00 -0.00000000000E+00 -0.11409496262E+03  0.11409496262E+03  0.00000000000E+00 0. -1.
         25    2    1    2    0    0 -0.43760463495E+02  0.10873797923E+02  0.53645095381E+02  0.14338337952E+03  0.12509108529E+03 0.  0.
         23    2    1    2    0    0  0.43760463495E+02 -0.10873797923E+02 -0.17504276884E+02  0.12094736422E+03  0.11085417248E+03 0.  0.
          5    1    3    3  502    0  0.25931034933E+02 -0.37241039576E+02  0.55664945132E+01  0.45910476610E+02  0.41800000000E+01 0. -1.
         -5    1    3    3    0  502 -0.69691498428E+02  0.48114837500E+02  0.48078600867E+02  0.97472902912E+02  0.41800000000E+01 0. -1.
        -11    1    4    4    0    0  0.28476557883E+02  0.33087057996E+02 -0.48327181818E+02  0.65124375300E+02  0.00000000000E+00 0. -1.
         11    1    4    4    0    0  0.15283905612E+02 -0.43960855919E+02  0.30822904934E+02  0.55822988925E+02  0.00000000000E+00 0.  1.
</event>
<event>
 8    1  0.6849590E-009  0.1147013E+03  0.7561462E-02  0.1252103E+00
          2   -1    0    0  501    0  0.00000000000E+00  0.00000000000E+00  0.69483511063E+03  0.69483511063E+03  0.00000000000E+00 0. -1.
         -2   -1    0    0    0  501 -0.00000000000E+00 -0.00000000000E+00 -0.34303107964E+02  0.34303107964E+02  0.00000000000E+00 0.  1.
         25    2    1    2    0    0  0.13491251638E+02  0.85748993047E+02  0.51436607963E+03  0.53642791063E+03  0.12509011051E+03 0.  0.
         23    2    1    2    0    0 -0.13491251638E+02 -0.85748993047E+02  0.14616592304E+03  0.19271030796E+03  0.90762779042E+02 0.  0.
          5    1    3    3  502    0 -0.18634136432E+01 -0.17251618590E+02  0.27222521808E+03  0.27280970000E+03  0.41800000000E+01 0. -1.
         -5    1    3    3    0  502  0.15354665281E+02  0.10300061164E+03  0.24214086155E+03  0.26361821063E+03  0.41800000000E+01 0. -1.
        -11    1    4    4    0    0 -0.46184831639E+01 -0.94650641788E+02  0.76131071258E+02  0.12155663038E+03  0.00000000000E+00 0.  1.
         11    1    4    4    0    0 -0.88727684742E+01  0.89016487414E+01  0.70034851778E+02  0.71153677587E+02  0.00000000000E+00 0. -1.
</event>
<event>
 8    1  0.6849590E-009  0.1090469E+03  0.7561462E-02  0.1262345E+00
          2   -1    0    0  501    0  0.00000000000E+00  0.00000000000E+00  0.57855734854E+03  0.57855734854E+03  0.00000000000E+00 0. -1.
         -2   -1    0    0    0  501 -0.00000000000E+00 -0.00000000000E+00 -0.29817170041E+02  0.29817170041E+02  0.00000000000E+00 0.  1.
         25    2    1    2    0    0  0.44119245595E+01  0.40108219970E+02  0.39137492204E+03  0.41285602736E+03  0.12509050859E+03 0.  0.
         23    2    1    2    0    0 -0.44119245595E+01 -0.40108219970E+02  0.15736525646E+03  0.19551849122E+03  0.10879118568E+03 0.  0.
          5    1    3    3  502    0  0.29598508709E+02 -0.38524939624E+02  0.14428390845E+03  0.15230089076E+03  0.41800000000E+01 0.  1.
         -5    1    3    3    0  502 -0.25186584149E+02  0.78633159594E+02  0.24709101359E+03  0.26055513660E+03  0.41800000000E+01 0.  1.
        -11    1    4    4    0    0  0.34127627014E+02 -0.49384386926E+01  0.13397325309E+03  0.13833985559E+03  0.00000000000E+00 0. -1.
         11    1    4    4    0    0 -0.38539551574E+02 -0.35169781278E+02  0.23392003374E+02  0.57178635630E+02  0.00000000000E+00 0.  1.
</event>
<event>
 8    1  0.6849590E-009  0.9256594E+02  0.7561462E-02  0.1296754E+00
          2   -1    0    0  501    0  0.00000000000E+00  0.00000000000E+00  0.94362800697E+02  0.94362800697E+02  0.00000000000E+00 0. -1.
         -2   -1    0    0    0  501 -0.00000000000E+00 -0.00000000000E+00 -0.23042446530E+03  0.23042446530E+03  0.00000000000E+00 0.  1.
         25    2    1    2    0    0  0.51510167206E+02 -0.66987240623E+01  0.19589104601E+02  0.13685383425E+03  0.12508824365E+03 0.  0.
         23    2    1    2    0    0 -0.51510167206E+02  0.66987240623E+01 -0.15565076921E+03  0.18793343175E+03  0.91616824790E+02 0.  0.
          5    1    3    3  502    0 -0.16531781503E+02 -0.11187597517E+01 -0.41667168822E+02  0.45035283731E+02  0.41800000000E+01 0.  1.
         -5    1    3    3    0  502  0.68041948709E+02 -0.55799643106E+01  0.61256273423E+02  0.91818550520E+02  0.41800000000E+01 0.  1.
        -11    1    4    4    0    0 -0.82391389872E+00  0.39345919244E+02 -0.33371884920E+02  0.51599059084E+02  0.00000000000E+00 0.  1.
         11    1    4    4    0    0 -0.50686253308E+02 -0.32647195181E+02 -0.12227888429E+03  0.13633437266E+03  0.00000000000E+00 0. -1.
</event>
<event>
 8    1  0.6849590E-009  0.1277285E+03  0.7561462E-02  0.1230866E+00
          1   -1    0    0  501    0  0.00000000000E+00  0.00000000000E+00  0.26745372549E+04  0.26745372549E+04  0.00000000000E+00 0. -1.
         -1   -1    0    0    0  501 -0.00000000000E+00 -0.00000000000E+00 -0.14083736952E+02  0.14083736952E+02  0.00000000000E+00 0.  1.
         25    2    1    2    0    0 -0.66323378719E+01 -0.76764702466E+02  0.23672249356E+04  0.23717794043E+04  0.12508732828E+03 0.  0.
         23    2    1    2    0    0  0.66323378719E+01  0.76764702466E+02  0.29322858236E+03  0.31684158752E+03  0.92025988819E+02 0.  0.
          5    1    3    3  502    0  0.42430955791E+02 -0.77208376983E+02  0.10732943093E+04  0.10769120977E+04  0.41800000000E+01 0.  1.
         -5    1    3    3    0  502 -0.49063293663E+02  0.44367451715E+00  0.12939306263E+04  0.12948673066E+04  0.41800000000E+01 0.  1.
        -11    1    4    4    0    0  0.47974454326E+02  0.46184986507E+02  0.13621091512E+03  0.15161798919E+03  0.00000000000E+00 0. -1.
         11    1    4    4    0    0 -0.41342116454E+02  0.30579715959E+02  0.15701766723E+03  0.16522359833E+03  0.00000000000E+00 0.  1.
</event>
<event>
 8    1  0.6849590E-009  0.1095906E+03  0.7561462E-02  0.1261330E+00
         -2   -1    0    0    0  501 -0.00000000000E+00  0.00000000000E+00  0.22131442441E+02  0.22131442441E+02  0.00000000000E+00 0.  1.
          2   -1    0    0  501    0  0.00000000000E+00 -0.00000000000E+00 -0.64754023809E+03  0.64754023809E+03  0.00000000000E+00 0. -1.
         25    2    1    2    0    0  0.57671950370E+01  0.16304504965E+02 -0.22037343897E+03  0.25398989144E+03  0.12508922788E+03 0.  0.
         23    2    1    2    0    0 -0.57671950370E+01 -0.16304504965E+02 -0.40503535668E+03  0.41568178909E+03  0.91861919192E+02 0.  0.
          5    1    3    3  502    0 -0.51570162810E+02 -0.22658458403E+02 -0.89547654311E+02  0.10587323657E+03  0.41800000000E+01 0. -1.
         -5    1    3    3    0  502  0.57337357847E+02  0.38962963368E+02 -0.13082578466E+03  0.14811665487E+03  0.41800000000E+01 0. -1.
        -11    1    4    4    0    0  0.30828849086E+02  0.23807303222E+02 -0.15507677000E+03  0.15989374664E+03  0.00000000000E+00 0.  1.
         11    1    4    4    0    0 -0.36596044123E+02 -0.40111808187E+02 -0.24995858668E+03  0.25578804244E+03  0.00000000000E+00 0. -1.
</event>
<event>
 8    1  0.6849590E-009  0.3244720E+03  0.7561462E-02  0.1073609E+00
          1   -1    0    0  501    0  0.00000000000E+00  0.00000000000E+00  0.11333630108E+04  0.11333630108E+04  0.00000000000E+00 0. -1.
         -1   -1    0    0    0  501 -0.00000000000E+00 -0.00000000000E+00 -0.11607196729E+03  0.11607196729E+03  0.00000000000E+00 0.  1.
         25    2    1    2    0    0  0.49347451747E+02 -0.30571743697E+03  0.25073685412E+03  0.41763019756E+03  0.12509072563E+03 0.  0.
         23    2    1    2    0    0 -0.49347451747E+02  0.30571743697E+03  0.76655418943E+03  0.83180478058E+03  0.91627208856E+02 0.  0.
          5    1    3    3  502    0 -0.68244066701E+01  0.83055151670E+01 -0.50452978233E+00  0.11544741612E+02  0.41800000000E+01 0. -1.
         -5    1    3    3    0  502  0.56171858417E+02 -0.31402295214E+03  0.25124138390E+03  0.40608545595E+03  0.41800000000E+01 0. -1.
        -11    1    4    4    0    0 -0.69009813907E+02  0.24659530998E+03  0.55420718396E+03  0.61050569536E+03  0.00000000000E+00 0. -1.
         11    1    4    4    0    0  0.19662362160E+02  0.59122126991E+02  0.21234700547E+03  0.22129908521E+03  0.00000000000E+00 0.  1.
</event>
<event>
 7    1  0.6849590E-009  0.1488041E+03  0.7561462E-02  0.1201950E+00
          1   -1    0    0  501    0  0.00000000000E+00  0.00000000000E+00  0.18589376814E+03  0.18589376814E+03  0.00000000000E+00 0. -1.
         -1   -1    0    0    0  501 -0.00000000000E+00 -0.00000000000E+00 -0.15186929117E+03  0.15186929117E+03  0.00000000000E+00 0.  1.
         23    2    1    2    0    0  0.59494986165E+02  0.98312707035E+02 -0.39044728333E+02  0.15280299006E+03  0.92839760970E+02 0.  0.
          5    1    1    2  502    0 -0.35721181027E+02  0.13719658043E+02  0.57656292156E+02  0.69324975412E+02  0.41800000000E+01 0.  1.
         -5    1    1    2    0  502 -0.23773805138E+02 -0.11203236508E+03  0.15412913152E+02  0.11563509384E+03  0.41800000000E+01 0.  1.
        -11    1    3    3    0    0 -0.16201269179E+02  0.54921320159E+02 -0.31175806549E+02  0.65197879145E+02  0.00000000000E+00 0. -1.
         11    1    3    3    0    0  0.75696255344E+02  0.43391386876E+02 -0.78689217839E+01  0.87605110914E+02  0.00000000000E+00 0.  1.
</event>
<event>
 8    1  0.6849590E-009  0.1027136E+03  0.7561462E-02  0.1274691E+00
          2   -1    0    0  501    0  0.00000000000E+00  0.00000000000E+00  0.35336750728E+02  0.35336750728E+02  0.00000000000E+00 0. -1.
         -2   -1    0    0    0  501 -0.00000000000E+00 -0.00000000000E+00 -0.36990002906E+03  0.36990002906E+03  0.00000000000E+00 0.  1.
         25    2    1    2    0    0 -0.28798127957E+02  0.20140822802E+02 -0.18639156069E+03  0.22720976441E+03  0.12508988061E+03 0.  0.
         23    2    1    2    0    0  0.28798127957E+02 -0.20140822802E+02 -0.14817171765E+03  0.17802701538E+03  0.92215917157E+02 0.  0.
          5    1    3    3  502    0 -0.34878204301E+02  0.62637520182E+02 -0.59738559783E+02  0.93413682053E+02  0.41800000000E+01 0. -1.
         -5    1    3    3    0  502  0.60800763434E+01 -0.42496697380E+02 -0.12665300090E+03  0.13379608236E+03  0.41800000000E+01 0. -1.
        -11    1    4    4    0    0  0.14617249558E+02 -0.52847086538E+02 -0.12214865864E+03  0.13389090092E+03  0.00000000000E+00 0. -1.
         11    1    4    4    0    0  0.14180878399E+02  0.32706263736E+02 -0.26023059003E+02  0.44136114460E+02  0.00000000000E+00 0.  1.
</event>
<event>
 8    1  0.6849590E-009  0.1082742E+03  0.7561462E-02  0.1263800E+00
         -2   -1    0    0    0  501 -0.00000000000E+00  0.00000000000E+00  0.46655511630E+02  0.46655511630E+02  0.00000000000E+00 0. -1.
          2   -1    0    0  501    0  0.00000000000E+00 -0.00000000000E+00 -0.48875895419E+03  0.48875895419E+03  0.00000000000E+00 0.  1.
         25    2    1    2    0    0 -0.70044505933E+02  0.70895042080E+02 -0.24156154941E+03  0.28969854298E+03  0.12506367918E+03 0.  0.
         23    2    1    2    0    0  0.70044505933E+02 -0.70895042080E+02 -0.20054189315E+03  0.24571592284E+03  0.10112825532E+03 0.  0.
          5    1    3    3  502    0 -0.43897415224E+02  0.33956604392E+02 -0.23765201919E+03  0.24408193024E+03  0.41800000000E+01 0.  1.
         -5    1    3    3    0  502 -0.26147090709E+02  0.36938437688E+02 -0.39095302207E+01  0.45616612741E+02  0.41800000000E+01 0.  1.
        -11    1    4    4    0    0  0.23032943159E+02 -0.63888425854E+02 -0.18275547656E+03  0.19496618077E+03  0.00000000000E+00 0. -1.
         11    1    4    4    0    0  0.47011562774E+02 -0.70066162257E+01 -0.17786416587E+02  0.50749742072E+02  0.00000000000E+00 0.  1.
</event>
<event>
 8    1  0.6849590E-009  0.6111695E+02  0.7561462E-02  0.1393203E+00
         -1   -1    0    0    0  501 -0.00000000000E+00  0.00000000000E+00  0.89202791505E+02  0.89202791505E+02  0.00000000000E+00 0.  1.
          1   -1    0    0  501    0  0.00000000000E+00 -0.00000000000E+00 -0.14017110481E+03  0.14017110481E+03  0.00000000000E+00 0. -1.
         25    2    1    2    0    0  0.13581879995E+01  0.47555285025E+00  0.14992102032E+00  0.12509959417E+03  0.12509122735E+03 0.  0.
         23    2    1    2    0    0 -0.13581879995E+01 -0.47555285025E+00 -0.51118234329E+02  0.10427430215E+03  0.90873458074E+02 0.  0.
          5    1    3    3  502    0 -0.24860597324E+02 -0.16434286243E+02 -0.54371459428E+02  0.62143889997E+02  0.41800000000E+01 0. -1.
         -5    1    3    3    0  502  0.26218785324E+02  0.16909839093E+02  0.54521380449E+02  0.62955704174E+02  0.41800000000E+01 0. -1.
        -11    1    4    4    0    0 -0.27474755037E+01 -0.30491436351E+02 -0.64487980939E+02  0.71386105077E+02  0.00000000000E+00 0. -1.
         11    1    4    4    0    0  0.13892875042E+01  0.30015883501E+02  0.13369746611E+02  0.32888197070E+02  0.00000000000E+00 0.  1.
</event>
<event>
 8    1  0.6849590E-009  0.9204659E+02  0.7561462E-02  0.1297970E+00
         -1   -1    0    0    0  501 -0.00000000000E+00  0.00000000000E+00  0.11872474557E+03  0.11872474557E+03  0.00000000000E+00 0. -1.
          1   -1    0    0  501    0  0.00000000000E+00 -0.00000000000E+00 -0.13857338690E+03  0.13857338690E+03  0.00000000000E+00 0.  1.
         25    2    1    2    0    0  0.18313944501E+02  0.18223055819E+02 -0.51352030042E+02  0.13766480438E+03  0.12508831700E+03 0.  0.
         23    2    1    2    0    0 -0.18313944501E+02 -0.18223055819E+02  0.31503388708E+02  0.11963332809E+03  0.11248195128E+03 0.  0.
          5    1    3    3  502    0  0.42217412116E+02 -0.15076253127E+02  0.24564021519E+02  0.51288077049E+02  0.41800000000E+01 0. -1.
         -5    1    3    3    0  502 -0.23903467615E+02  0.33299308947E+02 -0.75916051561E+02  0.86376727335E+02  0.41800000000E+01 0. -1.
        -11    1    4    4    0    0  0.22292793006E+02  0.28358016922E+02  0.43680622845E+02  0.56649294399E+02  0.00000000000E+00 0. -1.
         11    1    4    4    0    0 -0.40606737507E+02 -0.46581072742E+02 -0.12177234137E+02  0.62984033691E+02  0.00000000000E+00 0.  1.
</event>
<event>
 8    1  0.6849590E-009  0.8086469E+02  0.7561462E-02  0.1326615E+00
          1   -1    0    0  501    0  0.00000000000E+00  0.00000000000E+00  0.29985414000E+03  0.29985414000E+03  0.00000000000E+00 0. -1.
         -1   -1    0    0    0  501 -0.00000000000E+00 -0.00000000000E+00 -0.44170005777E+02  0.44170005777E+02  0.00000000000E+00 0.  1.
         25    2    1    2    0    0  0.13535257230E+01  0.30350746373E+02  0.18022716284E+03  0.22147867629E+03  0.12509186221E+03 0.  0.
         23    2    1    2    0    0 -0.13535257230E+01 -0.30350746373E+02  0.75456971386E+02  0.12254546949E+03  0.91654992899E+02 0.  0.
          5    1    3    3  502    0  0.58071180553E+02 -0.17348777345E+01  0.54316872039E+02  0.79643372603E+02  0.41800000000E+01 0.  1.
         -5    1    3    3    0  502 -0.56717654830E+02  0.32085624108E+02  0.12591029080E+03  0.14183530369E+03  0.41800000000E+01 0.  1.
        -11    1    4    4    0    0  0.10653132761E+02 -0.18285756441E+02  0.94594923800E+02  0.96933264336E+02  0.00000000000E+00 0. -1.
         11    1    4    4    0    0 -0.12006658484E+02 -0.12064989932E+02 -0.19137952413E+02  0.25612205149E+02  0.00000000000E+00 0.  1.
</event>
<event>
 8    1  0.6849590E-009  0.9906318E+02  0.7561462E-02  0.1282278E+00
         -4   -1    0    0    0  501 -0.00000000000E+00  0.00000000000E+00  0.99416173006E+03  0.99416173006E+03  0.00000000000E+00 0.  1.
          4   -1    0    0  501    0  0.00000000000E+00 -0.00000000000E+00 -0.21064896972E+02  0.21064896972E+02  0.00000000000E+00 0. -1.
         25    2    1    2    0    0 -0.64504667039E+02 -0.52371440559E+02  0.69976964198E+03  0.71570177805E+03  0.12509142024E+03 0.  0.
         23    2    1    2    0    0  0.64504667039E+02  0.52371440559E+02  0.27332719111E+03  0.29952484898E+03  0.90020897024E+02 0.  0.
          5    1    3    3  502    0 -0.30881806071E+01 -0.53019956716E+01 -0.34772641078E+01  0.81982792853E+01  0.41800000000E+01 0.  1.
         -5    1    3    3    0  502 -0.61416486432E+02 -0.47069444887E+02  0.70324690609E+03  0.70750349877E+03  0.41800000000E+01 0.  1.
        -11    1    4    4    0    0  0.58411759728E+02  0.71967336732E+02  0.16482609242E+03  0.18910016387E+03  0.00000000000E+00 0. -1.
         11    1    4    4    0    0  0.60929073110E+01 -0.19595896174E+02  0.10850109869E+03  0.11042468512E+03  0.00000000000E+00 0.  1.
</event>
<event>
 8    1  0.6849590E-009  0.1304588E+03  0.7561462E-02  0.1226777E+00
          1   -1    0    0  501    0  0.00000000000E+00  0.00000000000E+00  0.96122845568E+02  0.96122845568E+02  0.00000000000E+00 0. -1.
         -1   -1    0    0    0  501 -0.00000000000E+00 -0.00000000000E+00 -0.25660408288E+03  0.25660408288E+03  0.00000000000E+00 0.  1.
         25    2    1    2    0    0 -0.67164773838E+02  0.55004453593E+02 -0.15923127793E+03  0.22030714840E+03  0.12507614882E+03 0.  0.
         23    2    1    2    0    0  0.67164773838E+02 -0.55004453593E+02 -0.12499593792E+01  0.13241978005E+03  0.99984193699E+02 0.  0.
          5    1    3    3  502    0 -0.43137415400E+02  0.95033866673E+02 -0.12078450336E+03  0.15968293921E+03  0.41800000000E+01 0.  1.
         -5    1    3    3    0  502 -0.24027358438E+02 -0.40029413080E+02 -0.38446774574E+02  0.60624209192E+02  0.41800000000E+01 0.  1.
        -11    1    4    4    0    0  0.80030053788E+02 -0.38904203719E+02 -0.32713195056E+02  0.94807698565E+02  0.00000000000E+00 0.  1.
         11    1    4    4    0    0 -0.12865279950E+02 -0.16100249874E+02  0.31463235677E+02  0.37612081483E+02  0.00000000000E+00 0. -1.
</event>
<event>
 8    1  0.6849590E-009  0.1160675E+03  0.7561462E-02  0.1249729E+00
          1   -1    0    0  501    0  0.00000000000E+00  0.00000000000E+00  0.92244085335E+03  0.92244085335E+03  0.00000000000E+00 0. -1.
         -1   -1    0    0    0  501 -0.00000000000E+00 -0.00000000000E+00 -0.43058452803E+02  0.43058452803E+02  0.00000000000E+00 0.  1.
         25    2    1    2    0    0 -0.36280065913E+02 -0.63595204361E+02  0.82609274635E+03  0.83871297300E+03  0.12509849047E+03 0.  0.
         23    2    1    2    0    0  0.36280065913E+02  0.63595204361E+02  0.53289654200E+02  0.12678633315E+03  0.88737781289E+02 0.  0.
          5    1    3    3  502    0 -0.61817444895E+02  0.61234061724E+01  0.24096718649E+03  0.24888059378E+03  0.41800000000E+01 0.  1.
         -5    1    3    3    0  502  0.25537378982E+02 -0.69718610533E+02  0.58512555985E+03  0.58983237922E+03  0.41800000000E+01 0.  1.
        -11    1    4    4    0    0  0.50906918944E+02  0.30548253524E+02  0.65723445254E+02  0.88567948185E+02  0.00000000000E+00 0. -1.
         11    1    4    4    0    0 -0.14626853031E+02  0.33046950837E+02 -0.12433791054E+02  0.38218384963E+02  0.00000000000E+00 0.  1.
</event>
<event>
 8    1  0.6849590E-009  0.1289534E+03  0.7561462E-02  0.1229017E+00
         -2   -1    0    0    0  501 -0.00000000000E+00  0.00000000000E+00  0.24857237185E+03  0.24857237185E+03  0.00000000000E+00 0. -1.
          2   -1    0    0  501    0  0.00000000000E+00 -0.00000000000E+00 -0.10416656138E+03  0.10416656138E+03  0.00000000000E+00 0.  1.
         25    2    1    2    0    0  0.11158201902E+03  0.37336291359E+01  0.45819500744E+02  0.17381267125E+03  0.12508769358E+03 0.  0.
         23    2    1    2    0    0 -0.11158201902E+03 -0.37336291359E+01  0.98586309727E+02  0.17892626197E+03  0.99150692391E+02 0.  0.
          5    1    3    3  502    0  0.10685659042E+02 -0.16687102090E+02 -0.36630644408E+02  0.41855933810E+02  0.41800000000E+01 0.  1.
         -5    1    3    3    0  502  0.10089635998E+03  0.20420731226E+02  0.82450145152E+02  0.13195673744E+03  0.41800000000E+01 0.  1.
        -11    1    4    4    0    0 -0.80797023789E+02 -0.37379015045E+02  0.25196456222E+02  0.92521409550E+02  0.00000000000E+00 0.  1.
         11    1    4    4    0    0 -0.30784995234E+02  0.33645385909E+02  0.73389853505E+02  0.86404852422E+02  0.00000000000E+00 0. -1.
</event>
<event>
 8    1  0.6849590E-009  0.1060298E+03  0.7561462E-02  0.1268104E+00
          2   -1    0    0  501    0  0.00000000000E+00  0.00000000000E+00  0.43694464382E+03  0.43694464382E+03  0.00000000000E+00 0.  1.
         -2   -1    0    0    0  501 -0.00000000000E+00 -0.00000000000E+00 -0.39091841207E+02  0.39091841207E+02  0.00000000000E+00 0. -1.
         25    2    1    2    0    0 -0.20717610033E+01  0.49423332772E+02  0.31769173552E+03  0.34499550680E+03  0.12508758086E+03 0.  0.
         23    2    1    2    0    0  0.20717610033E+01 -0.49423332772E+02  0.80161067100E+02  0.13104097822E+03  0.91098755641E+02 0.  0.
          5    1    3    3  502    0  0.32412160825E+02 -0.32091181574E+02  0.11476053123E+03  0.12356311761E+03  0.41800000000E+01 0.  1.
         -5    1    3    3    0  502 -0.34483921829E+02  0.81514514346E+02  0.20293120428E+03  0.22143238920E+03  0.41800000000E+01 0.  1.
        -11    1    4    4    0    0 -0.86873508070E+01  0.12265266642E+02  0.64860187783E+02  0.66578906488E+02  0.00000000000E+00 0.  1.
         11    1    4    4    0    0  0.10759111810E+02 -0.61688599414E+02  0.15300879317E+02  0.64462071736E+02  0.00000000000E+00 0. -1.
</event>
<event>
 8    1  0.6849590E-009  0.1007920E+03  0.7561462E-02  0.1278639E+00
          2   -1    0    0  501    0  0.00000000000E+00  0.00000000000E+00  0.81475325557E+03  0.81475325557E+03  0.00000000000E+00 0.  1.
         -2   -1    0    0    0  501 -0.00000000000E+00 -0.00000000000E+00 -0.15739111445E+02  0.15739111445E+02  0.00000000000E+00 0. -1.
         25    2    1    2    0    0 -0.31395010631E+02  0.10563146820E+02  0.42837669208E+03  0.44749314284E+03  0.12508515424E+03 0.  0.
         23    2    1    2    0    0  0.31395010631E+02 -0.10563146820E+02  0.37063745205E+03  0.38299922417E+03  0.90659021038E+02 0.  0.
          5    1    3    3  502    0 -0.31790618842E+02 -0.41718680661E+02  0.83814642608E+02  0.98961904175E+02  0.41800000000E+01 0. -1.
         -5    1    3    3    0  502  0.39560821122E+00  0.52281827481E+02  0.34456204947E+03  0.34853123867E+03  0.41800000000E+01 0. -1.
        -11    1    4    4    0    0 -0.31867542773E+02  0.23338211073E+01  0.12439654416E+03  0.12843475855E+03  0.00000000000E+00 0. -1.
         11    1    4    4    0    0  0.63262553404E+02 -0.12896967928E+02  0.24624090788E+03  0.25456446563E+03  0.00000000000E+00 0.  1.
</event>
<event>
 8    1  0.6849590E-009  0.1396534E+03  0.7561462E-02  0.1213796E+00
         -2   -1    0    0    0  501 -0.00000000000E+00  0.00000000000E+00  0.78533613067E+02  0.78533613067E+02  0.00000000000E+00 0.  1.
          2   -1    0    0  501    0  0.00000000000E+00 -0.00000000000E+00 -0.43224128544E+03  0.43224128544E+03  0.00000000000E+00 0. -1.
         25    2    1    2    0    0 -0.91461943397E+02  0.62755847291E+02 -0.32278315708E+03  0.36351022288E+03  0.12508849740E+03 0.  0.
         23    2    1    2    0    0  0.91461943397E+02 -0.62755847291E+02 -0.30924515293E+02  0.14726467563E+03  0.91798559814E+02 0.  0.
          5    1    3    3  502    0 -0.11145759597E+03  0.15466294246E+02 -0.25154780250E+03  0.27560074619E+03  0.41800000000E+01 0.  1.
         -5    1    3    3    0  502  0.19995652574E+02  0.47289553045E+02 -0.71235354584E+02  0.87909476689E+02  0.41800000000E+01 0.  1.
        -11    1    4    4    0    0  0.18885660775E+02  0.53592628407E+00 -0.46060809370E+02  0.49785073664E+02  0.00000000000E+00 0. -1.
         11    1    4    4    0    0  0.72576282622E+02 -0.63291773575E+02  0.15136294078E+02  0.97479601968E+02  0.00000000000E+00 0.  1.
</event>
<event>
 8    1  0.6849590E-009  0.1313151E+03  0.7561462E-02  0.1225517E+00
         -2   -1    0    0    0  501 -0.00000000000E+00  0.00000000000E+00  0.73521926348E+02  0.73521926348E+02  0.00000000000E+00 0.  1.
          2   -1    0    0  501    0  0.00000000000E+00 -0.00000000000E+00 -0.26326123057E+03  0.26326123057E+03  0.00000000000E+00 0. -1.
         25    2    1    2    0    0  0.48770459266E+02  0.64460459316E+02 -0.14197711679E+03  0.20575795262E+03  0.12508047354E+03 0.  0.
         23    2    1    2    0    0 -0.48770459266E+02 -0.64460459316E+02 -0.47762187426E+02  0.13102520430E+03  0.91392937919E+02 0.  0.
          5    1    3    3  502    0  0.50237751230E+02  0.96364583714E+02 -0.13399224748E+03  0.17257276560E+03  0.41800000000E+01 0. -1.
         -5    1    3    3    0  502 -0.14672919637E+01 -0.31904124398E+02 -0.79848693133E+01  0.33185187015E+02  0.41800000000E+01 0. -1.
        -11    1    4    4    0    0 -0.24986600550E+01  0.22778491249E+02 -0.52292784691E+01  0.23504219173E+02  0.00000000000E+00 0.  1.
         11    1    4    4    0    0 -0.46271799211E+02 -0.87238950565E+02 -0.42532908957E+02  0.10752098513E+03  0.00000000000E+00 0. -1.
</event>
<event>
 8    1  0.6849590E-009  0.1236582E+03  0.7561462E-02  0.1237181E+00
         -4   -1    0    0    0  501 -0.00000000000E+00  0.00000000000E+00  0.68508198816E+02  0.68508198816E+02  0.00000000000E+00 0.  1.
          4   -1    0    0  501    0  0.00000000000E+00 -0.00000000000E+00 -0.29809037956E+03  0.29809037956E+03  0.00000000000E+00 0. -1.
         25    2    1    2    0    0 -0.89570510069E+02 -0.10409528010E+02 -0.10526740386E+03  0.18670769538E+03  0.12508917879E+03 0.  0.
         23    2    1    2    0    0  0.89570510069E+02  0.10409528010E+02 -0.12431477688E+03  0.17989088300E+03  0.93676739306E+02 0.  0.
          5    1    3    3  502    0 -0.51314867572E+02 -0.43965933040E+02 -0.11620643942E+03  0.13449025193E+03  0.41800000000E+01 0. -1.
         -5    1    3    3    0  502 -0.38255642496E+02  0.33556405030E+02  0.10939035555E+02  0.52217443448E+02  0.41800000000E+01 0. -1.
        -11    1    4    4    0    0  0.29797281327E+02 -0.40334187644E+02 -0.35633644637E+02  0.61518137956E+02  0.00000000000E+00 0.  1.
         11    1    4    4    0    0  0.59773228742E+02  0.50743715654E+02 -0.88681132242E+02  0.11837274504E+03  0.00000000000E+00 0. -1.
</event>
<event>
 8    1  0.6849590E-009  0.1243667E+03  0.7561462E-02  0.1236062E+00
         -2   -1    0    0    0  501 -0.00000000000E+00  0.00000000000E+00  0.92051458291E+02  0.92051458291E+02  0.00000000000E+00 0.  1.
          2   -1    0    0  501    0  0.00000000000E+00 -0.00000000000E+00 -0.21420296793E+03  0.21420296793E+03  0.00000000000E+00 0. -1.
         25    2    1    2    0    0 -0.84262654332E+01 -0.69007315679E+02 -0.12360409225E+03  0.18909797235E+03  0.12508820871E+03 0.  0.
         23    2    1    2    0    0  0.84262654332E+01  0.69007315679E+02  0.14525826106E+01  0.11715645387E+03  0.94289517561E+02 0.  0.
          5    1    3    3  502    0  0.42831751893E+02 -0.74266991980E+02 -0.50586459656E+02  0.99632361050E+02  0.41800000000E+01 0. -1.
         -5    1    3    3    0  502 -0.51258017327E+02  0.52596763011E+01 -0.73017632595E+02  0.89465611298E+02  0.41800000000E+01 0. -1.
        -11    1    4    4    0    0 -0.25545816649E+02 -0.82177042743E+01  0.16437089285E+02  0.31468989751E+02  0.00000000000E+00 0.  1.
         11    1    4    4    0    0  0.33972082082E+02  0.77225019953E+02 -0.14984506674E+02  0.85687464124E+02  0.00000000000E+00 0. -1.
</event>
<event>
 8    1  0.6849590E-009  0.3857776E+03  0.7561462E-02  0.1048819E+00
          1   -1    0    0  501    0  0.00000000000E+00  0.00000000000E+00  0.12357308053E+04  0.12357308053E+04  0.00000000000E+00 0. -1.
         -1   -1    0    0    0  501 -0.00000000000E+00 -0.00000000000E+00 -0.13630092069E+03  0.13630092069E+03  0.00000000000E+00 0.  1.
         25    2    1    2    0    0 -0.29659848687E+03 -0.22872226963E+03  0.73528925454E+03  0.83461502788E+03  0.12508963938E+03 0.  0.
         23    2    1    2    0    0  0.29659848687E+03  0.22872226963E+03  0.36414063011E+03  0.53741669816E+03  0.12622903755E+03 0.  0.
          5    1    3    3  502    0 -0.30458736429E+03 -0.20097373787E+03  0.69331048629E+03  0.78349269850E+03  0.41800000000E+01 0. -1.
         -5    1    3    3    0  502  0.79888774224E+01 -0.27748531769E+02  0.41978768251E+02  0.51122329384E+02  0.41800000000E+01 0. -1.
        -11    1    4    4    0    0  0.12146451475E+03  0.12300954817E+03  0.24761669864E+03  0.30199173288E+03  0.00000000000E+00 0. -1.
         11    1    4    4    0    0  0.17513397212E+03  0.10571272147E+03  0.11652393148E+03  0.23542496528E+03  0.00000000000E+00 0.  1.
</event>
<event>
 8    1  0.6849590E-009  0.9152172E+02  0.7561462E-02  0.1299208E+00
          2   -1    0    0  501    0  0.00000000000E+00  0.00000000000E+00  0.10321831638E+03  0.10321831638E+03  0.00000000000E+00 0. -1.
         -2   -1    0    0    0  501 -0.00000000000E+00 -0.00000000000E+00 -0.19103457366E+03  0.19103457366E+03  0.00000000000E+00 0.  1.
         25    2    1    2    0    0  0.40816280788E+02  0.59688078907E+02  0.56413173177E+01  0.14459245346E+03  0.12508604077E+03 0.  0.
         23    2    1    2    0    0 -0.40816280788E+02 -0.59688078907E+02 -0.93457574603E+02  0.14966043658E+03  0.91843848377E+02 0.  0.
          5    1    3    3  502    0 -0.14431301627E+02  0.86107024426E+01  0.52886822422E+02  0.55649753361E+02  0.41800000000E+01 0. -1.
         -5    1    3    3    0  502  0.55247582415E+02  0.51077376465E+02 -0.47245505104E+02  0.88942700104E+02  0.41800000000E+01 0. -1.
        -11    1    4    4    0    0 -0.36047576302E+02 -0.70151203048E+02 -0.10633759861E+03  0.13239450111E+03  0.00000000000E+00 0.  1.
         11    1    4    4    0    0 -0.47687044855E+01  0.10463124141E+02  0.12880024004E+02  0.17265935468E+02  0.00000000000E+00 0. -1.
</event>
<event>
 8    1  0.6849590E-009  0.8421751E+02  0.7561462E-02  0.1317492E+00
          4   -1    0    0  501    0  0.00000000000E+00  0.00000000000E+00  0.16948077596E+03  0.16948077596E+03  0.00000000000E+00 0. -1.
         -4   -1    0    0    0  501 -0.00000000000E+00 -0.00000000000E+00 -0.79471876553E+02  0.79471876553E+02  0.00000000000E+00 0.  1.
         25    2    1    2    0    0 -0.18631301802E+02  0.32428718220E+02  0.39207758555E+02  0.13631925605E+03  0.12508774547E+03 0.  0.
         23    2    1    2    0    0  0.18631301802E+02 -0.32428718220E+02  0.50801140852E+02  0.11263339646E+03  0.93310122250E+02 0.  0.
          5    1    3    3  502    0  0.22767230627E+02 -0.40227661036E+02  0.87855989428E+01  0.47236327669E+02  0.41800000000E+01 0.  1.
         -5    1    3    3    0  502 -0.41398532429E+02  0.72656379256E+02  0.30422159612E+02  0.89082928383E+02  0.41800000000E+01 0.  1.
        -11    1    4    4    0    0  0.79314067056E+01 -0.21867381895E+02  0.78087955877E+02  0.81478944865E+02  0.00000000000E+00 0. -1.
         11    1    4    4    0    0  0.10699895096E+02 -0.10561336325E+02 -0.27286815025E+02  0.31154451596E+02  0.00000000000E+00 0.  1.
</event>
<event>
 8    1  0.6849590E-009  0.3700558E+03  0.7561462E-02  0.1054672E+00
         -2   -1    0    0    0  501 -0.00000000000E+00  0.00000000000E+00  0.82992003209E+02  0.82992003209E+02  0.00000000000E+00 0.  1.
          2   -1    0    0  501    0  0.00000000000E+00 -0.00000000000E+00 -0.17671612746E+04  0.17671612746E+04  0.00000000000E+00 0. -1.
         25    2    1    2    0    0 -0.28988584761E+03 -0.22425508822E+03 -0.89758873101E+03  0.97756867610E+03  0.12510330619E+03 0.  0.
         23    2    1    2    0    0  0.28988584761E+03  0.22425508822E+03 -0.78658054040E+03  0.87258460172E+03  0.91492029116E+02 0.  0.
          5    1    3    3  502    0 -0.97492974776E+02 -0.35056736438E+02 -0.37946364270E+03  0.39337511796E+03  0.41800000000E+01 0. -1.
         -5    1    3    3    0  502 -0.19239287284E+03 -0.18919835178E+03 -0.51812508831E+03  0.58419355814E+03  0.41800000000E+01 0. -1.
        -11    1    4    4    0    0  0.87217540123E+02  0.63883870827E+02 -0.14469298801E+03  0.18062145232E+03  0.00000000000E+00 0.  1.
         11    1    4    4    0    0  0.20266830749E+03  0.16037121739E+03 -0.64188755238E+03  0.69196314940E+03  0.00000000000E+00 0. -1.
</event>
<event>
 8    1  0.6849590E-009  0.1004418E+03  0.7561462E-02  0.1279370E+00
          2   -1    0    0  501    0  0.00000000000E+00  0.00000000000E+00  0.10524775619E+04  0.10524775619E+04  0.00000000000E+00 0. -1.
         -2   -1    0    0    0  501 -0.00000000000E+00 -0.00000000000E+00 -0.14585349937E+02  0.14585349937E+02  0.00000000000E+00 0.  1.
         25    2    1    2    0    0  0.11564807353E+02 -0.72115888398E+01  0.84012470528E+03  0.84949722948E+03  0.12510104195E+03 0.  0.
         23    2    1    2    0    0 -0.11564807353E+02  0.72115888398E+01  0.19776750671E+03  0.21756568238E+03  0.89649805668E+02 0.  0.
          5    1    3    3  502    0 -0.18587274994E+02  0.54022808503E+02  0.36080353759E+03  0.36532261875E+03  0.41800000000E+01 0. -1.
         -5    1    3    3    0  502  0.30152082348E+02 -0.61234397343E+02  0.47932116769E+03  0.48417461074E+03  0.41800000000E+01 0. -1.
        -11    1    4    4    0    0 -0.18190337563E+02  0.38846898239E+02  0.16879319035E+03  0.17415829292E+03  0.00000000000E+00 0. -1.
         11    1    4    4    0    0  0.66255302100E+01 -0.31635309399E+02  0.28974316357E+02  0.43407389460E+02  0.00000000000E+00 0.  1.
</event>
<event>
 8    1  0.6849590E-009  0.1084247E+03  0.7561462E-02  0.1263515E+00
         -1   -1    0    0    0  501 -0.00000000000E+00  0.00000000000E+00  0.14486003489E+04  0.14486003489E+04  0.00000000000E+00 0.  1.
          1   -1    0    0  501    0  0.00000000000E+00 -0.00000000000E+00 -0.99502521286E+01  0.99502521286E+01  0.00000000000E+00 0. -1.
         25    2    1    2    0    0 -0.34602674628E+02 -0.36121519276E+02  0.91812070281E+03  0.92795211756E+03  0.12508956118E+03 0.  0.
         23    2    1    2    0    0  0.34602674628E+02  0.36121519276E+02  0.52052939400E+03  0.53059848351E+03  0.89898784374E+02 0.  0.
          5    1    3    3  502    0 -0.69630735069E+02 -0.10832670935E+02  0.29528397010E+03  0.30360481127E+03  0.41800000000E+01 0.  1.
         -5    1    3    3    0  502  0.35028060441E+02 -0.25288848342E+02  0.62283673271E+03  0.62434730629E+03  0.41800000000E+01 0.  1.
        -11    1    4    4    0    0 -0.30662738173E+02  0.15815016919E+02  0.18023751811E+03  0.18350989403E+03  0.00000000000E+00 0.  1.
         11    1    4    4    0    0  0.65265412801E+02  0.20306502357E+02  0.34029187590E+03  0.34708858948E+03  0.00000000000E+00 0. -1.
</event>
<event>
 8    1  0.6849590E-009  0.1255175E+03  0.7561462E-02  0.1234263E+00
          2   -1    0    0  501    0  0.00000000000E+00  0.00000000000E+00  0.76621894404E+03  0.76621894404E+03  0.00000000000E+00 0. -1.
         -2   -1    0    0    0  501 -0.00000000000E+00 -0.00000000000E+00 -0.23613268020E+02  0.23613268020E+02  0.00000000000E+00 0.  1.
         25    2    1    2    0    0  0.56399184033E+02 -0.32988478220E+02  0.53996724550E+03  0.55810456521E+03  0.12508785648E+03 0.  0.
         23    2    1    2    0    0 -0.56399184033E+02  0.32988478220E+02  0.20263843052E+03  0.23172764685E+03  0.91467268121E+02 0.  0.
          5    1    3    3  502    0 -0.24098097288E+02 -0.51912770307E+02  0.25334100071E+03  0.25975909812E+03  0.41800000000E+01 0. -1.
         -5    1    3    3    0  502  0.80497281321E+02  0.18924292087E+02  0.28662624479E+03  0.29834546709E+03  0.41800000000E+01 0. -1.
        -11    1    4    4    0    0 -0.43014679096E+02  0.63978955466E+02  0.15756364735E+03  0.17541343257E+03  0.00000000000E+00 0. -1.
         11    1    4    4    0    0 -0.13384504937E+02 -0.30990477245E+02  0.45074783169E+02  0.56314214280E+02  0.00000000000E+00 0.  1.
</event>
<event>
 8    1  0.6849590E-009  0.1102037E+03  0.7561462E-02  0.1260193E+00
         -2   -1    0    0    0  501 -0.00000000000E+00  0.00000000000E+00  0.28520837835E+03  0.28520837835E+03  0.00000000000E+00 0.  1.
          2   -1    0    0  501    0  0.00000000000E+00 -0.00000000000E+00 -0.54613918729E+02  0.54613918729E+02  0.00000000000E+00 0. -1.
         25    2    1    2    0    0  0.42434311173E+02 -0.41064631956E+02  0.98178272316E+02  0.16962954137E+03  0.12509289903E+03 0.  0.
         23    2    1    2    0    0 -0.42434311173E+02  0.41064631956E+02  0.13241618731E+03  0.17019275571E+03  0.89132220171E+02 0.  0.
          5    1    3    3  502    0  0.79545438533E+02 -0.51720728631E+02  0.88013585290E+02  0.12948503449E+03  0.41800000000E+01 0. -1.
         -5    1    3    3    0  502 -0.37111127361E+02  0.10656096674E+02  0.10164687026E+02  0.40144506880E+02  0.41800000000E+01 0. -1.
        -11    1    4    4    0    0  0.21901005086E+01 -0.14877138180E+02 -0.45062722124E+01  0.15698161355E+02  0.00000000000E+00 0. -1.
         11    1    4    4    0    0 -0.44624411681E+02  0.55941770137E+02  0.13692245952E+03  0.15449459435E+03  0.00000000000E+00 0.  1.
</event>
<event>
 8    1  0.6849590E-009  0.2054600E+03  0.7561462E-02  0.1145212E+00
         -1   -1    0    0    0  501 -0.00000000000E+00  0.00000000000E+00  0.10956416112E+03  0.10956416112E+03  0.00000000000E+00 0.  1.
          1   -1    0    0  501    0  0.00000000000E+00 -0.00000000000E+00 -0.49574002217E+03  0.49574002217E+03  0.00000000000E+00 0. -1.
         25    2    1    2    0    0  0.15426199636E+03 -0.13363435863E+03 -0.16000906508E+03  0.28793277240E+03  0.12508986843E+03 0.  0.
         23    2    1    2    0    0 -0.15426199636E+03  0.13363435863E+03 -0.22616679598E+03  0.31737141090E+03  0.88984760055E+02 0.  0.
          5    1    3    3  502    0  0.10957913583E+03 -0.86387937468E+02 -0.30409210422E+02  0.14287286386E+03  0.41800000000E+01 0. -1.
         -5    1    3    3    0  502  0.44682860538E+02 -0.47246421165E+02 -0.12959985466E+03  0.14505990854E+03  0.41800000000E+01 0. -1.
        -11    1    4    4    0    0 -0.11659680443E+03  0.11634125300E+03 -0.12113963678E+03  0.20446249914E+03  0.00000000000E+00 0.  1.
         11    1    4    4    0    0 -0.37665191928E+02  0.17293105632E+02 -0.10502715920E+03  0.11290891176E+03  0.00000000000E+00 0. -1.
</event>
<event>
 8    1  0.6849590E-009  0.1024489E+03  0.7561462E-02  0.1275229E+00
          2   -1    0    0  501    0  0.00000000000E+00  0.00000000000E+00  0.59922310048E+03  0.59922310048E+03  0.00000000000E+00 0. -1.
         -2   -1    0    0    0  501 -0.00000000000E+00 -0.00000000000E+00 -0.19786411704E+02  0.19786411704E+02  0.00000000000E+00 0.  1.
         25    2    1    2    0    0  0.48709372320E+00 -0.96993324387E+01  0.33098501208E+03  0.35396819125E+03  0.12509231744E+03 0.  0.
         23    2    1    2    0    0 -0.48709372320E+00  0.96993324387E+01  0.24845167670E+03  0.26504132094E+03  0.91784267939E+02 0.  0.
          5    1    3    3  502    0 -0.60079249740E+02  0.73017303242E+01  0.19190866489E+03  0.20126907257E+03  0.41800000000E+01 0.  1.
         -5    1    3    3    0  502  0.60566343463E+02 -0.17001062763E+02  0.13907634720E+03  0.15269911868E+03  0.41800000000E+01 0.  1.
        -11    1    4    4    0    0 -0.37670167096E+02 -0.10181792894E+02  0.57505937563E+02  0.69495634759E+02  0.00000000000E+00 0.  1.
         11    1    4    4    0    0  0.37183073373E+02  0.19881125332E+02  0.19094573913E+03  0.19554568618E+03  0.00000000000E+00 0. -1.
</event>
<event>
 8    1  0.6849590E-009  0.9262708E+02  0.7561462E-02  0.1296612E+00
         -2   -1    0    0    0  501 -0.00000000000E+00  0.00000000000E+00  0.27056113239E+02  0.27056113239E+02  0.00000000000E+00 0.  1.
          2   -1    0    0  501    0  0.00000000000E+00 -0.00000000000E+00 -0.69096265903E+03  0.69096265903E+03  0.00000000000E+00 0. -1.
         25    2    1    2    0    0  0.33312041800E+02 -0.62175781209E+02 -0.48270642529E+03  0.50361546100E+03  0.12509004615E+03 0.  0.
         23    2    1    2    0    0 -0.33312041800E+02  0.62175781209E+02 -0.18120012050E+03  0.21440331126E+03  0.90331480198E+02 0.  0.
          5    1    3    3  502    0 -0.10613304766E+02  0.11132242789E+01 -0.34943570136E+03  0.34962360231E+03  0.41800000000E+01 0.  1.
         -5    1    3    3    0  502  0.43925346567E+02 -0.63289005488E+02 -0.13327072393E+03  0.15399185869E+03  0.41800000000E+01 0.  1.
        -11    1    4    4    0    0  0.13612853728E+02  0.44437316369E+02 -0.14573799517E+03  0.15296910835E+03  0.00000000000E+00 0. -1.
         11    1    4    4    0    0 -0.46924895528E+02  0.17738464841E+02 -0.35462125329E+02  0.61434202917E+02  0.00000000000E+00 0.  1.
</event>
<event>
 8    1  0.6849590E-009  0.1067711E+03  0.7561462E-02  0.1266669E+00
         -1   -1    0    0    0  501 -0.00000000000E+00  0.00000000000E+00  0.21202064307E+02  0.21202064307E+02  0.00000000000E+00 0.  1.
          1   -1    0    0  501    0  0.00000000000E+00 -0.00000000000E+00 -0.65536254819E+03  0.65536254819E+03  0.00000000000E+00 0. -1.
         25    2    1    2    0    0 -0.34596753274E+02  0.88792915722E+01 -0.44323147667E+03  0.46193572559E+03  0.12511872565E+03 0.  0.
         23    2    1    2    0    0  0.34596753274E+02 -0.88792915722E+01 -0.19092900722E+03  0.21462888691E+03  0.91301128934E+02 0.  0.
          5    1    3    3  502    0  0.84911923504E+00  0.64086126265E+02 -0.23012225262E+03  0.23891729978E+03  0.41800000000E+01 0. -1.
         -5    1    3    3    0  502 -0.35445872509E+02 -0.55206834692E+02 -0.21310922406E+03  0.22301842581E+03  0.41800000000E+01 0. -1.
        -11    1    4    4    0    0  0.35508412705E+02 -0.39400457572E+02 -0.59541182226E+02  0.79739549852E+02  0.00000000000E+00 0.  1.
         11    1    4    4    0    0 -0.91165943154E+00  0.30521165999E+02 -0.13138782499E+03  0.13488933706E+03  0.00000000000E+00 0. -1.
</event>
<event>
 8    1  0.6849590E-009  0.8525530E+02  0.7561462E-02  0.1314766E+00
         -2   -1    0    0    0  501 -0.00000000000E+00  0.00000000000E+00  0.14977063639E+02  0.14977063639E+02  0.00000000000E+00 0.  1.
          2   -1    0    0  501    0  0.00000000000E+00 -0.00000000000E+00 -0.14596866021E+04  0.14596866021E+04  0.00000000000E+00 0. -1.
         25    2    1    2    0    0  0.32216747788E+02  0.41472736864E+02 -0.12060699613E+04  0.12136792583E+04  0.12511867889E+03 0.  0.
         23    2    1    2    0    0 -0.32216747788E+02 -0.41472736864E+02 -0.23863957720E+03  0.26098440745E+03  0.91684820901E+02 0.  0.
          5    1    3    3  502    0  0.17905542452E+02 -0.41930076996E+01 -0.10547214732E+04  0.10548900645E+04  0.41800000000E+01 0.  1.
         -5    1    3    3    0  502  0.14311205336E+02  0.45665744564E+02 -0.15134848808E+03  0.15878919380E+03  0.41800000000E+01 0.  1.
        -11    1    4    4    0    0  0.23896641069E+02 -0.41049652137E+02 -0.13524987384E+03  0.14334800929E+03  0.00000000000E+00 0.  1.
         11    1    4    4    0    0 -0.56113388857E+02 -0.42308472749E+00 -0.10338970337E+03  0.11763639816E+03  0.00000000000E+00 0. -1.
</event>
<event>
 8    1  0.6849590E-009  0.1429553E+03  0.7561462E-02  0.1209407E+00
         -1   -1    0    0    0  501 -0.00000000000E+00  0.00000000000E+00  0.59670839699E+02  0.59670839699E+02  0.00000000000E+00 0. -1.
          1   -1    0    0  501    0  0.00000000000E+00 -0.00000000000E+00 -0.48380727752E+03  0.48380727752E+03  0.00000000000E+00 0.  1.
         25    2    1    2    0    0 -0.10703045646E+03 -0.29232427781E+02 -0.33135827112E+03  0.37115540187E+03  0.12509186645E+03 0.  0.
         23    2    1    2    0    0  0.10703045646E+03  0.29232427781E+02 -0.92778166705E+02  0.17232271535E+03  0.93687120595E+02 0.  0.
          5    1    3    3  502    0 -0.42081150197E+02  0.31352367003E+02 -0.23165952398E+03  0.23756557319E+03  0.41800000000E+01 0. -1.
         -5    1    3    3    0  502 -0.64949306263E+02 -0.60584794784E+02 -0.99698747142E+02  0.13358982867E+03  0.41800000000E+01 0. -1.
        -11    1    4    4    0    0  0.38471323299E+02  0.58327553664E+02 -0.35540964156E+02  0.78392004478E+02  0.00000000000E+00 0.  1.
         11    1    4    4    0    0  0.68559133161E+02 -0.29095125883E+02 -0.57237202549E+02  0.93930710876E+02  0.00000000000E+00 0. -1.
</event>
<event>
 8    1  0.6849590E-009  0.1879361E+03  0.7561462E-02  0.1160336E+00
         -3   -1    0    0    0  501 -0.00000000000E+00  0.00000000000E+00  0.29048948835E+03  0.29048948835E+03  0.00000000000E+00 0.  1.
          3   -1    0    0  501    0  0.00000000000E+00 -0.00000000000E+00 -0.12344469454E+03  0.12344469454E+03  0.00000000000E+00 0. -1.
         25    2    1    2    0    0 -0.15034765984E+03 -0.20970505396E+02  0.64916932449E+02  0.20713915021E+03  0.12509291953E+03 0.  0.
         23    2    1    2    0    0  0.15034765984E+03  0.20970505396E+02  0.10212786136E+03  0.20679503267E+03  0.96384150959E+02 0.  0.
          5    1    3    3  502    0 -0.15857850381E+03 -0.49882132845E+02  0.56774693639E+02  0.17571626927E+03  0.41800000000E+01 0. -1.
         -5    1    3    3    0  502  0.82308439676E+01  0.28911627449E+02  0.81422388104E+01  0.31422880947E+02  0.41800000000E+01 0. -1.
        -11    1    4    4    0    0  0.15177783041E+03 -0.63141350815E+01  0.92340897683E+02  0.17777294364E+03  0.00000000000E+00 0. -1.
         11    1    4    4    0    0 -0.14301705693E+01  0.27284640477E+02  0.97869636803E+01  0.29022089034E+02  0.00000000000E+00 0.  1.
</event>
<event>
 8    1  0.6849590E-009  0.9270726E+02  0.7561462E-02  0.1296425E+00
         -1   -1    0    0    0  501 -0.00000000000E+00  0.00000000000E+00  0.18504854445E+02  0.18504854445E+02  0.00000000000E+00 0.  1.
          1   -1    0    0  501    0  0.00000000000E+00 -0.00000000000E+00 -0.68709746957E+03  0.68709746957E+03  0.00000000000E+00 0. -1.
         25    2    1    2    0    0 -0.11264669585E+02 -0.31781708580E+02 -0.39270268580E+03  0.41352161592E+03  0.12509099736E+03 0.  0.
         23    2    1    2    0    0  0.11264669585E+02  0.31781708580E+02 -0.27588992933E+03  0.29208070809E+03  0.89771471835E+02 0.  0.
          5    1    3    3  502    0  0.17274681790E+02  0.22125825709E+02 -0.17438917563E+02  0.33309984090E+02  0.41800000000E+01 0.  1.
         -5    1    3    3    0  502 -0.28539351376E+02 -0.53907534289E+02 -0.37526376823E+03  0.38021163183E+03  0.41800000000E+01 0.  1.
        -11    1    4    4    0    0 -0.31351582101E+02  0.41669758981E+02 -0.15011190369E+03  0.15891152929E+03  0.00000000000E+00 0.  1.
         11    1    4    4    0    0  0.42616251687E+02 -0.98880504011E+01 -0.12577802564E+03  0.13316917880E+03  0.00000000000E+00 0. -1.
</event>
<event>
 8    1  0.6849590E-009  0.1355801E+03  0.7561462E-02  0.1219403E+00
         -1   -1    0    0    0  501 -0.00000000000E+00  0.00000000000E+00  0.12558755170E+03  0.12558755170E+03  0.00000000000E+00 0.  1.
          1   -1    0    0  501    0  0.00000000000E+00 -0.00000000000E+00 -0.22294204431E+03  0.22294204431E+03  0.00000000000E+00 0. -1.
         25    2    1    2    0    0  0.13040373485E+02 -0.10247839849E+03  0.25397630168E+02  0.16420896203E+03  0.12509064751E+03 0.  0.
         23    2    1    2    0    0 -0.13040373485E+02  0.10247839849E+03 -0.12275212278E+03  0.18432063399E+03  0.90742156530E+02 0.  0.
          5    1    3    3  502    0 -0.43126622793E+02 -0.17996869029E+02  0.39968413758E+02  0.61633914258E+02  0.41800000000E+01 0.  1.
         -5    1    3    3    0  502  0.56166996278E+02 -0.84481529457E+02 -0.14570783591E+02  0.10257504777E+03  0.41800000000E+01 0.  1.
        -11    1    4    4    0    0  0.24722019092E+02  0.64831359233E+02 -0.10907232836E+03  0.12927125041E+03  0.00000000000E+00 0. -1.
         11    1    4    4    0    0 -0.37762392577E+02  0.37647039254E+02 -0.13679794416E+02  0.55049383584E+02  0.00000000000E+00 0.  1.
</event>
<event>
 8    1  0.6849590E-009  0.1356694E+03  0.7561462E-02  0.1219278E+00
         -3   -1    0    0    0  501 -0.00000000000E+00  0.00000000000E+00  0.19491213826E+03  0.19491213826E+03  0.00000000000E+00 0.  1.
          3   -1    0    0  501    0  0.00000000000E+00 -0.00000000000E+00 -0.14234973785E+03  0.14234973785E+03  0.00000000000E+00 0. -1.
         25    2    1    2    0    0  0.70509696592E+02 -0.98191360972E+02 -0.73388653582E+01  0.17411101059E+03  0.12509046479E+03 0.  0.
         23    2    1    2    0    0 -0.70509696592E+02  0.98191360972E+02  0.59901265766E+02  0.16315086551E+03  0.91743569770E+02 0.  0.
          5    1    3    3  502    0 -0.20348409730E+02 -0.25449758324E+02  0.37011164268E+02  0.49487843535E+02  0.41800000000E+01 0.  1.
         -5    1    3    3    0  502  0.90858106322E+02 -0.72741602648E+02 -0.44350029626E+02  0.12462316706E+03  0.41800000000E+01 0.  1.
        -11    1    4    4    0    0 -0.20555862900E+02  0.16907475171E+02 -0.24196369499E+02  0.35970411635E+02  0.00000000000E+00 0. -1.
         11    1    4    4    0    0 -0.49953833691E+02  0.81283885801E+02  0.84097635265E+02  0.12718045388E+03  0.00000000000E+00 0.  1.
</event>
<event>
 8    1  0.6849590E-009  0.1098651E+03  0.7561462E-02  0.1260820E+00
          2   -1    0    0  501    0  0.00000000000E+00  0.00000000000E+00  0.22302859184E+04  0.22302859184E+04  0.00000000000E+00 0. -1.
         -2   -1    0    0    0  501 -0.00000000000E+00 -0.00000000000E+00 -0.71059735793E+01  0.71059735793E+01  0.00000000000E+00 0.  1.
         25    2    1    2    0    0 -0.30210745839E+02 -0.58791679843E+01  0.17909894487E+04  0.17956160351E+04  0.12508591570E+03 0.  0.
         23    2    1    2    0    0  0.30210745839E+02  0.58791679843E+01  0.43219049605E+03  0.44177585682E+03  0.86197616088E+02 0.  0.
          5    1    3    3  502    0 -0.16876318442E+02 -0.65367240251E+02  0.97031314249E+03  0.97266785344E+03  0.41800000000E+01 0.  1.
         -5    1    3    3    0  502 -0.13334427397E+02  0.59488072266E+02  0.82067630624E+03  0.82294818167E+03  0.41800000000E+01 0.  1.
        -11    1    4    4    0    0  0.60455777729E+02  0.19857941474E+01  0.30921905299E+03  0.31507977906E+03  0.00000000000E+00 0.  1.
         11    1    4    4    0    0 -0.30245031890E+02  0.38933738370E+01  0.12297144306E+03  0.12669607777E+03  0.00000000000E+00 0. -1.
</event>
<event>
 8    1  0.6849590E-009  0.1372801E+03  0.7561462E-02  0.1217036E+00
         -2   -1    0    0    0  501 -0.00000000000E+00  0.00000000000E+00  0.22149209838E+03  0.22149209838E+03  0.00000000000E+00 0. -1.
          2   -1    0    0  501    0  0.00000000000E+00 -0.00000000000E+00 -0.11496278374E+03  0.11496278374E+03  0.00000000000E+00 0.  1.
         25    2    1    2    0    0 -0.47362706266E+02  0.10453774212E+03  0.46327672423E+02  0.17596789097E+03  0.12508828862E+03 0.  0.
         23    2    1    2    0    0  0.47362706266E+02 -0.10453774212E+03  0.60201642216E+02  0.16048699115E+03  0.94659765118E+02 0.  0.
          5    1    3    3  502    0  0.43875051877E+00  0.96333828879E+02  0.72553641300E+02  0.12067270758E+03  0.41800000000E+01 0. -1.
         -5    1    3    3    0  502 -0.47801456785E+02  0.82039132366E+01 -0.26225968877E+02  0.55295183395E+02  0.41800000000E+01 0. -1.
        -11    1    4    4    0    0  0.21170170936E+02 -0.10079712388E+03  0.96720235277E+01  0.10344942900E+03  0.00000000000E+00 0.  1.
         11    1    4    4    0    0  0.26192535330E+02 -0.37406182314E+01  0.50529618689E+02  0.57037562155E+02  0.00000000000E+00 0. -1.
</event>
<event>
 8    1  0.6849590E-009  0.1128700E+03  0.7561462E-02  0.1255346E+00
         -3   -1    0    0    0  501 -0.00000000000E+00  0.00000000000E+00  0.51505872307E+02  0.51505872307E+02  0.00000000000E+00 0.  1.
          3   -1    0    0  501    0  0.00000000000E+00 -0.00000000000E+00 -0.48803370226E+03  0.48803370226E+03  0.00000000000E+00 0. -1.
         25    2    1    2    0    0  0.83427163015E+02 -0.69367157946E+02 -0.16239777870E+03  0.23191065799E+03  0.12505047234E+03 0.  0.
         23    2    1    2    0    0 -0.83427163015E+02  0.69367157946E+02 -0.27413005126E+03  0.30762891658E+03  0.87842877824E+02 0.  0.
          5    1    3    3  502    0  0.23244835778E+02  0.20771848248E+01 -0.13121637933E+03  0.13334109528E+03  0.41800000000E+01 0. -1.
         -5    1    3    3    0  502  0.60182327237E+02 -0.71444342771E+02 -0.31181399374E+02  0.98569562709E+02  0.41800000000E+01 0. -1.
        -11    1    4    4    0    0 -0.16700569106E+02  0.12688425427E+02 -0.12083900665E+01  0.21008697124E+02  0.00000000000E+00 0.  1.
         11    1    4    4    0    0 -0.66726593908E+02  0.56678732519E+02 -0.27292166119E+03  0.28662021946E+03  0.00000000000E+00 0. -1.
</event>
<event>
 8    1  0.6849590E-009  0.1106775E+03  0.7561462E-02  0.1259320E+00
         -1   -1    0    0    0  501 -0.00000000000E+00  0.00000000000E+00  0.37361432967E+02  0.37361432967E+02  0.00000000000E+00 0.  1.
          1   -1    0    0  501    0  0.00000000000E+00 -0.00000000000E+00 -0.35872347669E+03  0.35872347669E+03  0.00000000000E+00 0. -1.
         25    2    1    2    0    0  0.39003069392E+02 -0.16192983222E+02 -0.17985120419E+03  0.22310620363E+03  0.12508585181E+03 0.  0.
         23    2    1    2    0    0 -0.39003069392E+02  0.16192983222E+02 -0.14151083953E+03  0.17297870602E+03  0.90071432236E+02 0.  0.
          5    1    3    3  502    0  0.79334715056E+02 -0.20641319674E+02 -0.15485869562E+03  0.17526764989E+03  0.41800000000E+01 0.  1.
         -5    1    3    3    0  502 -0.40331645663E+02  0.44483364524E+01 -0.24992508574E+02  0.47838553740E+02  0.41800000000E+01 0.  1.
        -11    1    4    4    0    0  0.28738050234E+02 -0.38828150119E+00 -0.30749081432E+02  0.42089574751E+02  0.00000000000E+00 0.  1.
         11    1    4    4    0    0 -0.67741119627E+02  0.16581264723E+02 -0.11076175810E+03  0.13088913127E+03  0.00000000000E+00 0. -1.
</event>
<event>
 8    1  0.6849590E-009  0.2108230E+03  0.7561462E-02  0.1140916E+00
          1   -1    0    0  501    0  0.00000000000E+00  0.00000000000E+00  0.28274844366E+03  0.28274844366E+03  0.00000000000E+00 0. -1.
         -1   -1    0    0    0  501 -0.00000000000E+00 -0.00000000000E+00 -0.20794205610E+03  0.20794205610E+03  0.00000000000E+00 0.  1.
         25    2    1    2    0    0 -0.13062573525E+03  0.14004994828E+03  0.13909470908E+03  0.26772210184E+03  0.12510281768E+03 0.  0.
         23    2    1    2    0    0  0.13062573525E+03 -0.14004994828E+03 -0.64288321523E+02  0.22296839792E+03  0.94365499329E+02 0.  0.
          5    1    3    3  502    0 -0.96172302966E+02  0.14932647703E+03  0.14740008948E+03  0.23085009720E+03  0.41800000000E+01 0.  1.
         -5    1    3    3    0  502 -0.34453432289E+02 -0.92765287514E+01 -0.83053803935E+01  0.36872004633E+02  0.41800000000E+01 0.  1.
        -11    1    4    4    0    0  0.13152971081E+03 -0.93212115930E+02 -0.27801891060E+02  0.16358945116E+03  0.00000000000E+00 0. -1.
         11    1    4    4    0    0 -0.90397555999E+00 -0.46837832352E+02 -0.36486430462E+02  0.59378946767E+02  0.00000000000E+00 0.  1.
</event>
<event>
 8    1  0.6849590E-009  0.2084884E+03  0.7561462E-02  0.1142769E+00
         -1   -1    0    0    0  501 -0.00000000000E+00  0.00000000000E+00  0.53058260317E+03  0.53058260317E+03  0.00000000000E+00 0.  1.
          1   -1    0    0  501    0  0.00000000000E+00 -0.00000000000E+00 -0.12235470819E+03  0.12235470819E+03  0.00000000000E+00 0. -1.
         25    2    1    2    0    0 -0.11879917224E+03 -0.14476658472E+03  0.38382993943E+02  0.22845406557E+03  0.12508956182E+03 0.  0.
         23    2    1    2    0    0  0.11879917224E+03  0.14476658472E+03  0.36984490103E+03  0.42448324578E+03  0.91269752669E+02 0.  0.
          5    1    3    3  502    0 -0.68299482975E+01 -0.97644838318E+02 -0.81225355369E+01  0.98308751531E+02  0.41800000000E+01 0. -1.
         -5    1    3    3    0  502 -0.11196922395E+03 -0.47121746404E+02  0.46505529480E+02  0.13014531404E+03  0.41800000000E+01 0. -1.
        -11    1    4    4    0    0  0.12122628458E+03  0.11342221250E+03  0.34980763151E+03  0.38720251733E+03  0.00000000000E+00 0.  1.
         11    1    4    4    0    0 -0.24271123387E+01  0.31344372220E+02  0.20037269524E+02  0.37280728455E+02  0.00000000000E+00 0. -1.
</event>
<event>
 8    1  0.6849590E-009  0.2059673E+03  0.7561462E-02  0.1144800E+00
          2   -1    0    0  501    0  0.00000000000E+00  0.00000000000E+00  0.15228858657E+03  0.15228858657E+03  0.00000000000E+00 0.  1.
         -2   -1    0    0    0  501 -0.00000000000E+00 -0.00000000000E+00 -0.34913810393E+03  0.34913810393E+03  0.00000000000E+00 0. -1.
         25    2    1    2    0    0 -0.56536117746E+02 -0.19278434928E+03 -0.70571666195E+02  0.24696322170E+03  0.12509330464E+03 0.  0.
         23    2    1    2    0    0  0.56536117746E+02  0.19278434928E+03 -0.12627785116E+03  0.25446346881E+03  0.91888102195E+02 0.  0.
          5    1    3    3  502    0 -0.13725346242E+02 -0.40948658146E+02  0.36132019757E+02  0.56463908695E+02  0.41800000000E+01 0.  1.
         -5    1    3    3    0  502 -0.42810771504E+02 -0.15183569114E+03 -0.10670368595E+03  0.19049931301E+03  0.41800000000E+01 0.  1.
        -11    1    4    4    0    0 -0.94519275630E+01  0.76086431739E+02 -0.10615927058E+02  0.77402725642E+02  0.00000000000E+00 0.  1.
         11    1    4    4    0    0  0.65988045308E+02  0.11669791754E+03 -0.11566192411E+03  0.17706074317E+03  0.00000000000E+00 0. -1.
</event>
<event>
 8    1  0.6849590E-009  0.9565647E+02  0.7561462E-02  0.1289704E+00
          1   -1    0    0  501    0  0.00000000000E+00  0.00000000000E+00  0.42154204279E+02  0.42154204279E+02  0.00000000000E+00 0. -1.
         -1   -1    0    0    0  501 -0.00000000000E+00 -0.00000000000E+00 -0.50911622686E+03  0.50911622686E+03  0.00000000000E+00 0.  1.
         25    2    1    2    0    0  0.62084136207E+02 -0.18321636229E+02 -0.38684705277E+03  0.41168958138E+03  0.12509015492E+03 0.  0.
         23    2    1    2    0    0 -0.62084136207E+02  0.18321636229E+02 -0.80114969812E+02  0.13958084976E+03  0.94203412404E+02 0.  0.
          5    1    3    3  502    0  0.11557410550E+02  0.26544526626E+02 -0.13433990640E+02  0.32188975394E+02  0.41800000000E+01 0. -1.
         -5    1    3    3    0  502  0.50526725657E+02 -0.44866162855E+02 -0.37341306213E+03  0.37950060598E+03  0.41800000000E+01 0. -1.
        -11    1    4    4    0    0 -0.10054659670E+02 -0.24815089724E+02  0.85384232797E+01  0.28103194323E+02  0.00000000000E+00 0.  1.
         11    1    4    4    0    0 -0.52029476537E+02  0.43136725953E+02 -0.88653393092E+02  0.11147765544E+03  0.00000000000E+00 0. -1.
</event>
<event>
 8    1  0.6849590E-009  0.1090996E+03  0.7561462E-02  0.1262246E+00
         -4   -1    0    0    0  501 -0.00000000000E+00  0.00000000000E+00  0.11504521288E+03  0.11504521288E+03  0.00000000000E+00 0.  1.
          4   -1    0    0  501    0  0.00000000000E+00 -0.00000000000E+00 -0.15502662266E+03  0.15502662266E+03  0.00000000000E+00 0. -1.
         25    2    1    2    0    0 -0.53301152262E+02 -0.47528444498E+02 -0.53692968339E+02  0.15371924003E+03  0.12508678602E+03 0.  0.
         23    2    1    2    0    0  0.53301152262E+02  0.47528444498E+02  0.13711558555E+02  0.11635259551E+03  0.90829256158E+02 0.  0.
          5    1    3    3  502    0 -0.11813602548E+01 -0.63885974013E+02  0.15086526693E+02  0.65786692995E+02  0.41800000000E+01 0.  1.
         -5    1    3    3    0  502 -0.52119792007E+02  0.16357529515E+02 -0.68779495031E+02  0.87932547032E+02  0.41800000000E+01 0.  1.
        -11    1    4    4    0    0  0.68077591120E+02  0.25173922105E+02  0.36438424182E+02  0.81216029967E+02  0.00000000000E+00 0.  1.
         11    1    4    4    0    0 -0.14776438858E+02  0.22354522392E+02 -0.22726865626E+02  0.35136565539E+02  0.00000000000E+00 0. -1.
</event>
<event>
 8    1  0.6849590E-009  0.2098094E+03  0.7561462E-02  0.1141717E+00
          1   -1    0    0  501    0  0.00000000000E+00  0.00000000000E+00  0.89803304153E+03  0.89803304153E+03  0.00000000000E+00 0. -1.
         -1   -1    0    0    0  501 -0.00000000000E+00 -0.00000000000E+00 -0.55562452173E+02  0.55562452173E+02  0.00000000000E+00 0.  1.
         25    2    1    2    0    0  0.19004655324E+03 -0.42953480284E+02  0.41566507280E+03  0.47580235020E+03  0.12509088636E+03 0.  0.
         23    2    1    2    0    0 -0.19004655324E+03  0.42953480284E+02  0.42680551656E+03  0.47779314350E+03  0.90336289194E+02 0.  0.
          5    1    3    3  502    0  0.11652554588E+03 -0.58062242287E+02  0.14510562779E+03  0.19499369846E+03  0.41800000000E+01 0.  1.
         -5    1    3    3    0  502  0.73521007358E+02  0.15108762003E+02  0.27055944501E+03  0.28080865175E+03  0.41800000000E+01 0.  1.
        -11    1    4    4    0    0 -0.57116576619E+02  0.56784300293E+02  0.14383943652E+03  0.16485309698E+03  0.00000000000E+00 0. -1.
         11    1    4    4    0    0 -0.13292997662E+03 -0.13830820009E+02  0.28296608004E+03  0.31294004652E+03  0.00000000000E+00 0.  1.
</event>
<event>
 8    1  0.6849590E-009  0.1381910E+03  0.7561462E-02  0.1215784E+00
         -2   -1    0    0    0  501 -0.00000000000E+00  0.00000000000E+00  0.10555838854E+03  0.10555838854E+03  0.00000000000E+00 0.  1.
          2   -1    0    0  501    0  0.00000000000E+00 -0.00000000000E+00 -0.24983204359E+03  0.24983204359E+03  0.00000000000E+00 0. -1.
         25    2    1    2    0    0 -0.10342120850E+03  0.28208967418E+02 -0.13973708852E+03  0.21601989240E+03  0.12508576176E+03 0.  0.
         23    2    1    2    0    0  0.10342120850E+03 -0.28208967418E+02 -0.45365665299E+01  0.13937053972E+03  0.88948719464E+02 0.  0.
          5    1    3    3  502    0  0.61388024664E+01  0.37128326448E+02  0.40000499089E+00  0.37865946767E+02  0.41800000000E+01 0.  1.
         -5    1    3    3    0  502 -0.10956001097E+03 -0.89193590301E+01 -0.14013709351E+03  0.17815394564E+03  0.41800000000E+01 0.  1.
        -11    1    4    4    0    0  0.10943599783E+03 -0.10646858400E+02 -0.23927727157E+02  0.11252612737E+03  0.00000000000E+00 0. -1.
         11    1    4    4    0    0 -0.60147893244E+01 -0.17562109018E+02  0.19391160627E+02  0.26844412346E+02  0.00000000000E+00 0.  1.
</event>
<event>
 8    1  0.6849590E-009  0.1140736E+03  0.7561462E-02  0.1253207E+00
          2   -1    0    0  501    0  0.00000000000E+00  0.00000000000E+00  0.21853719203E+03  0.21853719203E+03  0.00000000000E+00 0. -1.
         -2   -1    0    0    0  501 -0.00000000000E+00 -0.00000000000E+00 -0.62487162657E+02  0.62487162657E+02  0.00000000000E+00 0.  1.
         25    2    1    2    0    0 -0.11103550859E+02 -0.40493994334E+02  0.95200600724E+02  0.16270361849E+03  0.12508501378E+03 0.  0.
         23    2    1    2    0    0  0.11103550859E+02  0.40493994334E+02  0.60849428647E+02  0.11832073619E+03  0.92380145204E+02 0.  0.
          5    1    3    3  502    0  0.42864399154E+02  0.20275026233E+02  0.52256143053E+02  0.70686705188E+02  0.41800000000E+01 0.  1.
         -5    1    3    3    0  502 -0.53967950013E+02 -0.60769020567E+02  0.42944457670E+02  0.92016913303E+02  0.41800000000E+01 0.  1.
        -11    1    4    4    0    0 -0.31239629866E+02  0.46887559363E+02  0.46825596623E+02  0.73259772019E+02  0.00000000000E+00 0. -1.
         11    1    4    4    0    0  0.42343180725E+02 -0.63935650287E+01  0.14023832023E+02  0.45060964174E+02  0.00000000000E+00 0.  1.
</event>
<event>
 8    1  0.6849590E-009  0.2112257E+03  0.7561462E-02  0.1140599E+00
          1   -1    0    0  501    0  0.00000000000E+00  0.00000000000E+00  0.17380441504E+04  0.17380441504E+04  0.00000000000E+00 0. -1.
         -1   -1    0    0    0  501 -0.00000000000E+00 -0.00000000000E+00 -0.27301463541E+02  0.27301463541E+02  0.00000000000E+00 0.  1.
         25    2    1    2    0    0 -0.14716919224E+02  0.18614278486E+03  0.80024976883E+03  0.83121183721E+03  0.12509077397E+03 0.  0.
         23    2    1    2    0    0  0.14716919224E+02 -0.18614278486E+03  0.91049291803E+03  0.93413377673E+03  0.93503128216E+02 0.  0.
          5    1    3    3  502    0  0.46249359617E+02  0.98144108848E+02  0.28590245230E+03  0.30582503821E+03  0.41800000000E+01 0. -1.
         -5    1    3    3    0  502 -0.60966278841E+02  0.87998676015E+02  0.51434731653E+03  0.52538679900E+03  0.41800000000E+01 0. -1.
        -11    1    4    4    0    0 -0.26061617920E+02 -0.15000598596E+03  0.60804322779E+03  0.62681541990E+03  0.00000000000E+00 0.  1.
         11    1    4    4    0    0  0.40778537144E+02 -0.36136798901E+02  0.30244969024E+03  0.30731835684E+03  0.00000000000E+00 0. -1.
</event>
<event>
 8    1  0.6849590E-009  0.1000367E+03  0.7561462E-02  0.1280219E+00
         -3   -1    0    0    0  501 -0.00000000000E+00  0.00000000000E+00  0.93365717056E+02  0.93365717056E+02  0.00000000000E+00 0.  1.
          3   -1    0    0  501    0  0.00000000000E+00 -0.00000000000E+00 -0.14743437163E+03  0.14743437163E+03  0.00000000000E+00 0. -1.
         25    2    1    2    0    0 -0.20944068079E+02  0.14184602289E+02 -0.67940180688E+02  0.14458171137E+03  0.12509255046E+03 0.  0.
         23    2    1    2    0    0  0.20944068079E+02 -0.14184602289E+02  0.13871526115E+02  0.96218377312E+02  0.91791611632E+02 0.  0.
          5    1    3    3  502    0 -0.37736132400E+02  0.55363773240E+02 -0.73530512843E+02  0.99565916834E+02  0.41800000000E+01 0. -1.
         -5    1    3    3    0  502  0.16792064320E+02 -0.41179170952E+02  0.55903321555E+01  0.45015794539E+02  0.41800000000E+01 0. -1.
        -11    1    4    4    0    0 -0.31557813083E+02 -0.16716225576E+02  0.23542046844E+02  0.42773306321E+02  0.00000000000E+00 0.  1.
         11    1    4    4    0    0  0.52501881162E+02  0.25316232873E+01 -0.96705207283E+01  0.53445070991E+02  0.00000000000E+00 0. -1.
</event>
<event>
 8    1  0.6849590E-009  0.9519998E+02  0.7561462E-02  0.1290726E+00
         -2   -1    0    0    0  501 -0.00000000000E+00  0.00000000000E+00  0.17266857342E+03  0.17266857342E+03  0.00000000000E+00 0.  1.
          2   -1    0    0  501    0  0.00000000000E+00 -0.00000000000E+00 -0.69526042507E+02  0.69526042507E+02  0.00000000000E+00 0. -1.
         25    2    1    2    0    0  0.13545032232E+02  0.13772336165E+02  0.45441346136E+02  0.13448180067E+03  0.12508914274E+03 0.  0.
         23    2    1    2    0    0 -0.13545032232E+02 -0.13772336165E+02  0.57701184779E+02  0.10771281526E+03  0.88879011605E+02 0.  0.
          5    1    3    3  502    0  0.23877569934E+02 -0.47329983368E+02 -0.64247678161E+01  0.53563193641E+02  0.41800000000E+01 0. -1.
         -5    1    3    3    0  502 -0.10332537702E+02  0.61102319533E+02  0.51866113952E+02  0.80918607033E+02  0.41800000000E+01 0. -1.
        -11    1    4    4    0    0  0.24992609774E+02 -0.24615085868E+02  0.57877858940E+02  0.67678501395E+02  0.00000000000E+00 0.  1.
         11    1    4    4    0    0 -0.38537642007E+02  0.10842749703E+02 -0.17667416100E+00  0.40034313861E+02  0.00000000000E+00 0. -1.
</event>
<event>
 8    1  0.6849590E-009  0.8883471E+02  0.7561462E-02  0.1305698E+00
          4   -1    0    0  501    0  0.00000000000E+00  0.00000000000E+00  0.85655140613E+02  0.85655140613E+02  0.00000000000E+00 0. -1.
         -4   -1    0    0    0  501 -0.00000000000E+00 -0.00000000000E+00 -0.15338098066E+03  0.15338098066E+03  0.00000000000E+00 0.  1.
         25    2    1    2    0    0 -0.29398268098E+02 -0.58402774876E+01 -0.52126829799E+02  0.13882595215E+03  0.12512822062E+03 0.  0.
         23    2    1    2    0    0  0.29398268098E+02  0.58402774876E+01 -0.15599010249E+02  0.10021016913E+03  0.94341835192E+02 0.  0.
          5    1    3    3  502    0 -0.42014069131E+02 -0.59453449368E+02 -0.35757513129E+02  0.81215557573E+02  0.41800000000E+01 0.  1.
         -5    1    3    3    0  502  0.12615801033E+02  0.53613171880E+02 -0.16369316670E+02  0.57610394575E+02  0.41800000000E+01 0.  1.
        -11    1    4    4    0    0  0.10150352335E+02 -0.16904104780E+02 -0.50563590489E+02  0.54272047079E+02  0.00000000000E+00 0.  1.
         11    1    4    4    0    0  0.19247915764E+02  0.22744382268E+02  0.34964580240E+02  0.45938122048E+02  0.00000000000E+00 0. -1.
</event>
<event>
 8    1  0.6849590E-009  0.1127573E+03  0.7561462E-02  0.1255547E+00
         -1   -1    0    0    0  501 -0.00000000000E+00  0.00000000000E+00  0.73186960645E+03  0.73186960645E+03  0.00000000000E+00 0.  1.
          1   -1    0    0  501    0  0.00000000000E+00 -0.00000000000E+00 -0.25124393822E+02  0.25124393822E+02  0.00000000000E+00 0. -1.
         25    2    1    2    0    0  0.77787518036E+02 -0.17765201458E+02  0.37195680133E+03  0.40045614231E+03  0.12508700775E+03 0.  0.
         23    2    1    2    0    0 -0.77787518036E+02  0.17765201458E+02  0.33478841129E+03  0.35653785796E+03  0.93109953713E+02 0.  0.
          5    1    3    3  502    0  0.38937661347E+02 -0.70033797880E+02  0.16540076716E+03  0.18383623281E+03  0.41800000000E+01 0. -1.
         -5    1    3    3    0  502  0.38849856689E+02  0.52268596422E+02  0.20655603418E+03  0.21661990950E+03  0.41800000000E+01 0. -1.
        -11    1    4    4    0    0 -0.59057434921E+02  0.16095225420E+02  0.33191875396E+03  0.33751577168E+03  0.00000000000E+00 0.  1.
         11    1    4    4    0    0 -0.18730083115E+02  0.16699760377E+01  0.28696573322E+01  0.19022086285E+02  0.00000000000E+00 0. -1.
</event>
<event>
 8    1  0.6849590E-009  0.1217255E+03  0.7561462E-02  0.1240277E+00
         -1   -1    0    0    0  501 -0.00000000000E+00  0.00000000000E+00  0.11747626588E+03  0.11747626588E+03  0.00000000000E+00 0.  1.
          1   -1    0    0  501    0  0.00000000000E+00 -0.00000000000E+00 -0.15377560420E+03  0.15377560420E+03  0.00000000000E+00 0. -1.
         25    2    1    2    0    0 -0.71353332367E+01 -0.68426787431E+02 -0.62331085994E+02  0.15577551504E+03  0.12509080137E+03 0.  0.
         23    2    1    2    0    0  0.71353332367E+01  0.68426787431E+02  0.26031747676E+02  0.11547635503E+03  0.89016843723E+02 0.  0.
          5    1    3    3  502    0 -0.56349460727E+02  0.13421531409E+01 -0.32731078205E+02  0.65313543616E+02  0.41800000000E+01 0.  1.
         -5    1    3    3    0  502  0.49214127490E+02 -0.69768940572E+02 -0.29600007789E+02  0.90461971426E+02  0.41800000000E+01 0.  1.
        -11    1    4    4    0    0 -0.30580213529E+02  0.10513385269E+02 -0.14409186552E+02  0.35402053420E+02  0.00000000000E+00 0. -1.
         11    1    4    4    0    0  0.37715546765E+02  0.57913402162E+02  0.40440934227E+02  0.80074301614E+02  0.00000000000E+00 0.  1.
</event>
<event>
 8    1  0.6849590E-009  0.1743265E+03  0.7561462E-02  0.1173410E+00
          2   -1    0    0  501    0  0.00000000000E+00  0.00000000000E+00  0.28163167898E+03  0.28163167898E+03  0.00000000000E+00 0.  1.
         -2   -1    0    0    0  501 -0.00000000000E+00 -0.00000000000E+00 -0.12036786926E+03  0.12036786926E+03  0.00000000000E+00 0. -1.
         25    2    1    2    0    0 -0.26546791647E+01  0.13838191014E+03  0.29965743898E+02  0.18895105097E+03  0.12509178022E+03 0.  0.
         23    2    1    2    0    0  0.26546791647E+01 -0.13838191014E+03  0.13129806583E+03  0.21304849727E+03  0.94836067621E+02 0.  0.
          5    1    3    3  502    0  0.41179777050E+02  0.65822656082E+01 -0.12344870169E+02  0.43691743819E+02  0.41800000000E+01 0. -1.
         -5    1    3    3    0  502 -0.43834456215E+02  0.13179964453E+03  0.42310614068E+02  0.14525930715E+03  0.41800000000E+01 0. -1.
        -11    1    4    4    0    0  0.48629316550E+01  0.14289000398E+02  0.11689216085E+02  0.19090872409E+02  0.00000000000E+00 0.  1.
         11    1    4    4    0    0 -0.22082524903E+01 -0.15267091054E+03  0.11960884974E+03  0.19395762486E+03  0.00000000000E+00 0. -1.
</event>
<event>
 8    1  0.6849590E-009  0.1223837E+03  0.7561462E-02  0.1239216E+00
          1   -1    0    0  501    0  0.00000000000E+00  0.00000000000E+00  0.13203790094E+03  0.13203790094E+03  0.00000000000E+00 0. -1.
         -1   -1    0    0    0  501 -0.00000000000E+00 -0.00000000000E+00 -0.13860599118E+03  0.13860599118E+03  0.00000000000E+00 0.  1.
         25    2    1    2    0    0  0.54729902656E+02 -0.18366138280E+02  0.51069851204E+02  0.14693194223E+03  0.12509272027E+03 0.  0.
         23    2    1    2    0    0 -0.54729902656E+02  0.18366138280E+02 -0.57637941441E+02  0.12371194989E+03  0.93004499745E+02 0.  0.
          5    1    3    3  502    0 -0.36775693964E+02 -0.26494499259E+02  0.12443154445E+02  0.47188077414E+02  0.41800000000E+01 0.  1.
         -5    1    3    3    0  502  0.91505596620E+02  0.81283609785E+01  0.38626696760E+02  0.99743864811E+02  0.41800000000E+01 0.  1.
        -11    1    4    4    0    0 -0.79831247690E+02  0.83656378186E+01 -0.31836323198E+02  0.86351395348E+02  0.00000000000E+00 0.  1.
         11    1    4    4    0    0  0.25101345034E+02  0.10000500461E+02 -0.25801618243E+02  0.37360554546E+02  0.00000000000E+00 0. -1.
</event>
<event>
 8    1  0.6849590E-009  0.9423909E+02  0.7561462E-02  0.1292899E+00
          2   -1    0    0  501    0  0.00000000000E+00  0.00000000000E+00  0.60592126422E+03  0.60592126422E+03  0.00000000000E+00 0.  1.
         -2   -1    0    0    0  501 -0.00000000000E+00 -0.00000000000E+00 -0.21260201219E+02  0.21260201219E+02  0.00000000000E+00 0. -1.
         25    2    1    2    0    0  0.27172835282E+02  0.52617215271E+01  0.27904175240E+03  0.30704602426E+03  0.12508762026E+03 0.  0.
         23    2    1    2    0    0 -0.27172835282E+02 -0.52617215271E+01  0.30561931060E+03  0.32013544117E+03  0.91200268611E+02 0.  0.
          5    1    3    3  502    0 -0.85995716199E+00 -0.43804147668E+02  0.34212233985E+02  0.55744885268E+02  0.41800000000E+01 0. -1.
         -5    1    3    3    0  502  0.28032792444E+02  0.49065869195E+02  0.24482951842E+03  0.25130113899E+03  0.41800000000E+01 0. -1.
        -11    1    4    4    0    0 -0.22651985958E+02  0.38035843099E+02  0.91642082244E+02  0.10177479583E+03  0.00000000000E+00 0.  1.
         11    1    4    4    0    0 -0.45208493234E+01 -0.43297564627E+02  0.21397722835E+03  0.21836064534E+03  0.00000000000E+00 0. -1.
</event>
<event>
 8    1  0.6849590E-009  0.1897876E+03  0.7561462E-02  0.1158653E+00
         -1   -1    0    0    0  501 -0.00000000000E+00  0.00000000000E+00  0.52509304183E+02  0.52509304183E+02  0.00000000000E+00 0.  1.
          1   -1    0    0  501    0  0.00000000000E+00 -0.00000000000E+00 -0.12061919232E+04  0.12061919232E+04  0.00000000000E+00 0. -1.
         25    2    1    2    0    0 -0.17720099653E+03 -0.53876693116E+02 -0.92187227657E+03  0.94857735998E+03  0.12509045658E+03 0.  0.
         23    2    1    2    0    0  0.17720099653E+03  0.53876693116E+02 -0.23181034240E+03  0.31012386736E+03  0.90210237942E+02 0.  0.
          5    1    3    3  502    0 -0.16747396659E+03 -0.34134762702E+02 -0.90370434345E+03  0.91973459448E+03  0.41800000000E+01 0.  1.
         -5    1    3    3    0  502 -0.97270299405E+01 -0.19741930414E+02 -0.18167933120E+02  0.28842765502E+02  0.41800000000E+01 0.  1.
        -11    1    4    4    0    0  0.12167675189E+03  0.27554562680E+02 -0.84969685904E+02  0.15094480248E+03  0.00000000000E+00 0.  1.
         11    1    4    4    0    0  0.55524244640E+02  0.26322130436E+02 -0.14684065650E+03  0.15917906488E+03  0.00000000000E+00 0. -1.
</event>
<event>
 8    1  0.6849590E-009  0.1062870E+03  0.7561462E-02  0.1267605E+00
         -1   -1    0    0    0  501 -0.00000000000E+00  0.00000000000E+00  0.41173924492E+02  0.41173924492E+02  0.00000000000E+00 0.  1.
          1   -1    0    0  501    0  0.00000000000E+00 -0.00000000000E+00 -0.46055670720E+03  0.46055670720E+03  0.00000000000E+00 0. -1.
         25    2    1    2    0    0  0.68403681641E+02  0.45751672409E+02 -0.26929909961E+03  0.30812648769E+03  0.12509055989E+03 0.  0.
         23    2    1    2    0    0 -0.68403681641E+02 -0.45751672409E+02 -0.15008368310E+03  0.19360414401E+03  0.90471948436E+02 0.  0.
          5    1    3    3  502    0  0.78923214980E+02  0.55902189900E+02 -0.27526680398E+03  0.29179310217E+03  0.41800000000E+01 0.  1.
         -5    1    3    3    0  502 -0.10519533339E+02 -0.10150517491E+02  0.59677043726E+01  0.16333385518E+02  0.41800000000E+01 0.  1.
        -11    1    4    4    0    0  0.10572510814E+02 -0.50614617776E+01  0.66246428771E+01  0.13464110572E+02  0.00000000000E+00 0.  1.
         11    1    4    4    0    0 -0.78976192455E+02 -0.40690210631E+02 -0.15670832597E+03  0.18014003343E+03  0.00000000000E+00 0. -1.
</event>
<event>
 8    1  0.6849590E-009  0.1038496E+03  0.7561462E-02  0.1272403E+00
         -1   -1    0    0    0  501 -0.00000000000E+00  0.00000000000E+00  0.33688398507E+02  0.33688398507E+02  0.00000000000E+00 0.  1.
          1   -1    0    0  501    0  0.00000000000E+00 -0.00000000000E+00 -0.63219901238E+03  0.63219901238E+03  0.00000000000E+00 0. -1.
         25    2    1    2    0    0  0.77828596064E+02 -0.50161112518E+02 -0.25830296860E+03  0.30156412242E+03  0.12508824392E+03 0.  0.
         23    2    1    2    0    0 -0.77828596064E+02  0.50161112518E+02 -0.34020764527E+03  0.36432328847E+03  0.91743059936E+02 0.  0.
          5    1    3    3  502    0  0.16414219894E+02 -0.95242517296E+01 -0.21531744641E+03  0.21619253714E+03  0.41800000000E+01 0.  1.
         -5    1    3    3    0  502  0.61414376170E+02 -0.40636860789E+02 -0.42985522193E+02  0.85371585280E+02  0.41800000000E+01 0.  1.
        -11    1    4    4    0    0  0.26332940480E+01  0.31887626885E+02 -0.31961178809E+02  0.45224682827E+02  0.00000000000E+00 0.  1.
         11    1    4    4    0    0 -0.80461890112E+02  0.18273485634E+02 -0.30824646646E+03  0.31909860564E+03  0.00000000000E+00 0. -1.
</event>
<event>
 8    1  0.6849590E-009  0.2011211E+03  0.7561462E-02  0.1148797E+00
          2   -1    0    0  501    0  0.00000000000E+00  0.00000000000E+00  0.48023024393E+03  0.48023024393E+03  0.00000000000E+00 0. -1.
         -2   -1    0    0    0  501 -0.00000000000E+00 -0.00000000000E+00 -0.10187715131E+03  0.10187715131E+03  0.00000000000E+00 0.  1.
         25    2    1    2    0    0  0.14828808877E+03 -0.12258092291E+03  0.20176136433E+03  0.30556660119E+03  0.12509140533E+03 0.  0.
         23    2    1    2    0    0 -0.14828808877E+03  0.12258092291E+03  0.17659172829E+03  0.27654079406E+03  0.90965555793E+02 0.  0.
          5    1    3    3  502    0  0.62735159275E+02 -0.71120398880E+02  0.17970468189E+03  0.20323645450E+03  0.41800000000E+01 0. -1.
         -5    1    3    3    0  502  0.85552929499E+02 -0.51460524035E+02  0.22056682446E+02  0.10233014668E+03  0.41800000000E+01 0. -1.
        -11    1    4    4    0    0 -0.11568103851E+03  0.46612235158E+02  0.74886587855E+02  0.14547441073E+03  0.00000000000E+00 0. -1.
         11    1    4    4    0    0 -0.32607050265E+02  0.75968687756E+02  0.10170514044E+03  0.13106638333E+03  0.00000000000E+00 0.  1.
</event>
<event>
 8    1  0.6849590E-009  0.1226359E+03  0.7561462E-02  0.1238811E+00
          2   -1    0    0  501    0  0.00000000000E+00  0.00000000000E+00  0.19514671967E+03  0.19514671967E+03  0.00000000000E+00 0. -1.
         -2   -1    0    0    0  501 -0.00000000000E+00 -0.00000000000E+00 -0.15292072292E+03  0.15292072292E+03  0.00000000000E+00 0.  1.
         25    2    1    2    0    0 -0.69508625633E+01  0.90539192082E+02 -0.77183652570E+02  0.17277277826E+03  0.12508979531E+03 0.  0.
         23    2    1    2    0    0  0.69508625633E+01 -0.90539192082E+02  0.11940964932E+03  0.17529466432E+03  0.90685694545E+02 0.  0.
          5    1    3    3  502    0  0.13864127227E+02 -0.11590477612E+02 -0.65184371519E+02  0.67771881229E+02  0.41800000000E+01 0.  1.
         -5    1    3    3    0  502 -0.20814989791E+02  0.10212966969E+03 -0.11999281051E+02  0.10500089703E+03  0.41800000000E+01 0.  1.
        -11    1    4    4    0    0  0.30042405296E+02 -0.94340488452E+02  0.11452305297E+03  0.15138759374E+03  0.00000000000E+00 0.  1.
         11    1    4    4    0    0 -0.23091542733E+02  0.38012963703E+01  0.48865963547E+01  0.23907070582E+02  0.00000000000E+00 0. -1.
</event>
<event>
 8    1  0.6849590E-009  0.2098961E+03  0.7561462E-02  0.1141648E+00
          2   -1    0    0  501    0  0.00000000000E+00  0.00000000000E+00  0.31028751925E+03  0.31028751925E+03  0.00000000000E+00 0. -1.
         -2   -1    0    0    0  501 -0.00000000000E+00 -0.00000000000E+00 -0.17548006302E+03  0.17548006302E+03  0.00000000000E+00 0.  1.
         25    2    1    2    0    0 -0.20118550511E+03 -0.29757341431E+02  0.90475339909E+02  0.25532955412E+03  0.12508511999E+03 0.  0.
         23    2    1    2    0    0  0.20118550511E+03  0.29757341431E+02  0.44332116323E+02  0.23043802815E+03  0.98869820707E+02 0.  0.
          5    1    3    3  502    0 -0.13617344360E+03 -0.61576531557E+01  0.11842212903E+03  0.18061671151E+03  0.41800000000E+01 0.  1.
         -5    1    3    3    0  502 -0.65012061508E+02 -0.23599688276E+02 -0.27946789123E+02  0.74712842608E+02  0.41800000000E+01 0.  1.
        -11    1    4    4    0    0  0.13131457516E+03  0.51346086194E+02 -0.68723675874E+01  0.14116362014E+03  0.00000000000E+00 0.  1.
         11    1    4    4    0    0  0.69870929950E+02 -0.21588744762E+02  0.51204483911E+02  0.89274408007E+02  0.00000000000E+00 0. -1.
</event>
<event>
 8    1  0.6849590E-009  0.1396573E+03  0.7561462E-02  0.1213791E+00
          2   -1    0    0  501    0  0.00000000000E+00  0.00000000000E+00  0.25236062311E+03  0.25236062311E+03  0.00000000000E+00 0. -1.
         -2   -1    0    0    0  501 -0.00000000000E+00 -0.00000000000E+00 -0.92875106779E+02  0.92875106779E+02  0.00000000000E+00 0.  1.
         25    2    1    2    0    0  0.35565474994E-01 -0.10406381527E+03  0.11156121777E+03  0.19730321988E+03  0.12511345391E+03 0.  0.
         23    2    1    2    0    0 -0.35565474994E-01  0.10406381527E+03  0.47924298566E+02  0.14793251002E+03  0.93584241264E+02 0.  0.
          5    1    3    3  502    0 -0.45383675700E+02 -0.25292777633E+02  0.89615486789E+02  0.10367164749E+03  0.41800000000E+01 0. -1.
         -5    1    3    3    0  502  0.45419241175E+02 -0.78771037639E+02  0.21945730979E+02  0.93631572388E+02  0.41800000000E+01 0. -1.
        -11    1    4    4    0    0  0.37886101602E+02  0.86384376148E+02  0.48548332906E+02  0.10608750051E+03  0.00000000000E+00 0. -1.
         11    1    4    4    0    0 -0.37921667077E+02  0.17679439124E+02 -0.62403433927E+00  0.41845009505E+02  0.00000000000E+00 0.  1.
</event>
<event>
 8    1  0.6849590E-009  0.1449151E+03  0.7561462E-02  0.1206864E+00
          1   -1    0    0  501    0  0.00000000000E+00  0.00000000000E+00  0.88338928623E+03  0.88338928623E+03  0.00000000000E+00 0. -1.
         -1   -1    0    0    0  501 -0.00000000000E+00 -0.00000000000E+00 -0.33778046293E+02  0.33778046293E+02  0.00000000000E+00 0.  1.
         25    2    1    2    0    0 -0.32605492190E+02  0.98735984364E+02  0.22649443913E+03  0.27885266296E+03  0.12508862440E+03 0.  0.
         23    2    1    2    0    0  0.32605492190E+02 -0.98735984364E+02  0.62311680081E+03  0.63831466957E+03  0.91428426648E+02 0.  0.
          5    1    3    3  502    0  0.28802175653E+02  0.82963399884E+02  0.78777768636E+02  0.11805041412E+03  0.41800000000E+01 0. -1.
         -5    1    3    3    0  502 -0.61407667843E+02  0.15772584480E+02  0.14771667049E+03  0.16080224884E+03  0.41800000000E+01 0. -1.
        -11    1    4    4    0    0  0.28299665635E+02  0.96501349103E+01  0.12548957947E+03  0.12900244468E+03  0.00000000000E+00 0.  1.
         11    1    4    4    0    0  0.43058265552E+01 -0.10838611927E+03  0.49762722134E+03  0.50931222488E+03  0.00000000000E+00 0. -1.
</event>
<event>
 8    1  0.6849590E-009  0.1226280E+03  0.7561462E-02  0.1238824E+00
         -2   -1    0    0    0  501 -0.00000000000E+00  0.00000000000E+00  0.24547749752E+03  0.24547749752E+03  0.00000000000E+00 0.  1.
          2   -1    0    0  501    0  0.00000000000E+00 -0.00000000000E+00 -0.71945922882E+02  0.71945922882E+02  0.00000000000E+00 0. -1.
         25    2    1    2    0    0  0.59380301621E+02 -0.45295149560E+02  0.99066413555E+02  0.17617772664E+03  0.12508703480E+03 0.  0.
         23    2    1    2    0    0 -0.59380301621E+02  0.45295149560E+02  0.74465161085E+02  0.14124569376E+03  0.93955388333E+02 0.  0.
          5    1    3    3  502    0 -0.34309789009E+02 -0.23763642327E+02  0.61093735716E+01  0.42387134415E+02  0.41800000000E+01 0. -1.
         -5    1    3    3    0  502  0.93690090629E+02 -0.21531507232E+02  0.92957039984E+02  0.13379059223E+03  0.41800000000E+01 0. -1.
        -11    1    4    4    0    0  0.60601138539E+01  0.41066571829E+02 -0.67162182804E+00  0.41516736114E+02  0.00000000000E+00 0. -1.
         11    1    4    4    0    0 -0.65440415475E+02  0.42285777307E+01  0.75136782913E+02  0.99728957648E+02  0.00000000000E+00 0.  1.
</event>
<event>
 8    1  0.6849590E-009  0.6399127E+02  0.7561462E-02  0.1381807E+00
          2   -1    0    0  501    0  0.00000000000E+00  0.00000000000E+00  0.35357590684E+03  0.35357590684E+03  0.00000000000E+00 0. -1.
         -2   -1    0    0    0  501 -0.00000000000E+00 -0.00000000000E+00 -0.47279830727E+02  0.47279830727E+02  0.00000000000E+00 0.  1.
         25    2    1    2    0    0 -0.18091021378E+02  0.97864665341E+01  0.66198470564E+02  0.14301151847E+03  0.12508795677E+03 0.  0.
         23    2    1    2    0    0  0.18091021378E+02 -0.97864665341E+01  0.24009760555E+03  0.25784421910E+03  0.91726338368E+02 0.  0.
          5    1    3    3  502    0 -0.17010673991E+02 -0.13229441553E+02  0.99727336811E+02  0.10211461825E+03  0.41800000000E+01 0.  1.
         -5    1    3    3    0  502 -0.10803473867E+01  0.23015908087E+02 -0.33528866247E+02  0.40896900217E+02  0.41800000000E+01 0.  1.
        -11    1    4    4    0    0 -0.32083633360E+01  0.33879085944E+02  0.42945212157E+02  0.54793953196E+02  0.00000000000E+00 0. -1.
         11    1    4    4    0    0  0.21299384714E+02 -0.43665552478E+02  0.19715239340E+03  0.20305026591E+03  0.00000000000E+00 0.  1.
</event>
<event>
 8    1  0.6849590E-009  0.1149582E+03  0.7561462E-02  0.1251654E+00
         -1   -1    0    0    0  501 -0.00000000000E+00  0.00000000000E+00  0.50708736715E+02  0.50708736715E+02  0.00000000000E+00 0.  1.
          1   -1    0    0  501    0  0.00000000000E+00 -0.00000000000E+00 -0.26951961185E+03  0.26951961185E+03  0.00000000000E+00 0. -1.
         25    2    1    2    0    0  0.30867463368E+01 -0.43359375272E+02 -0.11979568423E+03  0.17856925853E+03  0.12508561349E+03 0.  0.
         23    2    1    2    0    0 -0.30867463368E+01  0.43359375272E+02 -0.99015190902E+02  0.14165909004E+03  0.91508067047E+02 0.  0.
          5    1    3    3  502    0  0.22745578827E+01  0.42936403450E+02 -0.58108836211E+02  0.72407303503E+02  0.41800000000E+01 0. -1.
         -5    1    3    3    0  502  0.81218845414E+00 -0.86295778722E+02 -0.61686848022E+02  0.10616195502E+03  0.41800000000E+01 0. -1.
        -11    1    4    4    0    0  0.42190521085E+02  0.33754375838E+02 -0.63113003101E+02  0.83082182916E+02  0.00000000000E+00 0. -1.
         11    1    4    4    0    0 -0.45277267422E+02  0.96049994338E+01 -0.35902187801E+02  0.58576907124E+02  0.00000000000E+00 0.  1.
</event>
<event>
 8    1  0.6849590E-009  0.8024342E+02  0.7561462E-02  0.1328362E+00
         -1   -1    0    0    0  501 -0.00000000000E+00  0.00000000000E+00  0.13086740914E+03  0.13086740914E+03  0.00000000000E+00 0.  1.
          1   -1    0    0  501    0  0.00000000000E+00 -0.00000000000E+00 -0.10132356661E+03  0.10132356661E+03  0.00000000000E+00 0. -1.
         25    2    1    2    0    0  0.29071339365E+02  0.90872637698E+01  0.53191013401E+02  0.13929705245E+03  0.12508662510E+03 0.  0.
         23    2    1    2    0    0 -0.29071339365E+02 -0.90872637698E+01 -0.23647170869E+02  0.92893923306E+02  0.84512550321E+02 0.  0.
          5    1    3    3  502    0 -0.32068892922E+02  0.16648679093E+01  0.68436643653E+02  0.75711506872E+02  0.41800000000E+01 0. -1.
         -5    1    3    3    0  502  0.61140232288E+02  0.74223958605E+01 -0.15245630252E+02  0.63585545577E+02  0.41800000000E+01 0. -1.
        -11    1    4    4    0    0  0.11709207448E+02  0.14985367674E+02 -0.38769346638E+02  0.43182508289E+02  0.00000000000E+00 0. -1.
         11    1    4    4    0    0 -0.40780546814E+02 -0.24072631444E+02  0.15122175769E+02  0.49711415017E+02  0.00000000000E+00 0.  1.
</event>
<event>
 8    1  0.6849590E-009  0.1446846E+03  0.7561462E-02  0.1207161E+00
          3   -1    0    0  501    0  0.00000000000E+00  0.00000000000E+00  0.33845469178E+03  0.33845469178E+03  0.00000000000E+00 0. -1.
         -3   -1    0    0    0  501 -0.00000000000E+00 -0.00000000000E+00 -0.81306002120E+02  0.81306002120E+02  0.00000000000E+00 0.  1.
         25    2    1    2    0    0 -0.82883984875E+02  0.83904661965E+02  0.18559974350E+03  0.25298618749E+03  0.12507997053E+03 0.  0.
         23    2    1    2    0    0  0.82883984875E+02 -0.83904661965E+02  0.71548946162E+02  0.16677450641E+03  0.93726928054E+02 0.  0.
          5    1    3    3  502    0 -0.50272548580E+02  0.11259766545E+03  0.16117167505E+03  0.20297621694E+03  0.41800000000E+01 0. -1.
         -5    1    3    3    0  502 -0.32611436295E+02 -0.28693003486E+02  0.24428068447E+02  0.50009970549E+02  0.41800000000E+01 0. -1.
        -11    1    4    4    0    0  0.96106784940E+01 -0.29671598260E+02 -0.20421602199E+02  0.37280165247E+02  0.00000000000E+00 0.  1.
         11    1    4    4    0    0  0.73273306381E+02 -0.54233063705E+02  0.91970548361E+02  0.12949434116E+03  0.00000000000E+00 0. -1.
</event>
<event>
 8    1  0.6849590E-009  0.1303532E+03  0.7561462E-02  0.1226933E+00
         -2   -1    0    0    0  501 -0.00000000000E+00  0.00000000000E+00  0.19822508488E+03  0.19822508488E+03  0.00000000000E+00 0.  1.
          2   -1    0    0  501    0  0.00000000000E+00 -0.00000000000E+00 -0.14270413101E+03  0.14270413101E+03  0.00000000000E+00 0. -1.
         25    2    1    2    0    0 -0.11112000789E+03  0.50463704146E+01  0.92935506611E+02  0.19147284368E+03  0.12510683223E+03 0.  0.
         23    2    1    2    0    0  0.11112000789E+03 -0.50463704146E+01 -0.37414552735E+02  0.14945637221E+03  0.92543159829E+02 0.  0.
          5    1    3    3  502    0 -0.12297355751E+03 -0.16027872331E+02  0.10642452798E+03  0.16347183578E+03  0.41800000000E+01 0.  1.
         -5    1    3    3    0  502  0.11853549615E+02  0.21074242746E+02 -0.13489021373E+02  0.28001007899E+02  0.41800000000E+01 0.  1.
        -11    1    4    4    0    0  0.46903181518E+02 -0.89489422999E+01 -0.63995488700E+02  0.79846193264E+02  0.00000000000E+00 0. -1.
         11    1    4    4    0    0  0.64216826372E+02  0.39025718853E+01  0.26580935966E+02  0.69610178950E+02  0.00000000000E+00 0.  1.
</event>
<event>
 7    1  0.6849590E-009  0.1346608E+03  0.7561462E-02  0.1220699E+00
         -2   -1    0    0    0  501 -0.00000000000E+00  0.00000000000E+00  0.25375029042E+02  0.25375029042E+02  0.00000000000E+00 0.  1.
          2   -1    0    0  501    0  0.00000000000E+00 -0.00000000000E+00 -0.76189003970E+03  0.76189003970E+03  0.00000000000E+00 0. -1.
         23    2    1    2    0    0  0.31439059069E+02 -0.76513517458E+02 -0.34439492054E+03  0.36747796247E+03  0.97925782171E+02 0.  0.
          5    1    1    2  502    0 -0.44820438246E+02  0.10609020747E+03 -0.33044744770E+03  0.34996712974E+03  0.41800000000E+01 0. -1.
         -5    1    1    2    0  502  0.13381379177E+02 -0.29576690015E+02 -0.61672642407E+02  0.69819976529E+02  0.41800000000E+01 0. -1.
        -11    1    3    3    0    0 -0.29438330068E+02 -0.42230356124E+02 -0.20743087424E+03  0.21372315234E+03  0.00000000000E+00 0. -1.
         11    1    3    3    0    0  0.60877389137E+02 -0.34283161334E+02 -0.13696404630E+03  0.15375481013E+03  0.00000000000E+00 0.  1.
</event>
<event>
 8    1  0.6849590E-009  0.4484838E+03  0.7561462E-02  0.1028175E+00
          1   -1    0    0  501    0  0.00000000000E+00  0.00000000000E+00  0.13785699128E+04  0.13785699128E+04  0.00000000000E+00 0. -1.
         -1   -1    0    0    0  501 -0.00000000000E+00 -0.00000000000E+00 -0.14871957781E+03  0.14871957781E+03  0.00000000000E+00 0.  1.
         25    2    1    2    0    0 -0.42014424838E+03 -0.12844602797E+03  0.60308808515E+03  0.75655331850E+03  0.12505244398E+03 0.  0.
         23    2    1    2    0    0  0.42014424838E+03  0.12844602797E+03  0.62676224985E+03  0.77073617211E+03  0.90464123393E+02 0.  0.
          5    1    3    3  502    0 -0.40312928251E+03 -0.99071997693E+02  0.58644890150E+03  0.71851810389E+03  0.41800000000E+01 0. -1.
         -5    1    3    3    0  502 -0.17014965868E+02 -0.29374030279E+02  0.16639183644E+02  0.38035214613E+02  0.41800000000E+01 0. -1.
        -11    1    4    4    0    0  0.10638796228E+03 -0.53589922037E+01  0.17106791635E+03  0.20152257769E+03  0.00000000000E+00 0. -1.
         11    1    4    4    0    0  0.31375628610E+03  0.13380502018E+03  0.45569433350E+03  0.56921359442E+03  0.00000000000E+00 0.  1.
</event>
<event>
 8    1  0.6849590E-009  0.3197910E+03  0.7561462E-02  0.1075746E+00
         -1   -1    0    0    0  501 -0.00000000000E+00  0.00000000000E+00  0.26639508624E+03  0.26639508624E+03  0.00000000000E+00 0.  1.
          1   -1    0    0  501    0  0.00000000000E+00 -0.00000000000E+00 -0.39950614100E+03  0.39950614100E+03  0.00000000000E+00 0. -1.
         25    2    1    2    0    0  0.27616151047E+03  0.13378683746E+03 -0.84125036590E+02  0.34189018916E+03  0.12509109449E+03 0.  0.
         23    2    1    2    0    0 -0.27616151047E+03 -0.13378683746E+03 -0.48986018170E+02  0.32401103808E+03  0.91757425223E+02 0.  0.
          5    1    3    3  502    0  0.28592271929E+03  0.14071351693E+03 -0.81060514245E+02  0.32884703834E+03  0.41800000000E+01 0.  1.
         -5    1    3    3    0  502 -0.97612088230E+01 -0.69266794691E+01 -0.30645223452E+01  0.13043150822E+02  0.41800000000E+01 0.  1.
        -11    1    4    4    0    0 -0.16355968971E+02 -0.16223971983E+02  0.20124240742E+02  0.30589541568E+02  0.00000000000E+00 0.  1.
         11    1    4    4    0    0 -0.25980554150E+03 -0.11756286547E+03 -0.69110258912E+02  0.29342149652E+03  0.00000000000E+00 0. -1.
</event>
<event>
 8    1  0.6849590E-009  0.1602374E+03  0.7561462E-02  0.1188429E+00
          2   -1    0    0  501    0  0.00000000000E+00  0.00000000000E+00  0.38848142593E+03  0.38848142593E+03  0.00000000000E+00 0. -1.
         -2   -1    0    0    0  501 -0.00000000000E+00 -0.00000000000E+00 -0.72654897271E+02  0.72654897271E+02  0.00000000000E+00 0.  1.
         25    2    1    2    0    0  0.13852824141E+02 -0.12726114438E+03  0.18294571326E+03  0.25593699140E+03  0.12508920802E+03 0.  0.
         23    2    1    2    0    0 -0.13852824141E+02  0.12726114438E+03  0.13288081539E+03  0.20519933179E+03  0.89789504188E+02 0.  0.
          5    1    3    3  502    0 -0.50703712275E+02 -0.89708834662E+02  0.92199606600E+02  0.13833575573E+03  0.41800000000E+01 0.  1.
         -5    1    3    3    0  502  0.64556536416E+02 -0.37552309718E+02  0.90746106660E+02  0.11760123568E+03  0.41800000000E+01 0.  1.
        -11    1    4    4    0    0  0.21967354354E+02  0.20936681414E+02  0.70669763456E+02  0.76909848218E+02  0.00000000000E+00 0. -1.
         11    1    4    4    0    0 -0.35820178495E+02  0.10632446297E+03  0.62211051939E+02  0.12828948357E+03  0.00000000000E+00 0.  1.
</event>
<event>
 8    1  0.6849590E-009  0.8019385E+02  0.7561462E-02  0.1328502E+00
         -1   -1    0    0    0  501 -0.00000000000E+00  0.00000000000E+00  0.41228129429E+02  0.41228129429E+02  0.00000000000E+00 0.  1.
          1   -1    0    0  501    0  0.00000000000E+00 -0.00000000000E+00 -0.35037363453E+03  0.35037363453E+03  0.00000000000E+00 0. -1.
         25    2    1    2    0    0  0.43133301832E+02  0.10153791800E+02 -0.13045614948E+03  0.18609344175E+03  0.12509348868E+03 0.  0.
         23    2    1    2    0    0 -0.43133301832E+02 -0.10153791800E+02 -0.17868935562E+03  0.20550832220E+03  0.91324714447E+02 0.  0.
          5    1    3    3  502    0  0.55837624545E+02  0.22262145504E+02 -0.14869427324E+03  0.16043971681E+03  0.41800000000E+01 0.  1.
         -5    1    3    3    0  502 -0.12704322713E+02 -0.12108353703E+02  0.18238123758E+02  0.25653724938E+02  0.41800000000E+01 0.  1.
        -11    1    4    4    0    0 -0.13392305494E+02 -0.38647327342E+02 -0.14958301434E+03  0.15507433036E+03  0.00000000000E+00 0. -1.
         11    1    4    4    0    0 -0.29740996338E+02  0.28493535541E+02 -0.29106341278E+02  0.50433991845E+02  0.00000000000E+00 0.  1.
</event>
<event>
 8    1  0.6849590E-009  0.7223272E+02  0.7561462E-02  0.1352661E+00
         -2   -1    0    0    0  501 -0.00000000000E+00  0.00000000000E+00  0.19372358456E+03  0.19372358456E+03  0.00000000000E+00 0.  1.
          2   -1    0    0  501    0  0.00000000000E+00 -0.00000000000E+00 -0.74378113583E+02  0.74378113583E+02  0.00000000000E+00 0. -1.
         25    2    1    2    0    0 -0.17363699848E+01  0.36485861967E+02  0.11725722890E+02  0.13084228974E+03  0.12509188264E+03 0.  0.
         23    2    1    2    0    0  0.17363699848E+01 -0.36485861967E+02  0.10761974809E+03  0.13725940841E+03  0.76966888427E+02 0.  0.
          5    1    3    3  502    0  0.23305770885E+01  0.47399833611E+02  0.62497146480E+02  0.78584613851E+02  0.41800000000E+01 0.  1.
         -5    1    3    3    0  502 -0.40669470732E+01 -0.10913971644E+02 -0.50771423590E+02  0.52257675885E+02  0.41800000000E+01 0.  1.
        -11    1    4    4    0    0 -0.32923803564E+02 -0.37336647294E+02  0.54359491941E+02  0.73708591333E+02  0.00000000000E+00 0. -1.
         11    1    4    4    0    0  0.34660173549E+02  0.85078532657E+00  0.53260256152E+02  0.63550817079E+02  0.00000000000E+00 0.  1.
</event>
<event>
 8    1  0.6849590E-009  0.1019894E+03  0.7561462E-02  0.1276167E+00
         -1   -1    0    0    0  501 -0.00000000000E+00  0.00000000000E+00  0.48128259781E+03  0.48128259781E+03  0.00000000000E+00 0.  1.
          1   -1    0    0  501    0  0.00000000000E+00 -0.00000000000E+00 -0.29382588173E+02  0.29382588173E+02  0.00000000000E+00 0. -1.
         25    2    1    2    0    0 -0.26301972268E+02  0.12297179597E+02  0.24712333662E+03  0.27849936901E+03  0.12509572600E+03 0.  0.
         23    2    1    2    0    0  0.26301972268E+02 -0.12297179597E+02  0.20477667301E+03  0.23216581697E+03  0.10547258596E+03 0.  0.
          5    1    3    3  502    0  0.35255003266E+02 -0.63873922855E+01  0.17680135165E+02  0.40171801241E+02  0.41800000000E+01 0.  1.
         -5    1    3    3    0  502 -0.61556975534E+02  0.18684571883E+02  0.22944320146E+03  0.23832756777E+03  0.41800000000E+01 0.  1.
        -11    1    4    4    0    0 -0.51279211860E+01 -0.52309686657E+02  0.66102323882E+02  0.84451856797E+02  0.00000000000E+00 0. -1.
         11    1    4    4    0    0  0.31429893454E+02  0.40012507060E+02  0.13867434913E+03  0.14771396017E+03  0.00000000000E+00 0.  1.
</event>
<event>
 8    1  0.6849590E-009  0.1026539E+03  0.7561462E-02  0.1274812E+00
         -1   -1    0    0    0  501 -0.00000000000E+00  0.00000000000E+00  0.11094923958E+04  0.11094923958E+04  0.00000000000E+00 0.  1.
          1   -1    0    0  501    0  0.00000000000E+00 -0.00000000000E+00 -0.14074717864E+02  0.14074717864E+02  0.00000000000E+00 0. -1.
         25    2    1    2    0    0 -0.89217548234E+00  0.52106552128E+01  0.84570252481E+03  0.85492023918E+03  0.12509159842E+03 0.  0.
         23    2    1    2    0    0  0.89217548234E+00 -0.52106552128E+01  0.24971515313E+03  0.26864687448E+03  0.98921881105E+02 0.  0.
          5    1    3    3  502    0 -0.59346558958E+02  0.85537515807E+01  0.29245918248E+03  0.29857164390E+03  0.41800000000E+01 0. -1.
         -5    1    3    3    0  502  0.58454383476E+02 -0.33430963679E+01  0.55324334233E+03  0.55634859528E+03  0.41800000000E+01 0. -1.
        -11    1    4    4    0    0 -0.43072349084E+01 -0.45588887940E+02  0.65074968239E+02  0.79571668748E+02  0.00000000000E+00 0. -1.
         11    1    4    4    0    0  0.51994103907E+01  0.40378232727E+02  0.18464018489E+03  0.18907520573E+03  0.00000000000E+00 0.  1.
</event>
<event>
 8    1  0.6849590E-009  0.1020145E+03  0.7561462E-02  0.1276116E+00
         -1   -1    0    0    0  501 -0.00000000000E+00  0.00000000000E+00  0.25257588124E+03  0.25257588124E+03  0.00000000000E+00 0.  1.
          1   -1    0    0  501    0  0.00000000000E+00 -0.00000000000E+00 -0.53966711278E+02  0.53966711278E+02  0.00000000000E+00 0. -1.
         25    2    1    2    0    0  0.39666250085E+02 -0.21522886405E+02  0.11498925377E+03  0.17580362533E+03  0.12509092757E+03 0.  0.
         23    2    1    2    0    0 -0.39666250085E+02  0.21522886405E+02  0.83619916190E+02  0.13073896719E+03  0.89798335859E+02 0.  0.
          5    1    3    3  502    0  0.16422996745E+02  0.40554059783E+02  0.97762911864E+02  0.10718864643E+03  0.41800000000E+01 0. -1.
         -5    1    3    3    0  502  0.23243253340E+02 -0.62076946188E+02  0.17226341906E+02  0.68614978899E+02  0.41800000000E+01 0. -1.
        -11    1    4    4    0    0  0.24124019688E+02 -0.48939774055E+01  0.33213378365E+01  0.24838490812E+02  0.00000000000E+00 0. -1.
         11    1    4    4    0    0 -0.63790269774E+02  0.26416863810E+02  0.80298578354E+02  0.10590047638E+03  0.00000000000E+00 0.  1.
</event>
<event>
 8    1  0.6849590E-009  0.1179780E+03  0.7561462E-02  0.1246471E+00
         -1   -1    0    0    0  501 -0.00000000000E+00  0.00000000000E+00  0.21013897803E+04  0.21013897803E+04  0.00000000000E+00 0.  1.
          1   -1    0    0  501    0  0.00000000000E+00 -0.00000000000E+00 -0.13694762018E+02  0.13694762018E+02  0.00000000000E+00 0. -1.
         25    2    1    2    0    0 -0.81910729229E+02  0.26685790343E+02  0.16917740953E+04  0.16985783296E+04  0.12508898271E+03 0.  0.
         23    2    1    2    0    0  0.81910729229E+02 -0.26685790343E+02  0.39592092302E+03  0.41650621266E+03  0.96449722319E+02 0.  0.
          5    1    3    3  502    0 -0.88710951679E+02  0.36980696185E+02  0.16727931696E+04  0.16755571210E+04  0.41800000000E+01 0.  1.
         -5    1    3    3    0  502  0.68002224503E+01 -0.10294905842E+02  0.18980925614E+02  0.23021208675E+02  0.41800000000E+01 0.  1.
        -11    1    4    4    0    0  0.10015691212E+03 -0.77883545070E+01  0.34324195204E+03  0.35764102555E+03  0.00000000000E+00 0.  1.
         11    1    4    4    0    0 -0.18246182894E+02 -0.18897435836E+02  0.52678970976E+02  0.58865187119E+02  0.00000000000E+00 0. -1.
</event>
<event>
 8    1  0.6849590E-009  0.7728092E+02  0.7561462E-02  0.1336950E+00
         -1   -1    0    0    0  501 -0.00000000000E+00  0.00000000000E+00  0.45308844987E+03  0.45308844987E+03  0.00000000000E+00 0.  1.
          1   -1    0    0  501    0  0.00000000000E+00 -0.00000000000E+00 -0.38956484101E+02  0.38956484101E+02  0.00000000000E+00 0. -1.
         25    2    1    2    0    0 -0.62233007831E+02  0.36545358572E+02  0.23013788703E+03  0.27169516058E+03  0.12508518194E+03 0.  0.
         23    2    1    2    0    0  0.62233007831E+02 -0.36545358572E+02  0.18399407874E+03  0.22034977339E+03  0.97425310491E+02 0.  0.
          5    1    3    3  502    0 -0.17806476688E+02  0.31006808056E+02  0.22333562448E+03  0.22621840402E+03  0.41800000000E+01 0.  1.
         -5    1    3    3    0  502 -0.44426531143E+02  0.55385505163E+01  0.68022625481E+01  0.45476756557E+02  0.41800000000E+01 0.  1.
        -11    1    4    4    0    0  0.45811687334E+02 -0.33839170967E+02  0.19313790074E+03  0.20136049486E+03  0.00000000000E+00 0.  1.
         11    1    4    4    0    0  0.16421320496E+02 -0.27061876054E+01 -0.91438220007E+01  0.18989278527E+02  0.00000000000E+00 0. -1.
</event>
<event>
 8    1  0.6849590E-009  0.9247186E+02  0.7561462E-02  0.1296974E+00
          1   -1    0    0  501    0  0.00000000000E+00  0.00000000000E+00  0.24612628492E+03  0.24612628492E+03  0.00000000000E+00 0. -1.
         -1   -1    0    0    0  501 -0.00000000000E+00 -0.00000000000E+00 -0.54365546057E+02  0.54365546057E+02  0.00000000000E+00 0.  1.
         25    2    1    2    0    0 -0.31875209958E+02 -0.17987040109E+02  0.12879221492E+03  0.18324093358E+03  0.12510092923E+03 0.  0.
         23    2    1    2    0    0  0.31875209958E+02  0.17987040109E+02  0.62968523940E+02  0.11725089739E+03  0.91886752637E+02 0.  0.
          5    1    3    3  502    0 -0.61619039416E+02 -0.91890969677E+01  0.13642458148E+02  0.63913492988E+02  0.41800000000E+01 0.  1.
         -5    1    3    3    0  502  0.29743829458E+02 -0.87979431414E+01  0.11514975677E+03  0.11932744060E+03  0.41800000000E+01 0.  1.
        -11    1    4    4    0    0  0.23953076390E+02  0.51484370957E+02  0.60142931499E+02  0.82713738464E+02  0.00000000000E+00 0. -1.
         11    1    4    4    0    0  0.79221335679E+01 -0.33497330848E+02  0.28255924411E+01  0.34537158928E+02  0.00000000000E+00 0.  1.
</event>
<event>
 8    1  0.6849590E-009  0.1369303E+03  0.7561462E-02  0.1217520E+00
          2   -1    0    0  501    0  0.00000000000E+00  0.00000000000E+00  0.94507292296E+03  0.94507292296E+03  0.00000000000E+00 0. -1.
         -2   -1    0    0    0  501 -0.00000000000E+00 -0.00000000000E+00 -0.25162149108E+02  0.25162149108E+02  0.00000000000E+00 0.  1.
         25    2    1    2    0    0 -0.32598424420E+01 -0.85695910087E+02  0.31419689470E+03  0.34888838396E+03  0.12509596412E+03 0.  0.
         23    2    1    2    0    0  0.32598424420E+01  0.85695910087E+02  0.60571387915E+03  0.62134668811E+03  0.10875655316E+03 0.  0.
          5    1    3    3  502    0 -0.39065242977E+02 -0.97324293332E+02  0.27515158795E+03  0.29448935470E+03  0.41800000000E+01 0.  1.
         -5    1    3    3    0  502  0.35805400535E+02  0.11628383244E+02  0.39045306753E+02  0.54399029254E+02  0.41800000000E+01 0.  1.
        -11    1    4    4    0    0  0.50814513459E+02  0.52282680909E+02  0.43354362946E+03  0.43963129114E+03  0.00000000000E+00 0. -1.
         11    1    4    4    0    0 -0.47554671018E+02  0.33413229178E+02  0.17217024969E+03  0.18171539697E+03  0.00000000000E+00 0.  1.
</event>
<event>
 8    1  0.6849590E-009  0.1069083E+03  0.7561462E-02  0.1266405E+00
         -1   -1    0    0    0  501 -0.00000000000E+00  0.00000000000E+00  0.19732955195E+03  0.19732955195E+03  0.00000000000E+00 0.  1.
          1   -1    0    0  501    0  0.00000000000E+00 -0.00000000000E+00 -0.76628783231E+02  0.76628783231E+02  0.00000000000E+00 0. -1.
         25    2    1    2    0    0 -0.23347624154E+02 -0.25857259846E+02  0.11989854426E+03  0.17673745872E+03  0.12508700555E+03 0.  0.
         23    2    1    2    0    0  0.23347624154E+02  0.25857259846E+02  0.80222446093E+00  0.97220876464E+02  0.90760926703E+02 0.  0.
          5    1    3    3  502    0 -0.44153607602E+02 -0.67793553601E+02  0.61141389382E+02  0.10149506820E+03  0.41800000000E+01 0.  1.
         -5    1    3    3    0  502  0.20805983448E+02  0.41936293755E+02  0.58757154876E+02  0.75242390514E+02  0.41800000000E+01 0.  1.
        -11    1    4    4    0    0  0.17933126262E+02 -0.27140790896E+02  0.22652274318E+02  0.39640195254E+02  0.00000000000E+00 0.  1.
         11    1    4    4    0    0  0.54144978913E+01  0.52998050742E+02 -0.21850049857E+02  0.57580681210E+02  0.00000000000E+00 0. -1.
</event>
<event>
 8    1  0.6849590E-009  0.1395167E+03  0.7561462E-02  0.1213981E+00
          2   -1    0    0  501    0  0.00000000000E+00  0.00000000000E+00  0.32834686922E+03  0.32834686922E+03  0.00000000000E+00 0.  1.
         -2   -1    0    0    0  501 -0.00000000000E+00 -0.00000000000E+00 -0.88310792066E+02  0.88310792066E+02  0.00000000000E+00 0. -1.
         25    2    1    2    0    0 -0.11773361918E+02 -0.97715061835E+02  0.24248744635E+03  0.29006127639E+03  0.12509411282E+03 0.  0.
         23    2    1    2    0    0  0.11773361918E+02  0.97715061835E+02 -0.24513691970E+01  0.12659638490E+03  0.79585112286E+02 0.  0.
          5    1    3    3  502    0 -0.51818809161E+02 -0.10332696843E+03  0.15326195285E+03  0.19201132774E+03  0.41800000000E+01 0.  1.
         -5    1    3    3    0  502  0.40045447243E+02  0.56119065933E+01  0.89225493494E+02  0.98049948648E+02  0.41800000000E+01 0.  1.
        -11    1    4    4    0    0  0.43000060758E+02  0.57249643294E+02  0.13889768608E+02  0.72934577222E+02  0.00000000000E+00 0.  1.
         11    1    4    4    0    0 -0.31226698840E+02  0.40465418541E+02 -0.16341137805E+02  0.53661807675E+02  0.00000000000E+00 0. -1.
</event>
<event>
 7    1  0.6849590E-009  0.1647032E+03  0.7561462E-02  0.1183487E+00
          1   -1    0    0  501    0  0.00000000000E+00  0.00000000000E+00  0.42470357950E+03  0.42470357950E+03  0.00000000000E+00 0. -1.
         -1   -1    0    0    0  501 -0.00000000000E+00 -0.00000000000E+00 -0.10007496165E+03  0.10007496165E+03  0.00000000000E+00 0.  1.
         23    2    1    2    0    0 -0.13262949277E+03  0.71849247104E+02  0.39984196907E+02  0.17910237460E+03  0.87897826613E+02 0.  0.
          5    1    1    2  502    0  0.80816899168E+02 -0.67235334231E+02  0.73912230700E+02  0.12857858145E+03  0.41800000000E+01 0.  1.
         -5    1    1    2    0  502  0.51812593606E+02 -0.46139128721E+01  0.21073219024E+03  0.21709758509E+03  0.41800000000E+01 0.  1.
        -11    1    3    3    0    0 -0.84820600082E+02 -0.10554443672E+01  0.44112935672E+01  0.84941789904E+02  0.00000000000E+00 0.  1.
         11    1    3    3    0    0 -0.47808892691E+02  0.72904691471E+02  0.35572903340E+02  0.94160584699E+02  0.00000000000E+00 0. -1.
</event>
<event>
 8    1  0.6849590E-009  0.8401442E+02  0.7561462E-02  0.1318030E+00
         -2   -1    0    0    0  501 -0.00000000000E+00  0.00000000000E+00  0.21907764873E+02  0.21907764873E+02  0.00000000000E+00 0. -1.
          2   -1    0    0  501    0  0.00000000000E+00 -0.00000000000E+00 -0.11266848104E+04  0.11266848104E+04  0.00000000000E+00 0.  1.
         25    2    1    2    0    0 -0.32532287029E+00 -0.26635855019E+02 -0.99563564133E+03  0.10038166140E+04  0.12509152534E+03 0.  0.
         23    2    1    2    0    0  0.32532287029E+00  0.26635855019E+02 -0.10914140416E+03  0.14477596120E+03  0.91316253934E+02 0.  0.
          5    1    3    3  502    0  0.48256882931E+02 -0.91882867330E+01 -0.79756356969E+03  0.79908589742E+03  0.41800000000E+01 0. -1.
         -5    1    3    3    0  502 -0.48582205802E+02 -0.17447568286E+02 -0.19807207164E+03  0.20473071661E+03  0.41800000000E+01 0. -1.
        -11    1    4    4    0    0 -0.25102214128E+02  0.32280306222E+02 -0.97632542649E+01  0.42041175742E+02  0.00000000000E+00 0. -1.
         11    1    4    4    0    0  0.25427536999E+02 -0.56444512024E+01 -0.99378149893E+02  0.10273478546E+03  0.00000000000E+00 0.  1.
</event>
<event>
 8    1  0.6849590E-009  0.1709777E+03  0.7561462E-02  0.1176832E+00
         -2   -1    0    0    0  501 -0.00000000000E+00  0.00000000000E+00  0.38279650648E+02  0.38279650648E+02  0.00000000000E+00 0.  1.
          2   -1    0    0  501    0  0.00000000000E+00 -0.00000000000E+00 -0.81543937162E+03  0.81543937162E+03  0.00000000000E+00 0. -1.
         25    2    1    2    0    0  0.89555358217E+01 -0.13338261777E+03 -0.50785253067E+03  0.53984747626E+03  0.12509988159E+03 0.  0.
         23    2    1    2    0    0 -0.89555358217E+01  0.13338261777E+03 -0.26930719030E+03  0.31387154601E+03  0.90099169251E+02 0.  0.
          5    1    3    3  502    0  0.61509460223E+02 -0.36013983699E+02 -0.22667664736E+03  0.23765562391E+03  0.41800000000E+01 0.  1.
         -5    1    3    3    0  502 -0.52553924401E+02 -0.97368634071E+02 -0.28117588330E+03  0.30219185234E+03  0.41800000000E+01 0.  1.
        -11    1    4    4    0    0  0.12457481842E+02 -0.93026876413E+01 -0.40381004456E+02  0.43270710325E+02  0.00000000000E+00 0.  1.
         11    1    4    4    0    0 -0.21413017664E+02  0.14268530541E+03 -0.22892618585E+03  0.27060083568E+03  0.00000000000E+00 0. -1.
</event>
<event>
 8    1  0.6849590E-009  0.9636325E+02  0.7561462E-02  0.1288135E+00
         -2   -1    0    0    0  501 -0.00000000000E+00  0.00000000000E+00  0.15262877498E+03  0.15262877498E+03  0.00000000000E+00 0.  1.
          2   -1    0    0  501    0  0.00000000000E+00 -0.00000000000E+00 -0.10600992823E+03  0.10600992823E+03  0.00000000000E+00 0. -1.
         25    2    1    2    0    0 -0.30939214938E+02 -0.42558368797E+02  0.17772884455E+02  0.13687112561E+03  0.12509748130E+03 0.  0.
         23    2    1    2    0    0  0.30939214938E+02  0.42558368797E+02  0.28845962293E+02  0.12176757760E+03  0.10595661206E+03 0.  0.
          5    1    3    3  502    0  0.14290183093E+02 -0.38225939185E+02 -0.43945596284E+02  0.60117548122E+02  0.41800000000E+01 0. -1.
         -5    1    3    3    0  502 -0.45229398031E+02 -0.43324296116E+01  0.61718480739E+02  0.76753577489E+02  0.41800000000E+01 0. -1.
        -11    1    4    4    0    0 -0.14378683101E+02 -0.22552166906E+02  0.32821406378E+02  0.42339006560E+02  0.00000000000E+00 0.  1.
         11    1    4    4    0    0  0.45317898039E+02  0.65110535703E+02 -0.39754440850E+01  0.79428571042E+02  0.00000000000E+00 0. -1.
</event>
<event>
 8    1  0.6849590E-009  0.1399331E+03  0.7561462E-02  0.1213419E+00
          1   -1    0    0  501    0  0.00000000000E+00  0.00000000000E+00  0.41164449124E+03  0.41164449124E+03  0.00000000000E+00 0. -1.
         -1   -1    0    0    0  501 -0.00000000000E+00 -0.00000000000E+00 -0.61808087470E+02  0.61808087470E+02  0.00000000000E+00 0.  1.
         25    2    1    2    0    0  0.35867824285E+02  0.10448285026E+03  0.12985270763E+03  0.21145450037E+03  0.12509241875E+03 0.  0.
         23    2    1    2    0    0 -0.35867824285E+02 -0.10448285026E+03  0.21998369613E+03  0.26199807834E+03  0.89705070485E+02 0.  0.
          5    1    3    3  502    0 -0.31235028920E+02  0.86845067911E+01 -0.48100697551E+01  0.33040230945E+02  0.41800000000E+01 0.  1.
         -5    1    3    3    0  502  0.67102853205E+02  0.95798343469E+02  0.13466277739E+03  0.17841426942E+03  0.41800000000E+01 0.  1.
        -11    1    4    4    0    0  0.20643737078E+02 -0.22133513336E+02  0.14569375569E+02  0.33590519461E+02  0.00000000000E+00 0.  1.
         11    1    4    4    0    0 -0.56511561363E+02 -0.82349336924E+02  0.20541432056E+03  0.22840755888E+03  0.00000000000E+00 0. -1.
</event>
<event>
 8    1  0.6849590E-009  0.6171148E+02  0.7561462E-02  0.1390787E+00
          2   -1    0    0  501    0  0.00000000000E+00  0.00000000000E+00  0.57303951066E+02  0.57303951066E+02  0.00000000000E+00 0.  1.
         -2   -1    0    0    0  501 -0.00000000000E+00 -0.00000000000E+00 -0.33286524850E+03  0.33286524850E+03  0.00000000000E+00 0. -1.
         25    2    1    2    0    0  0.20000010831E+02 -0.14554151617E+02 -0.26746996980E+03  0.29631335699E+03  0.12509834940E+03 0.  0.
         23    2    1    2    0    0 -0.20000010831E+02  0.14554151617E+02 -0.80913276326E+01  0.93855842573E+02  0.90175527943E+02 0.  0.
          5    1    3    3  502    0  0.16992614332E+02  0.27962714379E+01  0.85672551556E+01  0.19683453373E+02  0.41800000000E+01 0. -1.
         -5    1    3    3    0  502  0.30073964985E+01 -0.17350423055E+02 -0.27603722496E+03  0.27662990362E+03  0.41800000000E+01 0. -1.
        -11    1    4    4    0    0  0.32968788990E+02  0.12655695698E+01 -0.19134570042E+02  0.38140195129E+02  0.00000000000E+00 0. -1.
         11    1    4    4    0    0 -0.52968799820E+02  0.13288582047E+02  0.11043242410E+02  0.55715647444E+02  0.00000000000E+00 0.  1.
</event>
<event>
 8    1  0.6849590E-009  0.3018281E+03  0.7561462E-02  0.1084330E+00
         -1   -1    0    0    0  501 -0.00000000000E+00  0.00000000000E+00  0.12342611471E+03  0.12342611471E+03  0.00000000000E+00 0.  1.
          1   -1    0    0  501    0  0.00000000000E+00 -0.00000000000E+00 -0.80407346346E+03  0.80407346346E+03  0.00000000000E+00 0. -1.
         25    2    1    2    0    0 -0.21767757943E+03  0.19244912455E+03 -0.42476686832E+03  0.52961750672E+03  0.12509043480E+03 0.  0.
         23    2    1    2    0    0  0.21767757943E+03 -0.19244912455E+03 -0.25588048043E+03  0.39788207144E+03  0.91734008858E+02 0.  0.
          5    1    3    3  502    0 -0.13590496854E+03  0.46652396228E+02 -0.14844588673E+03  0.20664041287E+03  0.41800000000E+01 0. -1.
         -5    1    3    3    0  502 -0.81772610894E+02  0.14579672832E+03 -0.27632098159E+03  0.32297709385E+03  0.41800000000E+01 0. -1.
        -11    1    4    4    0    0  0.93927014694E+02 -0.10660550096E+03 -0.69244221353E+02  0.15805625301E+03  0.00000000000E+00 0.  1.
         11    1    4    4    0    0  0.12375056474E+03 -0.85843623590E+02 -0.18663625908E+03  0.23982581843E+03  0.00000000000E+00 0. -1.
</event>
<event>
 8    1  0.6849590E-009  0.7825538E+02  0.7561462E-02  0.1334077E+00
          1   -1    0    0  501    0  0.00000000000E+00  0.00000000000E+00  0.20220751446E+03  0.20220751446E+03  0.00000000000E+00 0. -1.
         -1   -1    0    0    0  501 -0.00000000000E+00 -0.00000000000E+00 -0.66809905595E+02  0.66809905595E+02  0.00000000000E+00 0.  1.
         25    2    1    2    0    0 -0.14699292758E+02 -0.22041985816E+02  0.41116886373E+02  0.13431533440E+03  0.12509233536E+03 0.  0.
         23    2    1    2    0    0  0.14699292758E+02  0.22041985816E+02  0.94280722494E+02  0.13470208565E+03  0.92487182350E+02 0.  0.
          5    1    3    3  502    0  0.20452643595E+02 -0.41250342424E+01 -0.39273277950E+02  0.44667541889E+02  0.41800000000E+01 0.  1.
         -5    1    3    3    0  502 -0.35151936352E+02 -0.17916951574E+02  0.80390164323E+02  0.89647792515E+02  0.41800000000E+01 0.  1.
        -11    1    4    4    0    0  0.18468345712E+02  0.57245792498E+02  0.66741825777E+02  0.89847826129E+02  0.00000000000E+00 0.  1.
         11    1    4    4    0    0 -0.37690529542E+01 -0.35203806682E+02  0.27538896718E+02  0.44854259525E+02  0.00000000000E+00 0. -1.
</event>
<event>
 8    1  0.6849590E-009  0.1007122E+03  0.7561462E-02  0.1278805E+00
          2   -1    0    0  501    0  0.00000000000E+00  0.00000000000E+00  0.11188361305E+03  0.11188361305E+03  0.00000000000E+00 0. -1.
         -2   -1    0    0    0  501 -0.00000000000E+00 -0.00000000000E+00 -0.18309440402E+03  0.18309440402E+03  0.00000000000E+00 0.  1.
         25    2    1    2    0    0  0.84372420800E+02  0.99178055341E+01 -0.76994112305E+02  0.16968287062E+03  0.12508842869E+03 0.  0.
         23    2    1    2    0    0 -0.84372420800E+02 -0.99178055341E+01  0.57833213388E+01  0.12529514645E+03  0.91914953406E+02 0.  0.
          5    1    3    3  502    0  0.77959990890E+02  0.18233636192E+02  0.11037083475E+02  0.80929075615E+02  0.41800000000E+01 0.  1.
         -5    1    3    3    0  502  0.64124299102E+01 -0.83158306575E+01 -0.88031195780E+02  0.88753795002E+02  0.41800000000E+01 0.  1.
        -11    1    4    4    0    0 -0.10218772709E+02 -0.31176393138E+02 -0.26001743710E+02  0.41862650188E+02  0.00000000000E+00 0.  1.
         11    1    4    4    0    0 -0.74153648091E+02  0.21258587604E+02  0.31785065049E+02  0.83432496261E+02  0.00000000000E+00 0. -1.
</event>
<event>
 8    1  0.6849590E-009  0.1118101E+03  0.7561462E-02  0.1257254E+00
          2   -1    0    0  501    0  0.00000000000E+00  0.00000000000E+00  0.88854106981E+03  0.88854106981E+03  0.00000000000E+00 0. -1.
         -2   -1    0    0    0  501 -0.00000000000E+00 -0.00000000000E+00 -0.20934105459E+02  0.20934105459E+02  0.00000000000E+00 0.  1.
         25    2    1    2    0    0 -0.15628011914E+02 -0.50056993750E+02  0.68720937559E+03  0.70046394483E+03  0.12507227801E+03 0.  0.
         23    2    1    2    0    0  0.15628011914E+02  0.50056993750E+02  0.18039758876E+03  0.20901123044E+03  0.91610409016E+02 0.  0.
          5    1    3    3  502    0  0.43970948930E+02  0.28097079509E+01  0.12460819558E+03  0.13223469142E+03  0.41800000000E+01 0. -1.
         -5    1    3    3    0  502 -0.59598960845E+02 -0.52866701701E+02  0.56260118001E+03  0.56822925341E+03  0.41800000000E+01 0. -1.
        -11    1    4    4    0    0 -0.10657659525E+02  0.67306102629E+02  0.87295186308E+02  0.11074360799E+03  0.00000000000E+00 0.  1.
         11    1    4    4    0    0  0.26285671439E+02 -0.17249108879E+02  0.93102402450E+02  0.98267622450E+02  0.00000000000E+00 0. -1.
</event>
<event>
 8    1  0.6849590E-009  0.1156861E+03  0.7561462E-02  0.1250388E+00
          2   -1    0    0  501    0  0.00000000000E+00  0.00000000000E+00  0.87269060385E+03  0.87269060385E+03  0.00000000000E+00 0.  1.
         -2   -1    0    0    0  501 -0.00000000000E+00 -0.00000000000E+00 -0.18155490917E+02  0.18155490917E+02  0.00000000000E+00 0. -1.
         25    2    1    2    0    0 -0.58282737296E+02 -0.67847172938E+01  0.40352098115E+03  0.42652026042E+03  0.12508972967E+03 0.  0.
         23    2    1    2    0    0  0.58282737296E+02  0.67847172938E+01  0.45101413179E+03  0.46432583435E+03  0.93497719301E+02 0.  0.
          5    1    3    3  502    0 -0.89473362779E+02 -0.15535968839E+01  0.18351489809E+03  0.20421333583E+03  0.41800000000E+01 0.  1.
         -5    1    3    3    0  502  0.31190625483E+02 -0.52311204099E+01  0.22000608306E+03  0.22230692459E+03  0.41800000000E+01 0.  1.
        -11    1    4    4    0    0  0.56375544076E+02 -0.36110432640E+02  0.29583950742E+03  0.30332025891E+03  0.00000000000E+00 0. -1.
         11    1    4    4    0    0  0.19071932198E+01  0.42895149934E+02  0.15517462437E+03  0.16100557543E+03  0.00000000000E+00 0.  1.
</event>
<event>
 8    1  0.6849590E-009  0.3771968E+03  0.7561462E-02  0.1051975E+00
         -2   -1    0    0    0  501 -0.00000000000E+00  0.00000000000E+00  0.44378263407E+03  0.44378263407E+03  0.00000000000E+00 0. -1.
          2   -1    0    0  501    0  0.00000000000E+00 -0.00000000000E+00 -0.34877061510E+03  0.34877061510E+03  0.00000000000E+00 0.  1.
         25    2    1    2    0    0  0.32894195054E+03 -0.15072874771E+03  0.15662951737E+03  0.41364343224E+03  0.12508445593E+03 0.  0.
         23    2    1    2    0    0 -0.32894195054E+03  0.15072874771E+03 -0.61617498406E+02  0.37890981693E+03  0.94095542136E+02 0.  0.
          5    1    3    3  502    0  0.22832865071E+03 -0.16267734931E+03  0.12836609602E+03  0.30837188542E+03  0.41800000000E+01 0. -1.
         -5    1    3    3    0  502  0.10061329983E+03  0.11948601600E+02  0.28263421344E+02  0.10527154681E+03  0.41800000000E+01 0. -1.
        -11    1    4    4    0    0 -0.19786997742E+03  0.41941418238E+02 -0.48936484482E+02  0.20810187419E+03  0.00000000000E+00 0. -1.
         11    1    4    4    0    0 -0.13107197312E+03  0.10878732947E+03 -0.12681013924E+02  0.17080794274E+03  0.00000000000E+00 0.  1.
</event>
<event>
 8    1  0.6849590E-009  0.1681068E+03  0.7561462E-02  0.1179837E+00
          2   -1    0    0  501    0  0.00000000000E+00  0.00000000000E+00  0.25601060924E+04  0.25601060924E+04  0.00000000000E+00 0. -1.
         -2   -1    0    0    0  501 -0.00000000000E+00 -0.00000000000E+00 -0.16170317825E+02  0.16170317825E+02  0.00000000000E+00 0.  1.
         25    2    1    2    0    0 -0.37043772233E+02 -0.14755045852E+03  0.18335486660E+04  0.18440961625E+04  0.12508623829E+03 0.  0.
         23    2    1    2    0    0  0.37043772233E+02  0.14755045852E+03  0.71038710858E+03  0.73218024775E+03  0.91075201295E+02 0.  0.
          5    1    3    3  502    0 -0.35365213199E+02  0.21044243060E+00  0.70606126801E+03  0.70695878888E+03  0.41800000000E+01 0.  1.
         -5    1    3    3    0  502 -0.16785590336E+01 -0.14776090095E+03  0.11274873980E+04  0.11371373736E+04  0.41800000000E+01 0.  1.
        -11    1    4    4    0    0  0.12672460771E+02  0.27591590580E+02  0.37505751953E+02  0.48255243884E+02  0.00000000000E+00 0.  1.
         11    1    4    4    0    0  0.24371311462E+02  0.11995886794E+03  0.67288135663E+03  0.68392500387E+03  0.00000000000E+00 0. -1.
</event>
<event>
 8    1  0.6849590E-009  0.1004968E+03  0.7561462E-02  0.1279255E+00
          2   -1    0    0  501    0  0.00000000000E+00  0.00000000000E+00  0.76204883939E+03  0.76204883939E+03  0.00000000000E+00 0.  1.
         -2   -1    0    0    0  501 -0.00000000000E+00 -0.00000000000E+00 -0.24542412262E+02  0.24542412262E+02  0.00000000000E+00 0. -1.
         25    2    1    2    0    0 -0.12420662107E+02 -0.58186696063E+01  0.63418689245E+03  0.64654523138E+03  0.12505835398E+03 0.  0.
         23    2    1    2    0    0  0.12420662107E+02  0.58186696063E+01  0.10331953468E+03  0.14004602028E+03  0.93540535521E+02 0.  0.
          5    1    3    3  502    0 -0.59827246520E+02  0.93129890449E+01  0.18755895930E+03  0.19713413404E+03  0.41800000000E+01 0.  1.
         -5    1    3    3    0  502  0.47406584413E+02 -0.15131658651E+02  0.44662793315E+03  0.44941109733E+03  0.41800000000E+01 0.  1.
        -11    1    4    4    0    0 -0.33856504048E+02 -0.17970205956E+02  0.24135539131E+02  0.45295865348E+02  0.00000000000E+00 0.  1.
         11    1    4    4    0    0  0.46277166155E+02  0.23788875563E+02  0.79183995552E+02  0.94750154931E+02  0.00000000000E+00 0. -1.
</event>
<event>
 8    1  0.6849590E-009  0.1705440E+03  0.7561462E-02  0.1177282E+00
         -4   -1    0    0    0  501 -0.00000000000E+00  0.00000000000E+00  0.37808504860E+03  0.37808504860E+03  0.00000000000E+00 0. -1.
          4   -1    0    0  501    0  0.00000000000E+00 -0.00000000000E+00 -0.11919748071E+03  0.11919748071E+03  0.00000000000E+00 0.  1.
         25    2    1    2    0    0 -0.99797272773E+02  0.10187817151E+03  0.17142003348E+00  0.18969777913E+03  0.12508621243E+03 0.  0.
         23    2    1    2    0    0  0.99797272773E+02 -0.10187817151E+03  0.25871614786E+03  0.30758475018E+03  0.85648560373E+02 0.  0.
          5    1    3    3  502    0 -0.12518231833E+03  0.65039201273E+02 -0.15793544023E+02  0.14201274224E+03  0.41800000000E+01 0. -1.
         -5    1    3    3    0  502  0.25385045559E+02  0.36838970239E+02  0.15964964057E+02  0.47685036894E+02  0.41800000000E+01 0. -1.
        -11    1    4    4    0    0  0.73650172736E+02 -0.10545999798E+03  0.15943238449E+03  0.20485322634E+03  0.00000000000E+00 0.  1.
         11    1    4    4    0    0  0.26147100037E+02  0.35818264648E+01  0.99283763368E+02  0.10273152384E+03  0.00000000000E+00 0. -1.
</event>
<event>
 8    1  0.6849590E-009  0.2268747E+03  0.7561462E-02  0.1128859E+00
          2   -1    0    0  501    0  0.00000000000E+00  0.00000000000E+00  0.14652277459E+04  0.14652277459E+04  0.00000000000E+00 0. -1.
         -2   -1    0    0    0  501 -0.00000000000E+00 -0.00000000000E+00 -0.47170415424E+02  0.47170415424E+02  0.00000000000E+00 0.  1.
         25    2    1    2    0    0  0.80057096386E+01 -0.21656433605E+03  0.10190829543E+04  0.10493529068E+04  0.12508897691E+03 0.  0.
         23    2    1    2    0    0 -0.80057096386E+01  0.21656433605E+03  0.39897437611E+03  0.46304525450E+03  0.90918380341E+02 0.  0.
          5    1    3    3  502    0 -0.11458614853E+02 -0.86789240088E+02  0.18161824304E+03  0.20165894638E+03  0.41800000000E+01 0.  1.
         -5    1    3    3    0  502  0.19464324492E+02 -0.12977509597E+03  0.83746471131E+03  0.84769396043E+03  0.41800000000E+01 0.  1.
        -11    1    4    4    0    0  0.36338830598E+02  0.15335031304E+03  0.25874372514E+03  0.30296063179E+03  0.00000000000E+00 0. -1.
         11    1    4    4    0    0 -0.44344540236E+02  0.63214023014E+02  0.14023065098E+03  0.16008462271E+03  0.00000000000E+00 0.  1.
</event>
<event>
 7    1  0.6849590E-009  0.1065244E+03  0.7561462E-02  0.1267145E+00
         -4   -1    0    0    0  501 -0.00000000000E+00  0.00000000000E+00  0.55868308410E+02  0.55868308410E+02  0.00000000000E+00 0. -1.
          4   -1    0    0  501    0  0.00000000000E+00 -0.00000000000E+00 -0.24747943307E+03  0.24747943307E+03  0.00000000000E+00 0.  1.
         23    2    1    2    0    0 -0.78947610430E+01  0.43432248929E+02 -0.96909856836E+02  0.14023504997E+03  0.91245062271E+02 0.  0.
          5    1    1    2  502    0 -0.50460995708E+02 -0.28305153402E+02 -0.83471744974E+02  0.10164889771E+03  0.41800000000E+01 0.  1.
         -5    1    1    2    0  502  0.58355756751E+02 -0.15127095527E+02 -0.11229522852E+02  0.61463793802E+02  0.41800000000E+01 0.  1.
        -11    1    3    3    0    0 -0.34540256447E+02  0.55492024039E+02 -0.41059246747E+02  0.77189738895E+02  0.00000000000E+00 0.  1.
         11    1    3    3    0    0  0.26645495404E+02 -0.12059775110E+02 -0.55850610090E+02  0.63045311074E+02  0.00000000000E+00 0. -1.
</event>
<event>
 8    1  0.6849590E-009  0.1049125E+03  0.7561462E-02  0.1270292E+00
         -1   -1    0    0    0  501 -0.00000000000E+00  0.00000000000E+00  0.51754772015E+02  0.51754772015E+02  0.00000000000E+00 0.  1.
          1   -1    0    0  501    0  0.00000000000E+00 -0.00000000000E+00 -0.25249676546E+03  0.25249676546E+03  0.00000000000E+00 0. -1.
         25    2    1    2    0    0 -0.30803505983E+02  0.15359881848E+02 -0.11080828728E+03  0.17061864994E+03  0.12508982862E+03 0.  0.
         23    2    1    2    0    0  0.30803505983E+02 -0.15359881848E+02 -0.89933706165E+02  0.13363288754E+03  0.92654709412E+02 0.  0.
          5    1    3    3  502    0 -0.41481922972E+01  0.60502960788E+02 -0.99848155027E+02  0.11689714379E+03  0.41800000000E+01 0.  1.
         -5    1    3    3    0  502 -0.26655313686E+02 -0.45143078940E+02 -0.10960132253E+02  0.53721506149E+02  0.41800000000E+01 0.  1.
        -11    1    4    4    0    0 -0.11413609636E+01 -0.49601946835E+02 -0.60823775096E+02  0.78493231884E+02  0.00000000000E+00 0. -1.
         11    1    4    4    0    0  0.31944866947E+02  0.34242064988E+02 -0.29109931070E+02  0.55139655655E+02  0.00000000000E+00 0.  1.
</event>
<event>
 8    1  0.6849590E-009  0.1709201E+03  0.7561462E-02  0.1176892E+00
          2   -1    0    0  501    0  0.00000000000E+00  0.00000000000E+00  0.43342347858E+03  0.43342347858E+03  0.00000000000E+00 0. -1.
         -2   -1    0    0    0  501 -0.00000000000E+00 -0.00000000000E+00 -0.80516676474E+02  0.80516676474E+02  0.00000000000E+00 0.  1.
         25    2    1    2    0    0  0.97786933733E+02 -0.88617147708E+02  0.84397021773E+02  0.20045464447E+03  0.12507567280E+03 0.  0.
         23    2    1    2    0    0 -0.97786933733E+02  0.88617147708E+02  0.26850978033E+03  0.31348551059E+03  0.93596901320E+02 0.  0.
          5    1    3    3  502    0  0.14683914402E+02  0.31646785644E+02  0.22003383774E+02  0.41457902519E+02  0.41800000000E+01 0.  1.
         -5    1    3    3    0  502  0.83103019331E+02 -0.12026393335E+03  0.62393637999E+02  0.15899674195E+03  0.41800000000E+01 0.  1.
        -11    1    4    4    0    0 -0.11125997008E+03  0.54729265220E+02  0.18942672283E+03  0.22639910940E+03  0.00000000000E+00 0.  1.
         11    1    4    4    0    0  0.13473036349E+02  0.33887882488E+02  0.79083057503E+02  0.87086401189E+02  0.00000000000E+00 0. -1.
</event>
<event>
 8    1  0.6849590E-009  0.1907863E+03  0.7561462E-02  0.1157754E+00
          1   -1    0    0  501    0  0.00000000000E+00  0.00000000000E+00  0.11074548421E+03  0.11074548421E+03  0.00000000000E+00 0. -1.
         -1   -1    0    0    0  501 -0.00000000000E+00 -0.00000000000E+00 -0.37416226773E+03  0.37416226773E+03  0.00000000000E+00 0.  1.
         25    2    1    2    0    0 -0.16194111700E+03 -0.52606299338E+02 -0.16728557270E+03  0.26949121596E+03  0.12509478224E+03 0.  0.
         23    2    1    2    0    0  0.16194111700E+03  0.52606299338E+02 -0.96131210827E+02  0.21541653597E+03  0.90392069179E+02 0.  0.
          5    1    3    3  502    0 -0.79964027787E+02 -0.90226166588E+02 -0.87886557036E+02  0.14925322839E+03  0.41800000000E+01 0.  1.
         -5    1    3    3    0  502 -0.81977089214E+02  0.37619867249E+02 -0.79399015665E+02  0.12023798758E+03  0.41800000000E+01 0.  1.
        -11    1    4    4    0    0  0.12473830468E+03  0.35455866099E+02 -0.23158059904E+02  0.13173100938E+03  0.00000000000E+00 0. -1.
         11    1    4    4    0    0  0.37202812322E+02  0.17150433240E+02 -0.72973150923E+02  0.83685526590E+02  0.00000000000E+00 0.  1.
</event>
<event>
 8    1  0.6849590E-009  0.1378435E+03  0.7561462E-02  0.1216261E+00
         -1   -1    0    0    0  501 -0.00000000000E+00  0.00000000000E+00  0.27391916673E+02  0.27391916673E+02  0.00000000000E+00 0.  1.
          1   -1    0    0  501    0  0.00000000000E+00 -0.00000000000E+00 -0.84036491723E+03  0.84036491723E+03  0.00000000000E+00 0. -1.
         25    2    1    2    0    0 -0.95240221456E+02  0.12082257767E+02 -0.56783213809E+03  0.58931813968E+03  0.12508338008E+03 0.  0.
         23    2    1    2    0    0  0.95240221456E+02 -0.12082257767E+02 -0.24514086246E+03  0.27843869422E+03  0.90649783530E+02 0.  0.
          5    1    3    3  502    0  0.17684145052E+02  0.25866739619E+02 -0.24441474044E+03  0.24645051217E+03  0.41800000000E+01 0. -1.
         -5    1    3    3    0  502 -0.11292436651E+03 -0.13784481852E+02 -0.32341739765E+03  0.34286762751E+03  0.41800000000E+01 0. -1.
        -11    1    4    4    0    0  0.82377510447E+02 -0.45725921924E+02 -0.15528300987E+03  0.18163074442E+03  0.00000000000E+00 0.  1.
         11    1    4    4    0    0  0.12862711009E+02  0.33643664157E+02 -0.89857852591E+02  0.96807949801E+02  0.00000000000E+00 0. -1.
</event>
<event>
 8    1  0.6849590E-009  0.1117946E+03  0.7561462E-02  0.1257282E+00
          2   -1    0    0  501    0  0.00000000000E+00  0.00000000000E+00  0.13837131992E+03  0.13837131992E+03  0.00000000000E+00 0. -1.
         -2   -1    0    0    0  501 -0.00000000000E+00 -0.00000000000E+00 -0.11828458903E+03  0.11828458903E+03  0.00000000000E+00 0.  1.
         25    2    1    2    0    0  0.51497544998E+02  0.44355316547E+02  0.16197770171E+02  0.14328368597E+03  0.12509378746E+03 0.  0.
         23    2    1    2    0    0 -0.51497544998E+02 -0.44355316547E+02  0.38889607123E+01  0.11337222298E+03  0.90657298000E+02 0.  0.
          5    1    3    3  502    0  0.52665526430E+01  0.76613509994E+02 -0.15530571709E+02  0.78460420264E+02  0.41800000000E+01 0.  1.
         -5    1    3    3    0  502  0.46230992355E+02 -0.32258193447E+02  0.31728341880E+02  0.64823265708E+02  0.41800000000E+01 0.  1.
        -11    1    4    4    0    0  0.12592778969E+02 -0.15213056233E+02 -0.29461185694E+02  0.35467966176E+02  0.00000000000E+00 0.  1.
         11    1    4    4    0    0 -0.64090323968E+02 -0.29142260314E+02  0.33350146407E+02  0.77904256802E+02  0.00000000000E+00 0. -1.
</event>
<event>
 8    1  0.6849590E-009  0.8823749E+02  0.7561462E-02  0.1307177E+00
          3   -1    0    0  501    0  0.00000000000E+00  0.00000000000E+00  0.86209413374E+01  0.86209413374E+01  0.00000000000E+00 0. -1.
         -3   -1    0    0    0  501 -0.00000000000E+00 -0.00000000000E+00 -0.17775755762E+04  0.17775755762E+04  0.00000000000E+00 0.  1.
         25    2    1    2    0    0  0.13054646230E+02  0.20042787563E+02 -0.13908907801E+04  0.13967092097E+04  0.12508923711E+03 0.  0.
         23    2    1    2    0    0 -0.13054646230E+02 -0.20042787563E+02 -0.37806385473E+03  0.38948730778E+03  0.90531472688E+02 0.  0.
          5    1    3    3  502    0  0.38668970292E+02 -0.16918401754E+02 -0.11920341998E+04  0.11927885510E+04  0.41800000000E+01 0.  1.
         -5    1    3    3    0  502 -0.25614324063E+02  0.36961189317E+02 -0.19885658031E+03  0.20392065870E+03  0.41800000000E+01 0.  1.
        -11    1    4    4    0    0 -0.20514095460E+02  0.31076499404E+02 -0.10093908891E+03  0.10758845940E+03  0.00000000000E+00 0.  1.
         11    1    4    4    0    0  0.74594492305E+01 -0.51119286967E+02 -0.27712476582E+03  0.28189884837E+03  0.00000000000E+00 0. -1.
</event>
<event>
 8    1  0.6849590E-009  0.1467086E+03  0.7561462E-02  0.1204577E+00
          2   -1    0    0  501    0  0.00000000000E+00  0.00000000000E+00  0.21014591669E+03  0.21014591669E+03  0.00000000000E+00 0. -1.
         -2   -1    0    0    0  501 -0.00000000000E+00 -0.00000000000E+00 -0.14574424641E+03  0.14574424641E+03  0.00000000000E+00 0.  1.
         25    2    1    2    0    0  0.12636114908E+03 -0.15810008262E+02  0.85377157856E+02  0.19787697672E+03  0.12509573323E+03 0.  0.
         23    2    1    2    0    0 -0.12636114908E+03  0.15810008262E+02 -0.20975487583E+02  0.15801318638E+03  0.91165232592E+02 0.  0.
          5    1    3    3  502    0  0.10908594733E+03  0.20380383100E+02  0.88824329932E+01  0.11140679484E+03  0.41800000000E+01 0. -1.
         -5    1    3    3    0  502  0.17275201754E+02 -0.36190391362E+02  0.76494724862E+02  0.86470181880E+02  0.41800000000E+01 0. -1.
        -11    1    4    4    0    0 -0.67710984876E+02 -0.23236167575E+02  0.22719111875E+02  0.75105625628E+02  0.00000000000E+00 0. -1.
         11    1    4    4    0    0 -0.58650164205E+02  0.39046175837E+02 -0.43694599458E+02  0.82907560756E+02  0.00000000000E+00 0.  1.
</event>
<event>
 8    1  0.6849590E-009  0.1145456E+03  0.7561462E-02  0.1252376E+00
         -2   -1    0    0    0  501 -0.00000000000E+00  0.00000000000E+00  0.30903897823E+02  0.30903897823E+02  0.00000000000E+00 0.  1.
          2   -1    0    0  501    0  0.00000000000E+00 -0.00000000000E+00 -0.50631105255E+03  0.50631105255E+03  0.00000000000E+00 0. -1.
         25    2    1    2    0    0  0.36960938069E+02  0.29091128164E+01 -0.15918867827E+03  0.20582377311E+03  0.12509123234E+03 0.  0.
         23    2    1    2    0    0 -0.36960938069E+02 -0.29091128164E+01 -0.31621847646E+03  0.33139117726E+03  0.91931570379E+02 0.  0.
          5    1    3    3  502    0  0.51536389362E+02 -0.52031575099E+02 -0.85158876261E+02  0.11239568872E+03  0.41800000000E+01 0. -1.
         -5    1    3    3    0  502 -0.14575451292E+02  0.54940687915E+02 -0.74029802009E+02  0.93428084399E+02  0.41800000000E+01 0. -1.
        -11    1    4    4    0    0  0.22758582402E+02 -0.26144421705E+02 -0.12526894247E+03  0.12997612014E+03  0.00000000000E+00 0. -1.
         11    1    4    4    0    0 -0.59719520471E+02  0.23235308889E+02 -0.19094953399E+03  0.20141505712E+03  0.00000000000E+00 0.  1.
</event>
<event>
 8    1  0.6849590E-009  0.1004904E+03  0.7561462E-02  0.1279268E+00
          2   -1    0    0  501    0  0.00000000000E+00  0.00000000000E+00  0.38240904204E+03  0.38240904204E+03  0.00000000000E+00 0. -1.
         -2   -1    0    0    0  501 -0.00000000000E+00 -0.00000000000E+00 -0.52633513490E+02  0.52633513490E+02  0.00000000000E+00 0.  1.
         25    2    1    2    0    0 -0.41613213763E+02  0.81120096416E+02  0.18484078160E+03  0.24109690893E+03  0.12509786309E+03 0.  0.
         23    2    1    2    0    0  0.41613213763E+02 -0.81120096416E+02  0.14493474694E+03  0.19394564659E+03  0.91086241327E+02 0.  0.
          5    1    3    3  502    0 -0.57369043205E+02  0.66062567667E+02  0.43090935562E+02  0.97620546467E+02  0.41800000000E+01 0. -1.
         -5    1    3    3    0  502  0.15755829442E+02  0.15057528749E+02  0.14174984604E+03  0.14347636246E+03  0.41800000000E+01 0. -1.
        -11    1    4    4    0    0  0.11936955553E+02 -0.21261753803E+02  0.12028650074E+03  0.12273302466E+03  0.00000000000E+00 0. -1.
         11    1    4    4    0    0  0.29676258210E+02 -0.59858342613E+02  0.24648246207E+02  0.71212621934E+02  0.00000000000E+00 0.  1.
</event>
<event>
 8    1  0.6849590E-009  0.3967888E+03  0.7561462E-02  0.1044897E+00
         -2   -1    0    0    0  501 -0.00000000000E+00  0.00000000000E+00  0.18851895238E+03  0.18851895238E+03  0.00000000000E+00 0.  1.
          2   -1    0    0  501    0  0.00000000000E+00 -0.00000000000E+00 -0.85495399277E+03  0.85495399277E+03  0.00000000000E+00 0. -1.
         25    2    1    2    0    0  0.34572342479E+03  0.17116418976E+03 -0.31558916738E+03  0.51387242936E+03  0.12508590961E+03 0.  0.
         23    2    1    2    0    0 -0.34572342479E+03 -0.17116418976E+03 -0.35084587301E+03  0.52960051578E+03  0.92531148283E+02 0.  0.
          5    1    3    3  502    0  0.29471776099E+02  0.55712206261E+02 -0.21198443793E+02  0.66627936574E+02  0.41800000000E+01 0. -1.
         -5    1    3    3    0  502  0.31625164869E+03  0.11545198350E+03 -0.29439072359E+03  0.44724449279E+03  0.41800000000E+01 0. -1.
        -11    1    4    4    0    0 -0.23489097754E+03 -0.73847517787E+02 -0.18728721831E+03  0.30936019356E+03  0.00000000000E+00 0.  1.
         11    1    4    4    0    0 -0.11083244725E+03 -0.97316671976E+02 -0.16355865470E+03  0.22024032222E+03  0.00000000000E+00 0. -1.
</event>
<event>
 8    1  0.6849590E-009  0.9723613E+02  0.7561462E-02  0.1286218E+00
          4   -1    0    0  501    0  0.00000000000E+00  0.00000000000E+00  0.22299867739E+03  0.22299867739E+03  0.00000000000E+00 0.  1.
         -4   -1    0    0    0  501 -0.00000000000E+00 -0.00000000000E+00 -0.62428792715E+02  0.62428792715E+02  0.00000000000E+00 0. -1.
         25    2    1    2    0    0 -0.45905146003E+02  0.89641868402E+01  0.95407210251E+02  0.16412691952E+03  0.12508985118E+03 0.  0.
         23    2    1    2    0    0  0.45905146003E+02 -0.89641868402E+01  0.65162674426E+02  0.12130055058E+03  0.90994562246E+02 0.  0.
          5    1    3    3  502    0 -0.10089230961E+02  0.53384638998E+02  0.91856917089E+02  0.10680298629E+03  0.41800000000E+01 0. -1.
         -5    1    3    3    0  502 -0.35815915043E+02 -0.44420452158E+02  0.35502931615E+01  0.57323933237E+02  0.41800000000E+01 0. -1.
        -11    1    4    4    0    0 -0.15826772380E+02  0.93431148007E+01  0.52571731583E+02  0.55691718234E+02  0.00000000000E+00 0.  1.
         11    1    4    4    0    0  0.61731918384E+02 -0.18307301641E+02  0.12590942843E+02  0.65608832350E+02  0.00000000000E+00 0. -1.
</event>
<event>
 8    1  0.6849590E-009  0.1131891E+03  0.7561462E-02  0.1254776E+00
         -2   -1    0    0    0  501 -0.00000000000E+00  0.00000000000E+00  0.13929440399E+02  0.13929440399E+02  0.00000000000E+00 0.  1.
          2   -1    0    0  501    0  0.00000000000E+00 -0.00000000000E+00 -0.11403624226E+04  0.11403624226E+04  0.00000000000E+00 0. -1.
         25    2    1    2    0    0 -0.42353414847E+02  0.25249946394E+02 -0.81731204900E+03  0.82829815480E+03  0.12508987278E+03 0.  0.
         23    2    1    2    0    0  0.42353414847E+02 -0.25249946394E+02 -0.30912093319E+03  0.32599370818E+03  0.91020738826E+02 0.  0.
          5    1    3    3  502    0 -0.54871869481E+02  0.66466002119E+02 -0.63948217647E+03  0.64527790751E+03  0.41800000000E+01 0. -1.
         -5    1    3    3    0  502  0.12518454633E+02 -0.41216055725E+02 -0.17782987253E+03  0.18302024729E+03  0.41800000000E+01 0. -1.
        -11    1    4    4    0    0 -0.40927489606E+01 -0.45827124506E+02 -0.20553399691E+03  0.21062074879E+03  0.00000000000E+00 0. -1.
         11    1    4    4    0    0  0.46446163808E+02  0.20577178112E+02 -0.10358693628E+03  0.11537295940E+03  0.00000000000E+00 0.  1.
</event>
<event>
 8    1  0.6849590E-009  0.1355960E+03  0.7561462E-02  0.1219381E+00
         -1   -1    0    0    0  501 -0.00000000000E+00  0.00000000000E+00  0.68537819721E+03  0.68537819721E+03  0.00000000000E+00 0.  1.
          1   -1    0    0  501    0  0.00000000000E+00 -0.00000000000E+00 -0.32345231625E+02  0.32345231625E+02  0.00000000000E+00 0. -1.
         25    2    1    2    0    0 -0.21281270995E+01  0.96803687658E+02  0.43234880020E+03  0.46037835901E+03  0.12508903043E+03 0.  0.
         23    2    1    2    0    0  0.21281270995E+01 -0.96803687658E+02  0.22068416539E+03  0.25734506983E+03  0.90274588042E+02 0.  0.
          5    1    3    3  502    0 -0.23857320488E+02 -0.24058667069E+02  0.72624859613E+02  0.80248575289E+02  0.41800000000E+01 0.  1.
         -5    1    3    3    0  502  0.21729193388E+02  0.12086235473E+03  0.35972394059E+03  0.38012978372E+03  0.41800000000E+01 0.  1.
        -11    1    4    4    0    0 -0.18558131853E+02 -0.90749965334E+02  0.10650722089E+03  0.14115150927E+03  0.00000000000E+00 0.  1.
         11    1    4    4    0    0  0.20686258952E+02 -0.60537223242E+01  0.11417694449E+03  0.11619356056E+03  0.00000000000E+00 0. -1.
</event>
<event>
 8    1  0.6849590E-009  0.1434088E+03  0.7561462E-02  0.1208814E+00
          3   -1    0    0  501    0  0.00000000000E+00  0.00000000000E+00  0.22595347044E+02  0.22595347044E+02  0.00000000000E+00 0. -1.
         -3   -1    0    0    0  501 -0.00000000000E+00 -0.00000000000E+00 -0.10250770973E+04  0.10250770973E+04  0.00000000000E+00 0.  1.
         25    2    1    2    0    0 -0.62620066250E+02  0.85828195953E+02 -0.50446155234E+03  0.53048704705E+03  0.12508915772E+03 0.  0.
         23    2    1    2    0    0  0.62620066250E+02 -0.85828195953E+02 -0.49802019789E+03  0.51718539727E+03  0.90381777618E+02 0.  0.
          5    1    3    3  502    0 -0.73629534236E+02  0.10725753008E+03 -0.47332628295E+03  0.49089788002E+03  0.41800000000E+01 0.  1.
         -5    1    3    3    0  502  0.11009467986E+02 -0.21429334128E+02 -0.31135269390E+02  0.39589167035E+02  0.41800000000E+01 0.  1.
        -11    1    4    4    0    0  0.40752415962E+02 -0.98730351707E+02 -0.45374236710E+03  0.46614437404E+03  0.00000000000E+00 0.  1.
         11    1    4    4    0    0  0.21867650288E+02  0.12902155753E+02 -0.44277830798E+02  0.51041023230E+02  0.00000000000E+00 0. -1.
</event>
<event>
 8    1  0.6849590E-009  0.1041219E+03  0.7561462E-02  0.1271859E+00
          1   -1    0    0  501    0  0.00000000000E+00  0.00000000000E+00  0.91269365442E+03  0.91269365442E+03  0.00000000000E+00 0. -1.
         -1   -1    0    0    0  501 -0.00000000000E+00 -0.00000000000E+00 -0.17799078215E+02  0.17799078215E+02  0.00000000000E+00 0.  1.
         25    2    1    2    0    0 -0.35832606809E+02  0.10617893260E+02  0.70786889177E+03  0.71980732336E+03  0.12508996544E+03 0.  0.
         23    2    1    2    0    0  0.35832606809E+02 -0.10617893260E+02  0.18702568443E+03  0.21068540928E+03  0.89515471713E+02 0.  0.
          5    1    3    3  502    0 -0.39380242478E+02  0.54667673148E+02  0.59013341318E+03  0.59398171330E+03  0.41800000000E+01 0. -1.
         -5    1    3    3    0  502  0.35476356691E+01 -0.44049779888E+02  0.11773547859E+03  0.12582561005E+03  0.41800000000E+01 0. -1.
        -11    1    4    4    0    0 -0.22347239036E+02 -0.27816361168E+02  0.81386360994E+02  0.88864440565E+02  0.00000000000E+00 0. -1.
         11    1    4    4    0    0  0.58179845845E+02  0.17198467908E+02  0.10563932344E+03  0.12182096871E+03  0.00000000000E+00 0.  1.
</event>
<event>
 8    1  0.6849590E-009  0.1996041E+03  0.7561462E-02  0.1150073E+00
         -2   -1    0    0    0  501 -0.00000000000E+00  0.00000000000E+00  0.53705044162E+02  0.53705044162E+02  0.00000000000E+00 0.  1.
          2   -1    0    0  501    0  0.00000000000E+00 -0.00000000000E+00 -0.86335833373E+03  0.86335833373E+03  0.00000000000E+00 0. -1.
         25    2    1    2    0    0 -0.10300380819E+03  0.15062070152E+03 -0.48837898494E+03  0.53615096072E+03  0.12508972591E+03 0.  0.
         23    2    1    2    0    0  0.10300380819E+03 -0.15062070152E+03 -0.32127430463E+03  0.38091241716E+03  0.92632124592E+02 0.  0.
          5    1    3    3  502    0 -0.90502943647E+02  0.16557165228E+03 -0.36237529781E+03  0.40858057187E+03  0.41800000000E+01 0. -1.
         -5    1    3    3    0  502 -0.12500864546E+02 -0.14950950754E+02 -0.12600368713E+03  0.12757038885E+03  0.41800000000E+01 0. -1.
        -11    1    4    4    0    0  0.48382412922E+01 -0.49030327977E+02 -0.31336989715E+02  0.58389969727E+02  0.00000000000E+00 0.  1.
         11    1    4    4    0    0  0.98165566900E+02 -0.10159037355E+03 -0.28993731491E+03  0.32252244744E+03  0.00000000000E+00 0. -1.
</event>
<event>
 8    1  0.6849590E-009  0.1108075E+03  0.7561462E-02  0.1259082E+00
         -1   -1    0    0    0  501 -0.00000000000E+00  0.00000000000E+00  0.72095781016E+02  0.72095781016E+02  0.00000000000E+00 0.  1.
          1   -1    0    0  501    0  0.00000000000E+00 -0.00000000000E+00 -0.24925644775E+03  0.24925644775E+03  0.00000000000E+00 0. -1.
         25    2    1    2    0    0 -0.22021381168E+02  0.48732081898E+02 -0.15621928989E+03  0.20715645310E+03  0.12509825136E+03 0.  0.
         23    2    1    2    0    0  0.22021381168E+02 -0.48732081898E+02 -0.20941376838E+02  0.11419577566E+03  0.98703479571E+02 0.  0.
          5    1    3    3  502    0  0.65746724001E+00 -0.42109136700E+02 -0.49436222026E+02  0.65077062818E+02  0.41800000000E+01 0.  1.
         -5    1    3    3    0  502 -0.22678848408E+02  0.90841218598E+02 -0.10678306787E+03  0.14207939029E+03  0.41800000000E+01 0.  1.
        -11    1    4    4    0    0  0.12852497295E+02  0.15813463558E+02  0.26600338476E+02  0.33508660424E+02  0.00000000000E+00 0.  1.
         11    1    4    4    0    0  0.91688838732E+01 -0.64545545455E+02 -0.47541715314E+02  0.80687115233E+02  0.00000000000E+00 0. -1.
</event>
<event>
 8    1  0.6849590E-009  0.1110056E+03  0.7561462E-02  0.1258719E+00
          1   -1    0    0  501    0  0.00000000000E+00  0.00000000000E+00  0.10509969646E+03  0.10509969646E+03  0.00000000000E+00 0. -1.
         -1   -1    0    0    0  501 -0.00000000000E+00 -0.00000000000E+00 -0.47043813126E+03  0.47043813126E+03  0.00000000000E+00 0.  1.
         25    2    1    2    0    0 -0.29324960033E+02  0.65882063525E+02 -0.42222232873E+03  0.44622775351E+03  0.12508842291E+03 0.  0.
         23    2    1    2    0    0  0.29324960033E+02 -0.65882063525E+02  0.56883893929E+02  0.12931007422E+03  0.91021526750E+02 0.  0.
          5    1    3    3  502    0  0.41921108225E+02 -0.55608297432E+01 -0.10327489893E+03  0.11167577755E+03  0.41800000000E+01 0. -1.
         -5    1    3    3    0  502 -0.71246068258E+02  0.71442893268E+02 -0.31894742980E+03  0.33455197596E+03  0.41800000000E+01 0. -1.
        -11    1    4    4    0    0  0.13506328763E+02 -0.60245567643E+02 -0.80284201748E+01  0.62260781137E+02  0.00000000000E+00 0.  1.
         11    1    4    4    0    0  0.15818631270E+02 -0.56364958822E+01  0.64912314104E+02  0.67049293087E+02  0.00000000000E+00 0. -1.
</event>
<event>
 8    1  0.6849590E-009  0.9020340E+02  0.7561462E-02  0.1302360E+00
         -1   -1    0    0    0  501 -0.00000000000E+00  0.00000000000E+00  0.47332624853E+02  0.47332624853E+02  0.00000000000E+00 0.  1.
          1   -1    0    0  501    0  0.00000000000E+00 -0.00000000000E+00 -0.26419474156E+03  0.26419474156E+03  0.00000000000E+00 0. -1.
         25    2    1    2    0    0 -0.11352714762E+02 -0.96987924714E+01 -0.15986996690E+03  0.20353955100E+03  0.12508793625E+03 0.  0.
         23    2    1    2    0    0  0.11352714762E+02  0.96987924714E+01 -0.56992149801E+02  0.10798781541E+03  0.90500344921E+02 0.  0.
          5    1    3    3  502    0  0.50882483454E+02 -0.10117967400E+02 -0.31551973926E+02  0.60863781064E+02  0.41800000000E+01 0.  1.
         -5    1    3    3    0  502 -0.62235198216E+02  0.41917492832E+00 -0.12831799298E+03  0.14267576993E+03  0.41800000000E+01 0.  1.
        -11    1    4    4    0    0 -0.23661581715E+02 -0.10135917879E+02  0.11778799801E+02  0.28308080212E+02  0.00000000000E+00 0.  1.
         11    1    4    4    0    0  0.35014296477E+02  0.19834710351E+02 -0.68770949602E+02  0.79679735201E+02  0.00000000000E+00 0. -1.
</event>
<event>
 8    1  0.6849590E-009  0.3502563E+03  0.7561462E-02  0.1062510E+00
          1   -1    0    0  501    0  0.00000000000E+00  0.00000000000E+00  0.12504396657E+04  0.12504396657E+04  0.00000000000E+00 0. -1.
         -1   -1    0    0    0  501 -0.00000000000E+00 -0.00000000000E+00 -0.12801351991E+03  0.12801351991E+03  0.00000000000E+00 0.  1.
         25    2    1    2    0    0 -0.31753318524E+03  0.11577796795E+03  0.25018121229E+03  0.43871316537E+03  0.12508693333E+03 0.  0.
         23    2    1    2    0    0  0.31753318524E+03 -0.11577796795E+03  0.87224493351E+03  0.93974002026E+03  0.89823271224E+02 0.  0.
          5    1    3    3  502    0 -0.30744275146E+03  0.13526117457E+03  0.22151127228E+03  0.40236966451E+03  0.41800000000E+01 0.  1.
         -5    1    3    3    0  502 -0.10090433776E+02 -0.19483206615E+02  0.28669940018E+02  0.36343500855E+02  0.41800000000E+01 0.  1.
        -11    1    4    4    0    0  0.14123169132E+03 -0.23153194745E+02  0.46292230139E+03  0.48454052275E+03  0.00000000000E+00 0. -1.
         11    1    4    4    0    0  0.17630149392E+03 -0.92624773207E+02  0.40932263211E+03  0.45519949751E+03  0.00000000000E+00 0.  1.
</event>
<event>
 8    1  0.6849590E-009  0.1674821E+03  0.7561462E-02  0.1180499E+00
          2   -1    0    0  501    0  0.00000000000E+00  0.00000000000E+00  0.37071408099E+02  0.37071408099E+02  0.00000000000E+00 0. -1.
         -2   -1    0    0    0  501 -0.00000000000E+00 -0.00000000000E+00 -0.10577167213E+04  0.10577167213E+04  0.00000000000E+00 0.  1.
         25    2    1    2    0    0  0.46038394290E+02  0.13657209339E+03 -0.76070151753E+03  0.78427348709E+03  0.12508650340E+03 0.  0.
         23    2    1    2    0    0 -0.46038394290E+02 -0.13657209339E+03 -0.25994379571E+03  0.31051464235E+03  0.89872664058E+02 0.  0.
          5    1    3    3  502    0 -0.21602706668E+02  0.11873203410E+03 -0.47934543229E+03  0.49432124040E+03  0.41800000000E+01 0.  1.
         -5    1    3    3    0  502  0.67641100959E+02  0.17840059289E+02 -0.28135608524E+03  0.28995224668E+03  0.41800000000E+01 0.  1.
        -11    1    4    4    0    0 -0.20231676279E+02 -0.62445177966E+02 -0.20353191106E+03  0.21385499713E+03  0.00000000000E+00 0. -1.
         11    1    4    4    0    0 -0.25806718011E+02 -0.74126915425E+02 -0.56411884643E+02  0.96659645219E+02  0.00000000000E+00 0.  1.
</event>
<event>
 8    1  0.6849590E-009  0.9520577E+02  0.7561462E-02  0.1290713E+00
          1   -1    0    0  501    0  0.00000000000E+00  0.00000000000E+00  0.16852868528E+03  0.16852868528E+03  0.00000000000E+00 0. -1.
         -1   -1    0    0    0  501 -0.00000000000E+00 -0.00000000000E+00 -0.73048927418E+02  0.73048927418E+02  0.00000000000E+00 0.  1.
         25    2    1    2    0    0  0.24444404432E+02  0.38599360068E+02  0.74494727622E+02  0.15259535952E+03  0.12509372406E+03 0.  0.
         23    2    1    2    0    0 -0.24444404432E+02 -0.38599360068E+02  0.20985030242E+02  0.88982253175E+02  0.73416826274E+02 0.  0.
          5    1    3    3  502    0  0.31524248583E+02  0.74357782770E+02  0.81970732337E+02  0.11515003894E+03  0.41800000000E+01 0.  1.
         -5    1    3    3    0  502 -0.70798441513E+01 -0.35758422702E+02 -0.74760047156E+01  0.37445320587E+02  0.41800000000E+01 0.  1.
        -11    1    4    4    0    0  0.13698833278E+02  0.53035387008E+01  0.26771602222E+02  0.30536932417E+02  0.00000000000E+00 0. -1.
         11    1    4    4    0    0 -0.38143237709E+02 -0.43902898769E+02 -0.57865719796E+01  0.58445320758E+02  0.00000000000E+00 0.  1.
</event>
<event>
 8    1  0.6849590E-009  0.1062505E+03  0.7561462E-02  0.1267675E+00
          2   -1    0    0  501    0  0.00000000000E+00  0.00000000000E+00  0.17869835334E+03  0.17869835334E+03  0.00000000000E+00 0.  1.
         -2   -1    0    0    0  501 -0.00000000000E+00 -0.00000000000E+00 -0.12031655617E+03  0.12031655617E+03  0.00000000000E+00 0. -1.
         25    2    1    2    0    0 -0.91189552481E+02  0.13532361779E+02  0.67839917010E+02  0.16955380534E+03  0.12509028447E+03 0.  0.
         23    2    1    2    0    0  0.91189552481E+02 -0.13532361779E+02 -0.94581198390E+01  0.12946110417E+03  0.90399458871E+02 0.  0.
          5    1    3    3  502    0 -0.27330825133E+02 -0.13693277152E+02  0.91130209664E+02  0.96211575993E+02  0.41800000000E+01 0. -1.
         -5    1    3    3    0  502 -0.63858727347E+02  0.27225638931E+02 -0.23290292654E+02  0.73342229347E+02  0.41800000000E+01 0. -1.
        -11    1    4    4    0    0  0.36509119241E+02 -0.37555208221E+02  0.27569634855E+02  0.59189477260E+02  0.00000000000E+00 0.  1.
         11    1    4    4    0    0  0.54680433240E+02  0.24022846442E+02 -0.37027754694E+02  0.70271626907E+02  0.00000000000E+00 0. -1.
</event>
<event>
 8    1  0.6849590E-009  0.1331270E+03  0.7561462E-02  0.1222888E+00
          1   -1    0    0  501    0  0.00000000000E+00  0.00000000000E+00  0.47589372992E+03  0.47589372992E+03  0.00000000000E+00 0. -1.
         -1   -1    0    0    0  501 -0.00000000000E+00 -0.00000000000E+00 -0.44642752061E+02  0.44642752061E+02  0.00000000000E+00 0.  1.
         25    2    1    2    0    0 -0.74138332318E+02 -0.45265894038E+02  0.15643607542E+03  0.21832078844E+03  0.12508488114E+03 0.  0.
         23    2    1    2    0    0  0.74138332318E+02  0.45265894038E+02  0.27481490244E+03  0.30221569355E+03  0.90915352601E+02 0.  0.
          5    1    3    3  502    0  0.28293418316E+02 -0.37562204484E+02  0.67574306745E+02  0.82432979188E+02  0.41800000000E+01 0.  1.
         -5    1    3    3    0  502 -0.10243175063E+03 -0.77036895543E+01  0.88861768671E+02  0.13588780925E+03  0.41800000000E+01 0.  1.
        -11    1    4    4    0    0  0.67387462507E+02  0.66064799387E+02  0.16355794461E+03  0.18883015932E+03  0.00000000000E+00 0. -1.
         11    1    4    4    0    0  0.67508698103E+01 -0.20798905349E+02  0.11125695783E+03  0.11338553423E+03  0.00000000000E+00 0.  1.
</event>
<event>
 8    1  0.6849590E-009  0.1763958E+03  0.7561462E-02  0.1171338E+00
          2   -1    0    0  501    0  0.00000000000E+00  0.00000000000E+00  0.18175438636E+03  0.18175438636E+03  0.00000000000E+00 0.  1.
         -2   -1    0    0    0  501 -0.00000000000E+00 -0.00000000000E+00 -0.19438624083E+03  0.19438624083E+03  0.00000000000E+00 0. -1.
         25    2    1    2    0    0 -0.15052417868E+03 -0.21828574821E+02 -0.36114891323E+02  0.20021085978E+03  0.12508432337E+03 0.  0.
         23    2    1    2    0    0  0.15052417868E+03  0.21828574821E+02  0.23483036856E+02  0.17592976741E+03  0.85239750079E+02 0.  0.
          5    1    3    3  502    0 -0.12625583220E+02  0.41152145228E+02 -0.20161063483E+02  0.47716300038E+02  0.41800000000E+01 0.  1.
         -5    1    3    3    0  502 -0.13789859546E+03 -0.62980720049E+02 -0.15953827840E+02  0.15249455974E+03  0.41800000000E+01 0.  1.
        -11    1    4    4    0    0  0.90529821516E+02 -0.80054035808E+01 -0.23770456168E+02  0.93940245139E+02  0.00000000000E+00 0. -1.
         11    1    4    4    0    0  0.59994357166E+02  0.29833978402E+02  0.47253493024E+02  0.81989522269E+02  0.00000000000E+00 0.  1.
</event>
<event>
 8    1  0.6849590E-009  0.1140544E+03  0.7561462E-02  0.1253241E+00
         -1   -1    0    0    0  501 -0.00000000000E+00  0.00000000000E+00  0.46740267094E+02  0.46740267094E+02  0.00000000000E+00 0.  1.
          1   -1    0    0  501    0  0.00000000000E+00 -0.00000000000E+00 -0.32522040688E+03  0.32522040688E+03  0.00000000000E+00 0. -1.
         25    2    1    2    0    0 -0.54963636378E+02 -0.14064967907E+02 -0.18242377126E+03  0.22835142642E+03  0.12508843664E+03 0.  0.
         23    2    1    2    0    0  0.54963636378E+02  0.14064967907E+02 -0.96056368519E+02  0.14360924755E+03  0.90432103821E+02 0.  0.
          5    1    3    3  502    0  0.30231676087E+02 -0.37958337525E+02 -0.68141722151E+02  0.83758917880E+02  0.41800000000E+01 0.  1.
         -5    1    3    3    0  502 -0.85195312466E+02  0.23893369618E+02 -0.11428204911E+03  0.14459250854E+03  0.41800000000E+01 0.  1.
        -11    1    4    4    0    0  0.13683782242E+02 -0.28446177251E+02 -0.98286045354E+00  0.31581591335E+02  0.00000000000E+00 0.  1.
         11    1    4    4    0    0  0.41279854137E+02  0.42511145157E+02 -0.95073508066E+02  0.11202765621E+03  0.00000000000E+00 0. -1.
</event>
<event>
 8    1  0.6849590E-009  0.8753406E+02  0.7561462E-02  0.1308936E+00
          1   -1    0    0  501    0  0.00000000000E+00  0.00000000000E+00  0.16662493543E+03  0.16662493543E+03  0.00000000000E+00 0. -1.
         -1   -1    0    0    0  501 -0.00000000000E+00 -0.00000000000E+00 -0.93677935233E+02  0.93677935233E+02  0.00000000000E+00 0.  1.
         25    2    1    2    0    0 -0.48772293762E+02  0.41450785128E+02  0.52575596115E+02  0.15002678269E+03  0.12508772118E+03 0.  0.
         23    2    1    2    0    0  0.48772293762E+02 -0.41450785128E+02  0.20371404081E+02  0.11027608797E+03  0.87458088521E+02 0.  0.
          5    1    3    3  502    0 -0.21164128343E+02 -0.12680132752E+02 -0.35200266693E+02  0.43188392774E+02  0.41800000000E+01 0.  1.
         -5    1    3    3    0  502 -0.27608165420E+02  0.54130917880E+02  0.87775862808E+02  0.10683838992E+03  0.41800000000E+01 0.  1.
        -11    1    4    4    0    0  0.62731863148E+02 -0.24921700822E+02 -0.14686112988E+02  0.69080096559E+02  0.00000000000E+00 0.  1.
         11    1    4    4    0    0 -0.13959569386E+02 -0.16529084306E+02  0.35057517069E+02  0.41195991413E+02  0.00000000000E+00 0. -1.
</event>
<event>
 8    1  0.6849590E-009  0.7523461E+02  0.7561462E-02  0.1343146E+00
         -1   -1    0    0    0  501 -0.00000000000E+00  0.00000000000E+00  0.65983470270E+02  0.65983470270E+02  0.00000000000E+00 0.  1.
          1   -1    0    0  501    0  0.00000000000E+00 -0.00000000000E+00 -0.23151798660E+03  0.23151798660E+03  0.00000000000E+00 0. -1.
         25    2    1    2    0    0 -0.92202428736E+01 -0.23587266506E+02 -0.15899803412E+03  0.20388573867E+03  0.12509055743E+03 0.  0.
         23    2    1    2    0    0  0.92202428736E+01  0.23587266506E+02 -0.65364822161E+01  0.93615718206E+02  0.89887735957E+02 0.  0.
          5    1    3    3  502    0  0.40201960074E+02  0.20197380267E+02 -0.11725057565E+03  0.12565548796E+03  0.41800000000E+01 0. -1.
         -5    1    3    3    0  502 -0.49422202948E+02 -0.43784646773E+02 -0.41747458461E+02  0.78230250704E+02  0.41800000000E+01 0. -1.
        -11    1    4    4    0    0  0.19971356275E+02  0.18531845311E+02  0.38429118440E+02  0.47107127976E+02  0.00000000000E+00 0.  1.
         11    1    4    4    0    0 -0.10751113402E+02  0.50554211949E+01 -0.44965600656E+02  0.46508590230E+02  0.00000000000E+00 0. -1.
</event>
<event>
 8    1  0.6849590E-009  0.1119725E+03  0.7561462E-02  0.1256960E+00
         -1   -1    0    0    0  501 -0.00000000000E+00  0.00000000000E+00  0.11789604692E+04  0.11789604692E+04  0.00000000000E+00 0.  1.
          1   -1    0    0  501    0  0.00000000000E+00 -0.00000000000E+00 -0.13356469626E+02  0.13356469626E+02  0.00000000000E+00 0. -1.
         25    2    1    2    0    0 -0.27371953907E+02 -0.31247658896E+02  0.87268648936E+03  0.88258452595E+03  0.12509235265E+03 0.  0.
         23    2    1    2    0    0  0.27371953907E+02  0.31247658896E+02  0.29291751024E+03  0.30973241290E+03  0.91694382318E+02 0.  0.
          5    1    3    3  502    0 -0.47244729384E+02 -0.69459687106E+02  0.45913921897E+03  0.46677939906E+03  0.41800000000E+01 0.  1.
         -5    1    3    3    0  502  0.19872775477E+02  0.38212028210E+02  0.41354727039E+03  0.41580512689E+03  0.41800000000E+01 0.  1.
        -11    1    4    4    0    0  0.40643988847E+02 -0.18803453840E+02  0.93042107657E+02  0.10325859530E+03  0.00000000000E+00 0. -1.
         11    1    4    4    0    0 -0.13272034940E+02  0.50051112736E+02  0.19987540258E+03  0.20647381760E+03  0.00000000000E+00 0.  1.
</event>
<event>
 8    1  0.6849590E-009  0.1102193E+03  0.7561462E-02  0.1260164E+00
          1   -1    0    0  501    0  0.00000000000E+00  0.00000000000E+00  0.29436868143E+03  0.29436868143E+03  0.00000000000E+00 0. -1.
         -1   -1    0    0    0  501 -0.00000000000E+00 -0.00000000000E+00 -0.99789036840E+02  0.99789036840E+02  0.00000000000E+00 0.  1.
         25    2    1    2    0    0  0.25416346822E+02 -0.47131706305E+02  0.23810762397E+03  0.27424458483E+03  0.12508982088E+03 0.  0.
         23    2    1    2    0    0 -0.25416346822E+02  0.47131706305E+02 -0.43527979379E+02  0.11991313345E+03  0.98066743390E+02 0.  0.
          5    1    3    3  502    0 -0.46583458216E+02 -0.20572062829E+01  0.11910123199E+03  0.12797197559E+03  0.41800000000E+01 0. -1.
         -5    1    3    3    0  502  0.71999805038E+02 -0.45074500022E+02  0.11900639199E+03  0.14627260923E+03  0.41800000000E+01 0. -1.
        -11    1    4    4    0    0  0.20150474869E+02  0.36640430271E+02  0.15511441097E+02  0.44600084896E+02  0.00000000000E+00 0. -1.
         11    1    4    4    0    0 -0.45566821691E+02  0.10491276034E+02 -0.59039420476E+02  0.75313048551E+02  0.00000000000E+00 0.  1.
</event>
<event>
 8    1  0.6849590E-009  0.1498339E+03  0.7561462E-02  0.1200677E+00
         -2   -1    0    0    0  501 -0.00000000000E+00  0.00000000000E+00  0.20020295934E+03  0.20020295934E+03  0.00000000000E+00 0.  1.
          2   -1    0    0  501    0  0.00000000000E+00 -0.00000000000E+00 -0.21425724282E+03  0.21425724282E+03  0.00000000000E+00 0. -1.
         25    2    1    2    0    0  0.51450131579E+00  0.13211778337E+03  0.10967028048E+03  0.21243544935E+03  0.12508347742E+03 0.  0.
         23    2    1    2    0    0 -0.51450131579E+00 -0.13211778337E+03 -0.12372456396E+03  0.20202475282E+03  0.89726582631E+02 0.  0.
          5    1    3    3  502    0  0.35413138351E+02  0.37421903712E+02 -0.13226003337E+02  0.53356244335E+02  0.41800000000E+01 0. -1.
         -5    1    3    3    0  502 -0.34898637036E+02  0.94695879659E+02  0.12289628382E+03  0.15907920501E+03  0.41800000000E+01 0. -1.
        -11    1    4    4    0    0  0.31589459145E+02 -0.54843742030E+02 -0.15387000841E+02  0.65134397700E+02  0.00000000000E+00 0.  1.
         11    1    4    4    0    0 -0.32103960460E+02 -0.77274041340E+02 -0.10833756312E+03  0.13689035512E+03  0.00000000000E+00 0. -1.
</event>
<event>
 8    1  0.6849590E-009  0.2364097E+03  0.7561462E-02  0.1122208E+00
          1   -1    0    0  501    0  0.00000000000E+00  0.00000000000E+00  0.69010249684E+03  0.69010249684E+03  0.00000000000E+00 0. -1.
         -1   -1    0    0    0  501 -0.00000000000E+00 -0.00000000000E+00 -0.14954873591E+03  0.14954873591E+03  0.00000000000E+00 0.  1.
         25    2    1    2    0    0  0.96643961377E+02 -0.21470943136E+03  0.27542746271E+02  0.26802718043E+03  0.12505907161E+03 0.  0.
         23    2    1    2    0    0 -0.96643961377E+02  0.21470943136E+03  0.51301101465E+03  0.57162405232E+03  0.90186256472E+02 0.  0.
          5    1    3    3  502    0  0.96112294550E+02 -0.21030740400E+03  0.56801993319E+02  0.23814011881E+03  0.41800000000E+01 0.  1.
         -5    1    3    3    0  502  0.53166682697E+00 -0.44020273569E+01 -0.29259247047E+02  0.29887061619E+02  0.41800000000E+01 0.  1.
        -11    1    4    4    0    0 -0.11967436196E+02  0.27304611517E+02  0.16192255247E+02  0.33925660924E+02  0.00000000000E+00 0.  1.
         11    1    4    4    0    0 -0.84676525180E+02  0.18740481984E+03  0.49681875941E+03  0.53769839140E+03  0.00000000000E+00 0. -1.
</event>
<event>
 8    1  0.6849590E-009  0.1258669E+03  0.7561462E-02  0.1233721E+00
         -1   -1    0    0    0  501 -0.00000000000E+00  0.00000000000E+00  0.24599942330E+03  0.24599942330E+03  0.00000000000E+00 0.  1.
          1   -1    0    0  501    0  0.00000000000E+00 -0.00000000000E+00 -0.11889632216E+03  0.11889632216E+03  0.00000000000E+00 0. -1.
         25    2    1    2    0    0  0.48492556953E+02  0.90514002474E+02 -0.20623764549E+02  0.16315046654E+03  0.12509365430E+03 0.  0.
         23    2    1    2    0    0 -0.48492556953E+02 -0.90514002474E+02  0.14772686569E+03  0.20174527891E+03  0.91288652052E+02 0.  0.
          5    1    3    3  502    0  0.53724466724E+02  0.11263225183E+03 -0.41936159521E+02  0.13171353899E+03  0.41800000000E+01 0.  1.
         -5    1    3    3    0  502 -0.52319097704E+01 -0.22118249361E+02  0.21312394971E+02  0.31436927554E+02  0.41800000000E+01 0.  1.
        -11    1    4    4    0    0 -0.29761658464E+02 -0.39761704636E+02  0.59791960019E+01  0.50024996301E+02  0.00000000000E+00 0. -1.
         11    1    4    4    0    0 -0.18730898489E+02 -0.50752297838E+02  0.14174766969E+03  0.15172028261E+03  0.00000000000E+00 0.  1.
</event>
<event>
 8    1  0.6849590E-009  0.1341051E+03  0.7561462E-02  0.1221489E+00
          2   -1    0    0  501    0  0.00000000000E+00  0.00000000000E+00  0.57657081170E+03  0.57657081170E+03  0.00000000000E+00 0. -1.
         -2   -1    0    0    0  501 -0.00000000000E+00 -0.00000000000E+00 -0.48279058678E+02  0.48279058678E+02  0.00000000000E+00 0.  1.
         25    2    1    2    0    0 -0.64397678095E+02  0.92855709279E+02  0.38545224274E+03  0.42070154960E+03  0.12508844355E+03 0.  0.
         23    2    1    2    0    0  0.64397678095E+02 -0.92855709279E+02  0.14283951028E+03  0.20414832078E+03  0.92218043195E+02 0.  0.
          5    1    3    3  502    0 -0.30025308111E+02 -0.37189633246E+01  0.24430964649E+03  0.24621134333E+03  0.41800000000E+01 0. -1.
         -5    1    3    3    0  502 -0.34372369984E+02  0.96574672604E+02  0.14114259625E+03  0.17449020627E+03  0.41800000000E+01 0. -1.
        -11    1    4    4    0    0  0.43168949850E+02 -0.35893772574E+01  0.85781831938E+02  0.96098722941E+02  0.00000000000E+00 0. -1.
         11    1    4    4    0    0  0.21228728245E+02 -0.89266332022E+02  0.57057678342E+02  0.10804959784E+03  0.00000000000E+00 0.  1.
</event>
<event>
 8    1  0.6849590E-009  0.6873494E+02  0.7561462E-02  0.1364449E+00
          2   -1    0    0  501    0  0.00000000000E+00  0.00000000000E+00  0.32043713553E+03  0.32043713553E+03  0.00000000000E+00 0. -1.
         -2   -1    0    0    0  501 -0.00000000000E+00 -0.00000000000E+00 -0.37986007956E+02  0.37986007956E+02  0.00000000000E+00 0.  1.
         25    2    1    2    0    0  0.18327756655E+02 -0.60273260159E+00  0.13272276920E+03  0.18330118281E+03  0.12509084780E+03 0.  0.
         23    2    1    2    0    0 -0.18327756655E+02  0.60273260159E+00  0.14972835837E+03  0.17512196068E+03  0.88954200920E+02 0.  0.
          5    1    3    3  502    0  0.47664092604E+02  0.12252197368E+02  0.28512026312E+01  0.49473061564E+02  0.41800000000E+01 0. -1.
         -5    1    3    3    0  502 -0.29336335949E+02 -0.12854929969E+02  0.12987156657E+03  0.13382812124E+03  0.41800000000E+01 0. -1.
        -11    1    4    4    0    0 -0.19139465250E+02  0.24934334197E+02  0.95594507558E+01  0.32854577316E+02  0.00000000000E+00 0.  1.
         11    1    4    4    0    0  0.81170859485E+00 -0.24331601595E+02  0.14016890762E+03  0.14226738336E+03  0.00000000000E+00 0. -1.
</event>
<event>
 8    1  0.6849590E-009  0.1145077E+03  0.7561462E-02  0.1252443E+00
          2   -1    0    0  501    0  0.00000000000E+00  0.00000000000E+00  0.39196569417E+02  0.39196569417E+02  0.00000000000E+00 0. -1.
         -2   -1    0    0    0  501 -0.00000000000E+00 -0.00000000000E+00 -0.47169920969E+03  0.47169920969E+03  0.00000000000E+00 0.  1.
         25    2    1    2    0    0  0.24730272732E+02 -0.72463930729E+02 -0.29152315736E+03  0.32633593130E+03  0.12508709418E+03 0.  0.
         23    2    1    2    0    0 -0.24730272732E+02  0.72463930729E+02 -0.14097948291E+03  0.18455984781E+03  0.91238781099E+02 0.  0.
          5    1    3    3  502    0 -0.38458572498E+02  0.11544991855E+02 -0.99582999119E+02  0.10745508247E+03  0.41800000000E+01 0. -1.
         -5    1    3    3    0  502  0.63188845229E+02 -0.84008922584E+02 -0.19194015825E+03  0.21888084882E+03  0.41800000000E+01 0. -1.
        -11    1    4    4    0    0 -0.54300391287E+01  0.60478366694E+02 -0.23834106184E+02  0.65231762053E+02  0.00000000000E+00 0. -1.
         11    1    4    4    0    0 -0.19300233603E+02  0.11985564034E+02 -0.11714537673E+03  0.11932808576E+03  0.00000000000E+00 0.  1.
</event>
<event>
 8    1  0.6849590E-009  0.7280361E+02  0.7561462E-02  0.1350811E+00
          1   -1    0    0  501    0  0.00000000000E+00  0.00000000000E+00  0.35598718852E+03  0.35598718852E+03  0.00000000000E+00 0. -1.
         -1   -1    0    0    0  501 -0.00000000000E+00 -0.00000000000E+00 -0.58960558781E+02  0.58960558781E+02  0.00000000000E+00 0.  1.
         25    2    1    2    0    0  0.60487313226E+01 -0.42545127396E+02  0.29557969145E+03  0.32382339213E+03  0.12509020855E+03 0.  0.
         23    2    1    2    0    0 -0.60487313226E+01  0.42545127396E+02  0.14469382855E+01  0.91124355172E+02  0.80342264465E+02 0.  0.
          5    1    3    3  502    0  0.24559053038E+02 -0.56683312772E+02  0.29362114875E+03  0.30007831716E+03  0.41800000000E+01 0.  1.
         -5    1    3    3    0  502 -0.18510321716E+02  0.14138185376E+02  0.19585426974E+01  0.23745074968E+02  0.41800000000E+01 0.  1.
        -11    1    4    4    0    0  0.18217858139E+01  0.49494115170E+02  0.31900296175E+02  0.58911927791E+02  0.00000000000E+00 0. -1.
         11    1    4    4    0    0 -0.78705171364E+01 -0.69489877736E+01 -0.30453357889E+02  0.32212427381E+02  0.00000000000E+00 0.  1.
</event>
<event>
 8    1  0.6849590E-009  0.9724286E+02  0.7561462E-02  0.1286203E+00
         -2   -1    0    0    0  501 -0.00000000000E+00  0.00000000000E+00  0.40598858392E+03  0.40598858392E+03  0.00000000000E+00 0.  1.
          2   -1    0    0  501    0  0.00000000000E+00 -0.00000000000E+00 -0.43472705415E+02  0.43472705415E+02  0.00000000000E+00 0. -1.
         25    2    1    2    0    0 -0.49639567918E+02  0.52549661889E+02  0.24024314818E+03  0.28033827296E+03  0.12508886189E+03 0.  0.
         23    2    1    2    0    0  0.49639567918E+02 -0.52549661889E+02  0.12227273032E+03  0.16912301638E+03  0.91795535954E+02 0.  0.
          5    1    3    3  502    0 -0.56891662975E+02  0.13374818128E+02  0.29084740952E+02  0.65413619624E+02  0.41800000000E+01 0.  1.
         -5    1    3    3    0  502  0.72520950570E+01  0.39174843760E+02  0.21115840723E+03  0.21492465333E+03  0.41800000000E+01 0.  1.
        -11    1    4    4    0    0 -0.14938638493E+02 -0.14818592050E+02 -0.48837090972E+01  0.21601023238E+02  0.00000000000E+00 0.  1.
         11    1    4    4    0    0  0.64578206411E+02 -0.37731069839E+02  0.12715643942E+03  0.14752199314E+03  0.00000000000E+00 0. -1.
</event>
<event>
 8    1  0.6849590E-009  0.1356871E+03  0.7561462E-02  0.1219253E+00
         -1   -1    0    0    0  501 -0.00000000000E+00  0.00000000000E+00  0.11940838183E+03  0.11940838183E+03  0.00000000000E+00 0.  1.
          1   -1    0    0  501    0  0.00000000000E+00 -0.00000000000E+00 -0.22098753481E+03  0.22098753481E+03  0.00000000000E+00 0. -1.
         25    2    1    2    0    0  0.10903021612E+03 -0.43451825143E+02 -0.33422914535E+02  0.17475833950E+03  0.12509091443E+03 0.  0.
         23    2    1    2    0    0 -0.10903021612E+03  0.43451825143E+02 -0.68156238447E+02  0.16563757714E+03  0.94946748165E+02 0.  0.
          5    1    3    3  502    0  0.10947275491E+03  0.35583236363E+00  0.13552928067E+02  0.11038824640E+03  0.41800000000E+01 0. -1.
         -5    1    3    3    0  502 -0.44253879255E+00 -0.43807657506E+02 -0.46975842602E+02  0.64370093094E+02  0.41800000000E+01 0. -1.
        -11    1    4    4    0    0 -0.80120372800E+02  0.26991672120E+02 -0.91818221357E+02  0.12481350197E+03  0.00000000000E+00 0. -1.
         11    1    4    4    0    0 -0.28909843318E+02  0.16460153023E+02  0.23661982910E+02  0.40824075170E+02  0.00000000000E+00 0.  1.
</event>
<event>
 8    1  0.6849590E-009  0.1957518E+03  0.7561462E-02  0.1153374E+00
          4   -1    0    0  501    0  0.00000000000E+00  0.00000000000E+00  0.13073077457E+04  0.13073077457E+04  0.00000000000E+00 0.  1.
         -4   -1    0    0    0  501 -0.00000000000E+00 -0.00000000000E+00 -0.31352644718E+02  0.31352644718E+02  0.00000000000E+00 0. -1.
         25    2    1    2    0    0  0.65621944073E+02  0.15744670902E+03  0.68521230022E+03  0.71711917647E+03  0.12509320990E+03 0.  0.
         23    2    1    2    0    0 -0.65621944073E+02 -0.15744670902E+03  0.59074280078E+03  0.62154121397E+03  0.90778401956E+02 0.  0.
          5    1    3    3  502    0  0.89855137068E+02  0.16272066950E+03  0.61763533650E+03  0.64501383182E+03  0.41800000000E+01 0.  1.
         -5    1    3    3    0  502 -0.24233192994E+02 -0.52739604843E+01  0.67576963718E+02  0.72105344651E+02  0.41800000000E+01 0.  1.
        -11    1    4    4    0    0  0.27295952612E+01 -0.67000606284E+02  0.12127510803E+03  0.13857916063E+03  0.00000000000E+00 0. -1.
         11    1    4    4    0    0 -0.68351539335E+02 -0.90446102732E+02  0.46946769275E+03  0.48296205334E+03  0.00000000000E+00 0.  1.
</event>
<event>
 8    1  0.6849590E-009  0.8466130E+02  0.7561462E-02  0.1316321E+00
          2   -1    0    0  501    0  0.00000000000E+00  0.00000000000E+00  0.11699753133E+03  0.11699753133E+03  0.00000000000E+00 0. -1.
         -2   -1    0    0    0  501 -0.00000000000E+00 -0.00000000000E+00 -0.16698321346E+03  0.16698321346E+03  0.00000000000E+00 0.  1.
         25    2    1    2    0    0 -0.11658823458E+02  0.49499725077E+02  0.43666760462E+02  0.14191838390E+03  0.12509152958E+03 0.  0.
         23    2    1    2    0    0  0.11658823458E+02 -0.49499725077E+02 -0.93652442591E+02  0.14206236089E+03  0.93940318447E+02 0.  0.
          5    1    3    3  502    0 -0.28191064164E+02  0.95723753974E+01 -0.38582960918E+02  0.48913022219E+02  0.41800000000E+01 0. -1.
         -5    1    3    3    0  502  0.16532240706E+02  0.39927349680E+02  0.82249721380E+02  0.93005361686E+02  0.41800000000E+01 0. -1.
        -11    1    4    4    0    0  0.23359519968E+02  0.16637027606E+02 -0.60950384946E+02  0.67360279733E+02  0.00000000000E+00 0.  1.
         11    1    4    4    0    0 -0.11700696510E+02 -0.66136752683E+02 -0.32702057646E+02  0.74702081153E+02  0.00000000000E+00 0. -1.
</event>
<event>
 8    1  0.6849590E-009  0.6996372E+02  0.7561462E-02  0.1360216E+00
         -2   -1    0    0    0  501 -0.00000000000E+00  0.00000000000E+00  0.33602482631E+02  0.33602482631E+02  0.00000000000E+00 0.  1.
          2   -1    0    0  501    0  0.00000000000E+00 -0.00000000000E+00 -0.39456149204E+03  0.39456149204E+03  0.00000000000E+00 0. -1.
         25    2    1    2    0    0 -0.38556552921E+02  0.10515621489E+02 -0.19193930759E+03  0.23256408818E+03  0.12509265064E+03 0.  0.
         23    2    1    2    0    0  0.38556552921E+02 -0.10515621489E+02 -0.16901970182E+03  0.19559988649E+03  0.89969272115E+02 0.  0.
          5    1    3    3  502    0 -0.18081619434E+02  0.18065161432E+02  0.11197190710E+02  0.28216032654E+02  0.41800000000E+01 0. -1.
         -5    1    3    3    0  502 -0.20474933487E+02 -0.75495399435E+01 -0.20313649830E+03  0.20434805552E+03  0.41800000000E+01 0. -1.
        -11    1    4    4    0    0 -0.25526649132E+02  0.46722428218E+01 -0.20290096902E+02  0.32941276557E+02  0.00000000000E+00 0.  1.
         11    1    4    4    0    0  0.64083202053E+02 -0.15187864310E+02 -0.14872960491E+03  0.16265860993E+03  0.00000000000E+00 0. -1.
</event>
<event>
 8    1  0.6849590E-009  0.9508440E+02  0.7561462E-02  0.1290986E+00
          3   -1    0    0  501    0  0.00000000000E+00  0.00000000000E+00  0.26978577508E+03  0.26978577508E+03  0.00000000000E+00 0. -1.
         -3   -1    0    0    0  501 -0.00000000000E+00 -0.00000000000E+00 -0.11824442869E+03  0.11824442869E+03  0.00000000000E+00 0.  1.
         25    2    1    2    0    0  0.55571025056E+02  0.21290364069E+02 -0.59656469193E+02  0.15082429163E+03  0.12509058398E+03 0.  0.
         23    2    1    2    0    0 -0.55571025056E+02 -0.21290364069E+02  0.21119781559E+03  0.23720591214E+03  0.90114976638E+02 0.  0.
          5    1    3    3  502    0  0.24843784649E+02 -0.43724332166E+02  0.90635219072E+01  0.51270368523E+02  0.41800000000E+01 0.  1.
         -5    1    3    3    0  502  0.30727240407E+02  0.65014696235E+02 -0.68719991100E+02  0.99553923109E+02  0.41800000000E+01 0.  1.
        -11    1    4    4    0    0 -0.51054042160E+02 -0.56158714981E+01  0.21449920869E+03  0.22056283405E+03  0.00000000000E+00 0. -1.
         11    1    4    4    0    0 -0.45169828963E+01 -0.15674492571E+02 -0.33013931027E+01  0.16643078088E+02  0.00000000000E+00 0.  1.
</event>
<event>
 8    1  0.6849590E-009  0.1629846E+03  0.7561462E-02  0.1185368E+00
          1   -1    0    0  501    0  0.00000000000E+00  0.00000000000E+00  0.32718428535E+03  0.32718428535E+03  0.00000000000E+00 0. -1.
         -1   -1    0    0    0  501 -0.00000000000E+00 -0.00000000000E+00 -0.11631174896E+03  0.11631174896E+03  0.00000000000E+00 0.  1.
         25    2    1    2    0    0  0.15743825503E+03  0.25894188803E+02  0.10750364022E+03  0.22948191040E+03  0.12509037286E+03 0.  0.
         23    2    1    2    0    0 -0.15743825503E+03 -0.25894188803E+02  0.10336889617E+03  0.21401412390E+03  0.98283281260E+02 0.  0.
          5    1    3    3  502    0  0.32401360966E+02 -0.41642973076E+01  0.94600565457E+02  0.10016950109E+03  0.41800000000E+01 0. -1.
         -5    1    3    3    0  502  0.12503689406E+03  0.30058486111E+02  0.12903074763E+02  0.12931240931E+03  0.41800000000E+01 0. -1.
        -11    1    4    4    0    0 -0.74075634539E+02 -0.32190754707E+02 -0.38731277342E+00  0.80768770772E+02  0.00000000000E+00 0.  1.
         11    1    4    4    0    0 -0.83362620488E+02  0.62965659033E+01  0.10375620894E+03  0.13324535313E+03  0.00000000000E+00 0. -1.
</event>
<event>
 8    1  0.6849590E-009  0.1356473E+03  0.7561462E-02  0.1219309E+00
          3   -1    0    0  501    0  0.00000000000E+00  0.00000000000E+00  0.14574867615E+03  0.14574867615E+03  0.00000000000E+00 0. -1.
         -3   -1    0    0    0  501 -0.00000000000E+00 -0.00000000000E+00 -0.17493456135E+03  0.17493456135E+03  0.00000000000E+00 0.  1.
         25    2    1    2    0    0 -0.74127913190E+02 -0.51757036567E+02 -0.89679731597E+02  0.17850764131E+03  0.12509510542E+03 0.  0.
         23    2    1    2    0    0  0.74127913190E+02  0.51757036567E+02  0.60493846392E+02  0.14217559619E+03  0.91545924825E+02 0.  0.
          5    1    3    3  502    0 -0.10869631896E+03 -0.46624097893E+02 -0.76523406101E+02  0.14093260922E+03  0.41800000000E+01 0.  1.
         -5    1    3    3    0  502  0.34568405765E+02 -0.51329386746E+01 -0.13156325495E+02  0.37575032098E+02  0.41800000000E+01 0.  1.
        -11    1    4    4    0    0  0.20808674876E+02 -0.19658487003E+02 -0.80559235242E+01  0.29738106281E+02  0.00000000000E+00 0.  1.
         11    1    4    4    0    0  0.53319238314E+02  0.71415523570E+02  0.68549769917E+02  0.11243748991E+03  0.00000000000E+00 0. -1.
</event>
<event>
 8    1  0.6849590E-009  0.1820007E+03  0.7561462E-02  0.1165881E+00
          2   -1    0    0  501    0  0.00000000000E+00  0.00000000000E+00  0.19216266195E+03  0.19216266195E+03  0.00000000000E+00 0. -1.
         -2   -1    0    0    0  501 -0.00000000000E+00 -0.00000000000E+00 -0.19191503751E+03  0.19191503751E+03  0.00000000000E+00 0.  1.
         25    2    1    2    0    0 -0.45268334525E+02  0.15141962937E+03  0.88702496154E+01  0.20175108627E+03  0.12509073992E+03 0.  0.
         23    2    1    2    0    0  0.45268334525E+02 -0.15141962937E+03 -0.86226251797E+01  0.18232661319E+03  0.90507004938E+02 0.  0.
          5    1    3    3  502    0 -0.66120640388E+01 -0.11763945126E+02  0.29526636559E+02  0.32732315260E+02  0.41800000000E+01 0. -1.
         -5    1    3    3    0  502 -0.38656270486E+02  0.16318357449E+03 -0.20656386944E+02  0.16901877101E+03  0.41800000000E+01 0. -1.
        -11    1    4    4    0    0  0.70907237879E+02 -0.13242444066E+03 -0.69645317325E+01  0.15037477704E+03  0.00000000000E+00 0.  1.
         11    1    4    4    0    0 -0.25638903353E+02 -0.18995188703E+02 -0.16580934472E+01  0.31951836143E+02  0.00000000000E+00 0. -1.
</event>
<event>
 8    1  0.6849590E-009  0.1151807E+03  0.7561462E-02  0.1251266E+00
         -2   -1    0    0    0  501 -0.00000000000E+00  0.00000000000E+00  0.30817291833E+02  0.30817291833E+02  0.00000000000E+00 0.  1.
          2   -1    0    0  501    0  0.00000000000E+00 -0.00000000000E+00 -0.73057052273E+03  0.73057052273E+03  0.00000000000E+00 0. -1.
         25    2    1    2    0    0  0.49515114969E+01  0.95032086385E+02 -0.27899753114E+03  0.32020329575E+03  0.12503964700E+03 0.  0.
         23    2    1    2    0    0 -0.49515114969E+01 -0.95032086385E+02 -0.42075569976E+03  0.44118451881E+03  0.92481381093E+02 0.  0.
          5    1    3    3  502    0  0.44878268160E+02  0.57542973639E+02 -0.24484760781E+03  0.25552509900E+03  0.41800000000E+01 0.  1.
         -5    1    3    3    0  502 -0.39926756664E+02  0.37489112746E+02 -0.34149923329E+02  0.64678196755E+02  0.41800000000E+01 0.  1.
        -11    1    4    4    0    0  0.10452752582E+02 -0.80456426044E+02 -0.40893469709E+03  0.41690536457E+03  0.00000000000E+00 0. -1.
         11    1    4    4    0    0 -0.15404264079E+02 -0.14575660340E+02 -0.11821002668E+02  0.24279154232E+02  0.00000000000E+00 0.  1.
</event>
<event>
 8    1  0.6849590E-009  0.1596432E+03  0.7561462E-02  0.1189100E+00
         -2   -1    0    0    0  501 -0.00000000000E+00  0.00000000000E+00  0.69376024103E+02  0.69376024103E+02  0.00000000000E+00 0.  1.
          2   -1    0    0  501    0  0.00000000000E+00 -0.00000000000E+00 -0.54254511180E+03  0.54254511180E+03  0.00000000000E+00 0. -1.
         25    2    1    2    0    0  0.87570876838E+01  0.13579780250E+03 -0.38599822431E+03  0.42796709661E+03  0.12507388559E+03 0.  0.
         23    2    1    2    0    0 -0.87570876838E+01 -0.13579780250E+03 -0.87170863387E+02  0.18395403930E+03  0.87878321571E+02 0.  0.
          5    1    3    3  502    0  0.41717429086E+02  0.12572435776E+03 -0.20814141420E+03  0.24675347764E+03  0.41800000000E+01 0. -1.
         -5    1    3    3    0  502 -0.32960341402E+02  0.10073444739E+02 -0.17785681011E+03  0.18121361896E+03  0.41800000000E+01 0. -1.
        -11    1    4    4    0    0  0.25298586044E+02 -0.97767881693E+02 -0.26002220928E+02  0.10428179438E+03  0.00000000000E+00 0.  1.
         11    1    4    4    0    0 -0.34055673728E+02 -0.38029920807E+02 -0.61168642459E+02  0.79672244916E+02  0.00000000000E+00 0. -1.
</event>
<event>
 8    1  0.6849590E-009  0.1958529E+03  0.7561462E-02  0.1153286E+00
          2   -1    0    0  501    0  0.00000000000E+00  0.00000000000E+00  0.15540539618E+04  0.15540539618E+04  0.00000000000E+00 0.  1.
         -2   -1    0    0    0  501 -0.00000000000E+00 -0.00000000000E+00 -0.29323567499E+02  0.29323567499E+02  0.00000000000E+00 0. -1.
         25    2    1    2    0    0 -0.15640783924E+03 -0.55372952029E+02  0.10949660270E+04  0.11145069808E+04  0.12508250909E+03 0.  0.
         23    2    1    2    0    0  0.15640783924E+03  0.55372952029E+02  0.42976436734E+03  0.46887054849E+03  0.87250236769E+02 0.  0.
          5    1    3    3  502    0 -0.17528826620E+03 -0.33733939815E+02  0.95855946271E+03  0.97504752239E+03  0.41800000000E+01 0. -1.
         -5    1    3    3    0  502  0.18880426966E+02 -0.21639012214E+02  0.13640656424E+03  0.13945945841E+03  0.41800000000E+01 0. -1.
        -11    1    4    4    0    0  0.72655131916E+02  0.67903524135E+02  0.18764259027E+03  0.21236618956E+03  0.00000000000E+00 0. -1.
         11    1    4    4    0    0  0.83752707320E+02 -0.12530572106E+02  0.24212177706E+03  0.25650435893E+03  0.00000000000E+00 0.  1.
</event>
<event>
 8    1  0.6849590E-009  0.1334131E+03  0.7561462E-02  0.1222477E+00
          1   -1    0    0  501    0  0.00000000000E+00  0.00000000000E+00  0.76911195106E+02  0.76911195106E+02  0.00000000000E+00 0.  1.
         -1   -1    0    0    0  501 -0.00000000000E+00 -0.00000000000E+00 -0.28064969115E+03  0.28064969115E+03  0.00000000000E+00 0. -1.
         25    2    1    2    0    0  0.93256154716E+02  0.16025748105E+02 -0.13847318361E+03  0.20922752109E+03  0.12509115879E+03 0.  0.
         23    2    1    2    0    0 -0.93256154716E+02 -0.16025748105E+02 -0.65265312432E+02  0.14833336516E+03  0.93753353108E+02 0.  0.
          5    1    3    3  502    0  0.74407353146E+02  0.61470368025E+02 -0.12512665106E+03  0.15807976326E+03  0.41800000000E+01 0.  1.
         -5    1    3    3    0  502  0.18848801570E+02 -0.45444619920E+02 -0.13346532557E+02  0.51147757836E+02  0.41800000000E+01 0.  1.
        -11    1    4    4    0    0 -0.82320118074E+01 -0.33113254769E+02  0.77211548248E+01  0.34983851869E+02  0.00000000000E+00 0.  1.
         11    1    4    4    0    0 -0.85024142909E+02  0.17087506664E+02 -0.72986467256E+02  0.11334951329E+03  0.00000000000E+00 0. -1.
</event>
<event>
 8    1  0.6849590E-009  0.1002301E+03  0.7561462E-02  0.1279813E+00
          1   -1    0    0  501    0  0.00000000000E+00  0.00000000000E+00  0.74444085184E+03  0.74444085184E+03  0.00000000000E+00 0. -1.
         -1   -1    0    0    0  501 -0.00000000000E+00 -0.00000000000E+00 -0.27899751426E+02  0.27899751426E+02  0.00000000000E+00 0.  1.
         25    2    1    2    0    0 -0.69574878182E+02  0.47947343439E+02  0.27126428294E+03  0.31043626369E+03  0.12508697455E+03 0.  0.
         23    2    1    2    0    0  0.69574878182E+02 -0.47947343439E+02  0.44527681747E+03  0.46190433957E+03  0.89132279883E+02 0.  0.
          5    1    3    3  502    0 -0.52657168780E+02 -0.89715411392E+00  0.24805689303E+03  0.25362034006E+03  0.41800000000E+01 0. -1.
         -5    1    3    3    0  502 -0.16917709402E+02  0.48844497553E+02  0.23207389907E+02  0.56815923638E+02  0.41800000000E+01 0. -1.
        -11    1    4    4    0    0  0.28205888973E+01 -0.25034058952E+02  0.24128847531E+02  0.34883536411E+02  0.00000000000E+00 0.  1.
         11    1    4    4    0    0  0.66754289285E+02 -0.22913284486E+02  0.42114796994E+03  0.42702080316E+03  0.00000000000E+00 0. -1.
</event>
<event>
 8    1  0.6849590E-009  0.1384619E+03  0.7561462E-02  0.1215414E+00
         -1   -1    0    0    0  501 -0.00000000000E+00  0.00000000000E+00  0.77315148407E+03  0.77315148407E+03  0.00000000000E+00 0.  1.
          1   -1    0    0  501    0  0.00000000000E+00 -0.00000000000E+00 -0.32966698491E+02  0.32966698491E+02  0.00000000000E+00 0. -1.
         25    2    1    2    0    0  0.10415312204E+03  0.49237038050E+02  0.37213972255E+03  0.40915454298E+03  0.12508920096E+03 0.  0.
         23    2    1    2    0    0 -0.10415312204E+03 -0.49237038050E+02  0.36804506303E+03  0.39696363958E+03  0.94078711630E+02 0.  0.
          5    1    3    3  502    0  0.88332319810E+02  0.10298374305E+02  0.10054866884E+03  0.13429878049E+03  0.41800000000E+01 0.  1.
         -5    1    3    3    0  502  0.15820802228E+02  0.38938663745E+02  0.27159105371E+03  0.27485576249E+03  0.41800000000E+01 0.  1.
        -11    1    4    4    0    0 -0.86680759083E+02  0.68124329762E+01  0.25768934624E+03  0.27196279599E+03  0.00000000000E+00 0.  1.
         11    1    4    4    0    0 -0.17472362955E+02 -0.56049471026E+02  0.11035571679E+03  0.12500084359E+03  0.00000000000E+00 0. -1.
</event>
<event>
 8    1  0.6849590E-009  0.5764147E+02  0.7561462E-02  0.1408005E+00
          1   -1    0    0  501    0  0.00000000000E+00  0.00000000000E+00  0.12173551724E+03  0.12173551724E+03  0.00000000000E+00 0. -1.
         -1   -1    0    0    0  501 -0.00000000000E+00 -0.00000000000E+00 -0.10031476886E+03  0.10031476886E+03  0.00000000000E+00 0.  1.
         25    2    1    2    0    0  0.12769040371E+02 -0.18400141445E+02  0.19506310197E+02  0.12856837855E+03  0.12509083990E+03 0.  0.
         23    2    1    2    0    0 -0.12769040371E+02  0.18400141445E+02  0.19144381874E+01  0.93481907558E+02  0.90739122599E+02 0.  0.
          5    1    3    3  502    0  0.16175308150E+02 -0.25362214515E+02 -0.50003011478E+02  0.58503470630E+02  0.41800000000E+01 0. -1.
         -5    1    3    3    0  502 -0.34062677791E+01  0.69620730700E+01  0.69509321675E+02  0.70064907916E+02  0.41800000000E+01 0. -1.
        -11    1    4    4    0    0  0.24786938244E+02 -0.12233518448E+02  0.27231900274E+02  0.38802418400E+02  0.00000000000E+00 0. -1.
         11    1    4    4    0    0 -0.37555978615E+02  0.30633659894E+02 -0.25317462087E+02  0.54679489159E+02  0.00000000000E+00 0.  1.
</event>
<event>
 8    1  0.6849590E-009  0.6910906E+02  0.7561462E-02  0.1363149E+00
         -1   -1    0    0    0  501 -0.00000000000E+00  0.00000000000E+00  0.28410842208E+02  0.28410842208E+02  0.00000000000E+00 0.  1.
          1   -1    0    0  501    0  0.00000000000E+00 -0.00000000000E+00 -0.90239772687E+03  0.90239772687E+03  0.00000000000E+00 0. -1.
         25    2    1    2    0    0 -0.30075819192E+02 -0.32797917676E+02 -0.78093928968E+03  0.79214481832E+03  0.12508789197E+03 0.  0.
         23    2    1    2    0    0  0.30075819192E+02  0.32797917676E+02 -0.93047594988E+02  0.13866375077E+03  0.92679677058E+02 0.  0.
          5    1    3    3  502    0  0.68663035691E+01  0.18628394303E+02 -0.60102655628E+03  0.60136890255E+03  0.41800000000E+01 0.  1.
         -5    1    3    3    0  502 -0.36942122761E+02 -0.51426311980E+02 -0.17991273340E+03  0.19077591577E+03  0.41800000000E+01 0.  1.
        -11    1    4    4    0    0  0.10693569949E+01  0.24191967854E+02  0.13623450613E+02  0.27784766323E+02  0.00000000000E+00 0.  1.
         11    1    4    4    0    0  0.29006462197E+02  0.86059498224E+01 -0.10667104560E+03  0.11087898444E+03  0.00000000000E+00 0. -1.
</event>
<event>
 8    1  0.6849590E-009  0.8625606E+02  0.7561462E-02  0.1312180E+00
         -1   -1    0    0    0  501 -0.00000000000E+00  0.00000000000E+00  0.26274309881E+03  0.26274309881E+03  0.00000000000E+00 0.  1.
          1   -1    0    0  501    0  0.00000000000E+00 -0.00000000000E+00 -0.46128833971E+02  0.46128833971E+02  0.00000000000E+00 0. -1.
         25    2    1    2    0    0 -0.12516884538E+01 -0.19853416753E+02  0.12188092661E+03  0.17577943046E+03  0.12509085905E+03 0.  0.
         23    2    1    2    0    0  0.12516884538E+01  0.19853416753E+02  0.94733338224E+02  0.13309250232E+03  0.91342673065E+02 0.  0.
          5    1    3    3  502    0 -0.13506806574E+02 -0.66010844829E+02  0.10524567979E+03  0.12503595872E+03  0.41800000000E+01 0. -1.
         -5    1    3    3    0  502  0.12255118120E+02  0.46157428076E+02  0.16635246820E+02  0.50743471733E+02  0.41800000000E+01 0. -1.
        -11    1    4    4    0    0 -0.13948130121E+01 -0.18533953875E+02 -0.10288229580E+02  0.21243837164E+02  0.00000000000E+00 0. -1.
         11    1    4    4    0    0  0.26465014659E+01  0.38387370628E+02  0.10502156780E+03  0.11184866516E+03  0.00000000000E+00 0.  1.
</event>
<event>
 8    1  0.6849590E-009  0.2794686E+03  0.7561462E-02  0.1095980E+00
         -2   -1    0    0    0  501 -0.00000000000E+00  0.00000000000E+00  0.79128986692E+03  0.79128986692E+03  0.00000000000E+00 0. -1.
          2   -1    0    0  501    0  0.00000000000E+00 -0.00000000000E+00 -0.12138820270E+03  0.12138820270E+03  0.00000000000E+00 0.  1.
         25    2    1    2    0    0 -0.26000524393E+03  0.25726951531E+02  0.15684034124E+03  0.32941052576E+03  0.12509116249E+03 0.  0.
         23    2    1    2    0    0  0.26000524393E+03 -0.25726951531E+02  0.51306132297E+03  0.58326754386E+03  0.93297929645E+02 0.  0.
          5    1    3    3  502    0 -0.17807254262E+03  0.75735297851E+02  0.10213545851E+03  0.21884878355E+03  0.41800000000E+01 0.  1.
         -5    1    3    3    0  502 -0.81932701311E+02 -0.50008346320E+02  0.54704882739E+02  0.11056174221E+03  0.41800000000E+01 0.  1.
        -11    1    4    4    0    0  0.12396388795E+03 -0.45051933840E+02  0.18151808864E+03  0.22437811560E+03  0.00000000000E+00 0.  1.
         11    1    4    4    0    0  0.13604135599E+03  0.19324982309E+02  0.33154323433E+03  0.35888942825E+03  0.00000000000E+00 0. -1.
</event>
<event>
 8    1  0.6849590E-009  0.1177397E+03  0.7561462E-02  0.1246873E+00
          2   -1    0    0  501    0  0.00000000000E+00  0.00000000000E+00  0.50675192976E+03  0.50675192976E+03  0.00000000000E+00 0.  1.
         -2   -1    0    0    0  501 -0.00000000000E+00 -0.00000000000E+00 -0.49016994928E+02  0.49016994928E+02  0.00000000000E+00 0. -1.
         25    2    1    2    0    0  0.61866527513E+02 -0.59755019767E+02  0.11305215239E+03  0.18927854170E+03  0.12508975807E+03 0.  0.
         23    2    1    2    0    0 -0.61866527513E+02  0.59755019767E+02  0.34468278244E+03  0.36649038299E+03  0.90060261465E+02 0.  0.
          5    1    3    3  502    0  0.88623810286E+00  0.18552834226E+02  0.83491728525E+02  0.85634888965E+02  0.41800000000E+01 0.  1.
         -5    1    3    3    0  502  0.60980289410E+02 -0.78307853993E+02  0.29560423861E+02  0.10364365273E+03  0.41800000000E+01 0.  1.
        -11    1    4    4    0    0 -0.53735379751E+02 -0.30032470402E+01  0.97847132533E+02  0.11167171475E+03  0.00000000000E+00 0. -1.
         11    1    4    4    0    0 -0.81311477616E+01  0.62758266807E+02  0.24683564991E+03  0.25481866824E+03  0.00000000000E+00 0.  1.
</event>
<event>
 8    1  0.6849590E-009  0.1988608E+03  0.7561462E-02  0.1150704E+00
         -1   -1    0    0    0  501 -0.00000000000E+00  0.00000000000E+00  0.63128633632E+02  0.63128633632E+02  0.00000000000E+00 0.  1.
          1   -1    0    0  501    0  0.00000000000E+00 -0.00000000000E+00 -0.73152015856E+03  0.73152015856E+03  0.00000000000E+00 0. -1.
         25    2    1    2    0    0 -0.13325223642E+03 -0.12407352517E+03 -0.41511634607E+03  0.47023274198E+03  0.12508738022E+03 0.  0.
         23    2    1    2    0    0  0.13325223642E+03  0.12407352517E+03 -0.25327517886E+03  0.32441605021E+03  0.89146280077E+02 0.  0.
          5    1    3    3  502    0 -0.13721080500E+03 -0.66658766690E+02 -0.35741475440E+03  0.38862961190E+03  0.41800000000E+01 0. -1.
         -5    1    3    3    0  502  0.39585685719E+01 -0.57414758481E+02 -0.57701591671E+02  0.81603130074E+02  0.41800000000E+01 0. -1.
        -11    1    4    4    0    0  0.28511588080E+02  0.52008705992E+01 -0.99467028304E+02  0.10360332731E+03  0.00000000000E+00 0. -1.
         11    1    4    4    0    0  0.10474064835E+03  0.11887265457E+03 -0.15380815055E+03  0.22081272290E+03  0.00000000000E+00 0.  1.
</event>
<event>
 8    1  0.6849590E-009  0.1916776E+03  0.7561462E-02  0.1156957E+00
          1   -1    0    0  501    0  0.00000000000E+00  0.00000000000E+00  0.27355568497E+03  0.27355568497E+03  0.00000000000E+00 0. -1.
         -1   -1    0    0    0  501 -0.00000000000E+00 -0.00000000000E+00 -0.15352207957E+03  0.15352207957E+03  0.00000000000E+00 0.  1.
         25    2    1    2    0    0  0.13078481316E+03 -0.88004688959E+02  0.13476988028E+03  0.24219844489E+03  0.12509066089E+03 0.  0.
         23    2    1    2    0    0 -0.13078481316E+03  0.88004688959E+02 -0.14736274882E+02  0.18487931966E+03  0.95465765646E+02 0.  0.
          5    1    3    3  502    0  0.15979858423E+02 -0.82478700746E+02  0.39868993663E+02  0.93086524307E+02  0.41800000000E+01 0.  1.
         -5    1    3    3    0  502  0.11480495473E+03 -0.55259882127E+01  0.94900886620E+02  0.14911192058E+03  0.41800000000E+01 0.  1.
        -11    1    4    4    0    0 -0.36284352585E+01  0.51921364113E+02 -0.19358347964E+01  0.52083980744E+02  0.00000000000E+00 0.  1.
         11    1    4    4    0    0 -0.12715637790E+03  0.36083324846E+02 -0.12800440085E+02  0.13279533892E+03  0.00000000000E+00 0. -1.
</event>
<event>
 7    1  0.6849590E-009  0.1662864E+03  0.7561462E-02  0.1181777E+00
          2   -1    0    0  501    0  0.00000000000E+00  0.00000000000E+00  0.38066370926E+03  0.38066370926E+03  0.00000000000E+00 0. -1.
         -2   -1    0    0    0  501 -0.00000000000E+00 -0.00000000000E+00 -0.85784298469E+02  0.85784298469E+02  0.00000000000E+00 0.  1.
         23    2    1    2    0    0 -0.93760540589E+02 -0.10814562655E+03  0.11579555203E+03  0.20533628901E+03  0.90927807630E+02 0.  0.
          5    1    1    2  502    0 -0.10770534362E+02  0.35030851175E+02  0.10991998512E+03  0.11594412652E+03  0.41800000000E+01 0.  1.
         -5    1    1    2    0  502  0.10453107495E+03  0.73114775377E+02  0.69163873641E+02  0.14516759220E+03  0.41800000000E+01 0.  1.
        -11    1    3    3    0    0  0.88241441672E+01 -0.48693285099E+02  0.47037977246E+02  0.68274979585E+02  0.00000000000E+00 0. -1.
         11    1    3    3    0    0 -0.10258468476E+03 -0.59452341454E+02  0.68757574782E+02  0.13706130942E+03  0.00000000000E+00 0.  1.
</event>
<event>
 8    1  0.6849590E-009  0.1580797E+03  0.7561462E-02  0.1190882E+00
          1   -1    0    0  501    0  0.00000000000E+00  0.00000000000E+00  0.71293888551E+02  0.71293888551E+02  0.00000000000E+00 0. -1.
         -1   -1    0    0    0  501 -0.00000000000E+00 -0.00000000000E+00 -0.94031398939E+03  0.94031398939E+03  0.00000000000E+00 0.  1.
         25    2    1    2    0    0  0.12965748455E+03  0.56476621301E+02 -0.80403826270E+02  0.20521415476E+03  0.12508957583E+03 0.  0.
         23    2    1    2    0    0 -0.12965748455E+03 -0.56476621301E+02 -0.78861627457E+03  0.80639372318E+03  0.91403152121E+02 0.  0.
          5    1    3    3  502    0  0.43185991261E+02  0.45423325769E+02 -0.97787325794E+02  0.11622453205E+03  0.41800000000E+01 0. -1.
         -5    1    3    3    0  502  0.86471493289E+02  0.11053295532E+02  0.17383499524E+02  0.88989622706E+02  0.41800000000E+01 0. -1.
        -11    1    4    4    0    0 -0.72488773751E+02 -0.76599971464E+02 -0.56220020294E+03  0.57200633400E+03  0.00000000000E+00 0. -1.
         11    1    4    4    0    0 -0.57168710798E+02  0.20123350163E+02 -0.22641607162E+03  0.23438738918E+03  0.00000000000E+00 0.  1.
</event>
<event>
 8    1  0.6849590E-009  0.9447979E+02  0.7561462E-02  0.1292352E+00
         -2   -1    0    0    0  501 -0.00000000000E+00  0.00000000000E+00  0.12573635528E+03  0.12573635528E+03  0.00000000000E+00 0.  1.
          2   -1    0    0  501    0  0.00000000000E+00 -0.00000000000E+00 -0.17724069750E+03  0.17724069750E+03  0.00000000000E+00 0. -1.
         25    2    1    2    0    0  0.81650959064E+02  0.29621927600E+01 -0.90452495768E+02  0.17466135671E+03  0.12509708963E+03 0.  0.
         23    2    1    2    0    0 -0.81650959064E+02 -0.29621927600E+01  0.38948153552E+02  0.12831569607E+03  0.90952215423E+02 0.  0.
          5    1    3    3  502    0  0.58565019432E+02 -0.28014706515E+02 -0.11252080785E+03  0.12997341991E+03  0.41800000000E+01 0.  1.
         -5    1    3    3    0  502  0.23085939633E+02  0.30976899275E+02  0.22068312085E+02  0.44687936803E+02  0.41800000000E+01 0.  1.
        -11    1    4    4    0    0 -0.51662308922E+02 -0.13262565461E+02 -0.23495100320E+02  0.58283012489E+02  0.00000000000E+00 0. -1.
         11    1    4    4    0    0 -0.29988650142E+02  0.10300372701E+02  0.62443253873E+02  0.70032683579E+02  0.00000000000E+00 0.  1.
</event>
<event>
 8    1  0.6849590E-009  0.9298537E+02  0.7561462E-02  0.1295779E+00
         -2   -1    0    0    0  501 -0.00000000000E+00  0.00000000000E+00  0.10957575014E+02  0.10957575014E+02  0.00000000000E+00 0.  1.
          2   -1    0    0  501    0  0.00000000000E+00 -0.00000000000E+00 -0.12804869349E+04  0.12804869349E+04  0.00000000000E+00 0. -1.
         25    2    1    2    0    0 -0.12162471330E+02 -0.29807987987E+02 -0.92643331656E+03  0.93539482798E+03  0.12509337441E+03 0.  0.
         23    2    1    2    0    0  0.12162471330E+02  0.29807987987E+02 -0.34309604328E+03  0.35604968189E+03  0.89554671579E+02 0.  0.
          5    1    3    3  502    0  0.16697696228E+02 -0.52230614691E+02 -0.83542907213E+03  0.83723715704E+03  0.41800000000E+01 0. -1.
         -5    1    3    3    0  502 -0.28860167558E+02  0.22422626704E+02 -0.91004244434E+02  0.98157670942E+02  0.41800000000E+01 0. -1.
        -11    1    4    4    0    0  0.23326926309E+02 -0.27353877683E+02 -0.10707745714E+03  0.11295114848E+03  0.00000000000E+00 0.  1.
         11    1    4    4    0    0 -0.11164454979E+02  0.57161865670E+02 -0.23601858614E+03  0.24309853341E+03  0.00000000000E+00 0. -1.
</event>
<event>
 8    1  0.6849590E-009  0.9658090E+02  0.7561462E-02  0.1287655E+00
          1   -1    0    0  501    0  0.00000000000E+00  0.00000000000E+00  0.33202197024E+03  0.33202197024E+03  0.00000000000E+00 0. -1.
         -1   -1    0    0    0  501 -0.00000000000E+00 -0.00000000000E+00 -0.53063573696E+02  0.53063573696E+02  0.00000000000E+00 0.  1.
         25    2    1    2    0    0 -0.13489829826E+02 -0.60685850142E+02  0.21760543374E+03  0.25858176428E+03  0.12509059161E+03 0.  0.
         23    2    1    2    0    0  0.13489829826E+02  0.60685850142E+02  0.61352962802E+02  0.12650377965E+03  0.91511050181E+02 0.  0.
          5    1    3    3  502    0 -0.22518494893E+02 -0.92885614566E+02  0.19720852557E+03  0.21918826374E+03  0.41800000000E+01 0. -1.
         -5    1    3    3    0  502  0.90286650671E+01  0.32199764424E+02  0.20396908171E+02  0.39393500540E+02  0.41800000000E+01 0. -1.
        -11    1    4    4    0    0  0.90215084443E+01  0.12585563828E+02 -0.23922057493E+02  0.28496471118E+02  0.00000000000E+00 0.  1.
         11    1    4    4    0    0  0.44683213819E+01  0.48100286314E+02  0.85275020295E+02  0.98007308533E+02  0.00000000000E+00 0. -1.
</event>
<event>
 8    1  0.6849590E-009  0.2160669E+03  0.7561462E-02  0.1136850E+00
          2   -1    0    0  501    0  0.00000000000E+00  0.00000000000E+00  0.13571599691E+03  0.13571599691E+03  0.00000000000E+00 0. -1.
         -2   -1    0    0    0  501 -0.00000000000E+00 -0.00000000000E+00 -0.41813493628E+03  0.41813493628E+03  0.00000000000E+00 0.  1.
         25    2    1    2    0    0 -0.17957054256E+03  0.11280222189E+03 -0.15307966215E+03  0.28991377282E+03  0.12508673665E+03 0.  0.
         23    2    1    2    0    0  0.17957054256E+03 -0.11280222189E+03 -0.12933927721E+03  0.26393716037E+03  0.89242674640E+02 0.  0.
          5    1    3    3  502    0 -0.15429386261E+03  0.71109683215E+02 -0.16778714779E+03  0.23881621061E+03  0.41800000000E+01 0. -1.
         -5    1    3    3    0  502 -0.25276679945E+02  0.41692538676E+02  0.14707485631E+02  0.51097562210E+02  0.41800000000E+01 0. -1.
        -11    1    4    4    0    0  0.77353280704E+02 -0.61866427149E+02 -0.11299590566E+02  0.99692856267E+02  0.00000000000E+00 0. -1.
         11    1    4    4    0    0  0.10221726185E+03 -0.50935794741E+02 -0.11803968664E+03  0.16424430410E+03  0.00000000000E+00 0.  1.
</event>
<event>
 8    1  0.6849590E-009  0.8346774E+02  0.7561462E-02  0.1319489E+00
         -3   -1    0    0    0  501 -0.00000000000E+00  0.00000000000E+00  0.66604289761E+02  0.66604289761E+02  0.00000000000E+00 0.  1.
          3   -1    0    0  501    0  0.00000000000E+00 -0.00000000000E+00 -0.23560974283E+03  0.23560974283E+03  0.00000000000E+00 0. -1.
         25    2    1    2    0    0 -0.27302730970E+02 -0.46024481416E+02 -0.13675184231E+03  0.19290336583E+03  0.12508776985E+03 0.  0.
         23    2    1    2    0    0  0.27302730970E+02  0.46024481416E+02 -0.32253610759E+02  0.10931066676E+03  0.89693001133E+02 0.  0.
          5    1    3    3  502    0 -0.35766762347E+02  0.15719879710E+02  0.34241041361E+01  0.39440750449E+02  0.41800000000E+01 0.  1.
         -5    1    3    3    0  502  0.84640313771E+01 -0.61744361126E+02 -0.14017594644E+03  0.15346261538E+03  0.41800000000E+01 0.  1.
        -11    1    4    4    0    0 -0.27072721586E+00  0.35758124698E+02  0.25889245754E+02  0.44147138309E+02  0.00000000000E+00 0.  1.
         11    1    4    4    0    0  0.27573458186E+02  0.10266356718E+02 -0.58142856513E+02  0.65163528450E+02  0.00000000000E+00 0. -1.
</event>
<event>
 8    1  0.6849590E-009  0.1434832E+03  0.7561462E-02  0.1208718E+00
         -3   -1    0    0    0  501 -0.00000000000E+00  0.00000000000E+00  0.60046952745E+02  0.60046952745E+02  0.00000000000E+00 0.  1.
          3   -1    0    0  501    0  0.00000000000E+00 -0.00000000000E+00 -0.37385772403E+03  0.37385772403E+03  0.00000000000E+00 0. -1.
         25    2    1    2    0    0  0.78793919110E+02  0.63828314051E+02 -0.13757689024E+03  0.21179660835E+03  0.12509143542E+03 0.  0.
         23    2    1    2    0    0 -0.78793919110E+02 -0.63828314051E+02 -0.17623388104E+03  0.22210806843E+03  0.89392828954E+02 0.  0.
          5    1    3    3  502    0 -0.20192821652E+02  0.52694697038E+02 -0.75500172408E+02  0.94351627309E+02  0.41800000000E+01 0.  1.
         -5    1    3    3    0  502  0.98986740762E+02  0.11133617012E+02 -0.62076717828E+02  0.11744498104E+03  0.41800000000E+01 0.  1.
        -11    1    4    4    0    0 -0.26144079763E+02 -0.72728747504E+02 -0.13113250008E+03  0.15221273336E+03  0.00000000000E+00 0. -1.
         11    1    4    4    0    0 -0.52649839347E+02  0.89004334529E+01 -0.45101380967E+02  0.69895335066E+02  0.00000000000E+00 0.  1.
</event>
<event>
 8    1  0.6849590E-009  0.9697713E+02  0.7561462E-02  0.1286784E+00
         -4   -1    0    0    0  501 -0.00000000000E+00  0.00000000000E+00  0.62740932184E+02  0.62740932184E+02  0.00000000000E+00 0.  1.
          4   -1    0    0  501    0  0.00000000000E+00 -0.00000000000E+00 -0.25296615834E+03  0.25296615834E+03  0.00000000000E+00 0. -1.
         25    2    1    2    0    0  0.14481843939E+01  0.35996394253E+02 -0.39353399371E+02  0.13599776875E+03  0.12509542528E+03 0.  0.
         23    2    1    2    0    0 -0.14481843939E+01 -0.35996394253E+02 -0.15087182678E+03  0.17970932177E+03  0.90748523835E+02 0.  0.
          5    1    3    3  502    0 -0.39045955098E+02  0.61740322597E+02 -0.47374577779E+02  0.87168096593E+02  0.41800000000E+01 0.  1.
         -5    1    3    3    0  502  0.40494139492E+02 -0.25743928345E+02  0.80211784078E+01  0.48829672156E+02  0.41800000000E+01 0.  1.
        -11    1    4    4    0    0  0.29727590871E+02 -0.81711449904E+01 -0.94543463253E+01  0.32247200404E+02  0.00000000000E+00 0.  1.
         11    1    4    4    0    0 -0.31175775265E+02 -0.27825249263E+02 -0.14141748046E+03  0.14746212137E+03  0.00000000000E+00 0. -1.
</event>
<event>
 8    1  0.6849590E-009  0.8888034E+02  0.7561462E-02  0.1305586E+00
         -1   -1    0    0    0  501 -0.00000000000E+00  0.00000000000E+00  0.10185419042E+03  0.10185419042E+03  0.00000000000E+00 0.  1.
          1   -1    0    0  501    0  0.00000000000E+00 -0.00000000000E+00 -0.18473740705E+03  0.18473740705E+03  0.00000000000E+00 0. -1.
         25    2    1    2    0    0  0.71389611982E+02  0.39288917852E+02 -0.52518364507E+02  0.15825258639E+03  0.12508239974E+03 0.  0.
         23    2    1    2    0    0 -0.71389611982E+02 -0.39288917852E+02 -0.30364852121E+02  0.12833901108E+03  0.94386343058E+02 0.  0.
          5    1    3    3  502    0  0.40143877430E+02  0.38936021237E+02 -0.91989763897E+02  0.10773640846E+03  0.41800000000E+01 0. -1.
         -5    1    3    3    0  502  0.31245734552E+02  0.35289661473E+00  0.39471399390E+02  0.50516177939E+02  0.41800000000E+01 0. -1.
        -11    1    4    4    0    0 -0.53279058975E+02 -0.78254402433E+01  0.27163380822E+02  0.60313720644E+02  0.00000000000E+00 0.  1.
         11    1    4    4    0    0 -0.18110553007E+02 -0.31463477609E+02 -0.57528232943E+02  0.68025290437E+02  0.00000000000E+00 0. -1.
</event>
<event>
 8    1  0.6849590E-009  0.1381998E+03  0.7561462E-02  0.1215772E+00
          2   -1    0    0  501    0  0.00000000000E+00  0.00000000000E+00  0.51324881156E+03  0.51324881156E+03  0.00000000000E+00 0. -1.
         -2   -1    0    0    0  501 -0.00000000000E+00 -0.00000000000E+00 -0.42069689838E+02  0.42069689838E+02  0.00000000000E+00 0.  1.
         25    2    1    2    0    0  0.74915585657E+02 -0.62427887694E+02  0.23268885875E+03  0.28160164688E+03  0.12508315795E+03 0.  0.
         23    2    1    2    0    0 -0.74915585657E+02  0.62427887694E+02  0.23849026297E+03  0.27371685451E+03  0.92378161802E+02 0.  0.
          5    1    3    3  502    0  0.95344319233E+02 -0.71833196358E+02  0.13062341254E+03  0.17700422484E+03  0.41800000000E+01 0. -1.
         -5    1    3    3    0  502 -0.20428733576E+02  0.94053086646E+01  0.10206544621E+03  0.10459742204E+03  0.41800000000E+01 0. -1.
        -11    1    4    4    0    0 -0.70079630922E+02  0.85472538537E+02  0.18996476440E+03  0.21978016569E+03  0.00000000000E+00 0.  1.
         11    1    4    4    0    0 -0.48359547351E+01 -0.23044650844E+02  0.48525498564E+02  0.53936688827E+02  0.00000000000E+00 0. -1.
</event>
<event>
 8    1  0.6849590E-009  0.8436529E+02  0.7561462E-02  0.1317101E+00
          1   -1    0    0  501    0  0.00000000000E+00  0.00000000000E+00  0.42272323222E+02  0.42272323222E+02  0.00000000000E+00 0. -1.
         -1   -1    0    0    0  501 -0.00000000000E+00 -0.00000000000E+00 -0.30158438962E+03  0.30158438962E+03  0.00000000000E+00 0.  1.
         25    2    1    2    0    0 -0.24948402960E+02 -0.22542671223E+02 -0.16455606476E+03  0.20942245240E+03  0.12509384591E+03 0.  0.
         23    2    1    2    0    0  0.24948402960E+02  0.22542671223E+02 -0.94756001637E+02  0.13443426044E+03  0.89237187864E+02 0.  0.
          5    1    3    3  502    0  0.28576671177E+01 -0.52733917183E+02 -0.15924381251E+03  0.16782460042E+03  0.41800000000E+01 0.  1.
         -5    1    3    3    0  502 -0.27806070077E+02  0.30191245960E+02 -0.53122522511E+01  0.41597851985E+02  0.41800000000E+01 0.  1.
        -11    1    4    4    0    0 -0.16375118389E+02 -0.12271496129E+02 -0.73624463065E+02  0.76415284342E+02  0.00000000000E+00 0.  1.
         11    1    4    4    0    0  0.41323521348E+02  0.34814167352E+02 -0.21131538572E+02  0.58018976098E+02  0.00000000000E+00 0. -1.
</event>
<event>
 8    1  0.6849590E-009  0.8677759E+02  0.7561462E-02  0.1310848E+00
          1   -1    0    0  501    0  0.00000000000E+00  0.00000000000E+00  0.47714475710E+03  0.47714475710E+03  0.00000000000E+00 0. -1.
         -1   -1    0    0    0  501 -0.00000000000E+00 -0.00000000000E+00 -0.36114495851E+02  0.36114495851E+02  0.00000000000E+00 0.  1.
         25    2    1    2    0    0 -0.35615395373E+02  0.59150597626E+02  0.24841073219E+03  0.28657070326E+03  0.12509047331E+03 0.  0.
         23    2    1    2    0    0  0.35615395373E+02 -0.59150597626E+02  0.19261952906E+03  0.22668854969E+03  0.97561088550E+02 0.  0.
          5    1    3    3  502    0 -0.36389950720E+02  0.65217738114E+02  0.54574174691E+02  0.92592628331E+02  0.41800000000E+01 0. -1.
         -5    1    3    3    0  502  0.77455534682E+00 -0.60671404883E+01  0.19383655750E+03  0.19397807493E+03  0.41800000000E+01 0. -1.
        -11    1    4    4    0    0 -0.16995447138E+02 -0.14805459423E+02  0.41993417562E+00  0.22543806175E+02  0.00000000000E+00 0.  1.
         11    1    4    4    0    0  0.52610842511E+02 -0.44345138203E+02  0.19219959488E+03  0.20414474352E+03  0.00000000000E+00 0. -1.
</event>
<event>
 8    1  0.6849590E-009  0.1040527E+03  0.7561462E-02  0.1271997E+00
          1   -1    0    0  501    0  0.00000000000E+00  0.00000000000E+00  0.28358698335E+03  0.28358698335E+03  0.00000000000E+00 0. -1.
         -1   -1    0    0    0  501 -0.00000000000E+00 -0.00000000000E+00 -0.59293329637E+02  0.59293329637E+02  0.00000000000E+00 0.  1.
         25    2    1    2    0    0  0.32141816045E+02  0.62827354770E+02  0.13351366133E+03  0.19609755945E+03  0.12509189507E+03 0.  0.
         23    2    1    2    0    0 -0.32141816045E+02 -0.62827354770E+02  0.90779992377E+02  0.14678275353E+03  0.91234844621E+02 0.  0.
          5    1    3    3  502    0  0.23377126499E+02 -0.23755399500E+02  0.95140287384E+02  0.10089576667E+03  0.41800000000E+01 0.  1.
         -5    1    3    3    0  502  0.87646895458E+01  0.86582754270E+02  0.38373373949E+02  0.95201792777E+02  0.41800000000E+01 0.  1.
        -11    1    4    4    0    0 -0.43735851889E+02 -0.31254715446E+02  0.42238343046E+01  0.53921449853E+02  0.00000000000E+00 0.  1.
         11    1    4    4    0    0  0.11594035844E+02 -0.31572639324E+02  0.86556158072E+02  0.92861303681E+02  0.00000000000E+00 0. -1.
</event>
<event>
 8    1  0.6849590E-009  0.1107945E+03  0.7561462E-02  0.1259106E+00
          1   -1    0    0  501    0  0.00000000000E+00  0.00000000000E+00  0.24246973780E+03  0.24246973780E+03  0.00000000000E+00 0. -1.
         -1   -1    0    0    0  501 -0.00000000000E+00 -0.00000000000E+00 -0.92655135396E+02  0.92655135396E+02  0.00000000000E+00 0.  1.
         25    2    1    2    0    0 -0.37663331282E+02  0.62651794818E+02  0.16633389957E+03  0.22058436772E+03  0.12508686270E+03 0.  0.
         23    2    1    2    0    0  0.37663331282E+02 -0.62651794818E+02 -0.16519297166E+02  0.11454050548E+03  0.86619087382E+02 0.  0.
          5    1    3    3  502    0 -0.58849052502E+02  0.63815354686E+02  0.17646356008E+03  0.19670401854E+03  0.41800000000E+01 0.  1.
         -5    1    3    3    0  502  0.21185721220E+02 -0.11635598678E+01 -0.10129660505E+02  0.23880349183E+02  0.41800000000E+01 0.  1.
        -11    1    4    4    0    0  0.60361898176E+02 -0.18038678421E+02 -0.51480335422E+01  0.63209610978E+02  0.00000000000E+00 0.  1.
         11    1    4    4    0    0 -0.22698566894E+02 -0.44613116397E+02 -0.11371263623E+02  0.51330894499E+02  0.00000000000E+00 0. -1.
</event>
<event>
 8    1  0.6849590E-009  0.8002873E+02  0.7561462E-02  0.1328970E+00
          2   -1    0    0  501    0  0.00000000000E+00  0.00000000000E+00  0.26761796836E+03  0.26761796836E+03  0.00000000000E+00 0. -1.
         -2   -1    0    0    0  501 -0.00000000000E+00 -0.00000000000E+00 -0.57139418147E+02  0.57139418147E+02  0.00000000000E+00 0.  1.
         25    2    1    2    0    0  0.45438169756E+02 -0.49343620574E+01  0.67563708853E+02  0.14933652257E+03  0.12509023551E+03 0.  0.
         23    2    1    2    0    0 -0.45438169756E+02  0.49343620574E+01  0.14291484136E+03  0.17542086393E+03  0.90878228541E+02 0.  0.
          5    1    3    3  502    0  0.10982646134E+02  0.23643749979E+02 -0.31169204793E+02  0.40848955392E+02  0.41800000000E+01 0.  1.
         -5    1    3    3    0  502  0.34455523622E+02 -0.28578112037E+02  0.98732913646E+02  0.10848756718E+03  0.41800000000E+01 0.  1.
        -11    1    4    4    0    0 -0.31968876013E+02 -0.34493455791E+02  0.31854978110E+02  0.56802703776E+02  0.00000000000E+00 0.  1.
         11    1    4    4    0    0 -0.13469293743E+02  0.39427817848E+02  0.11105986325E+03  0.11861816016E+03  0.00000000000E+00 0. -1.
</event>
<event>
 8    1  0.6849590E-009  0.1331620E+03  0.7561462E-02  0.1222838E+00
         -4   -1    0    0    0  501 -0.00000000000E+00  0.00000000000E+00  0.19535123529E+03  0.19535123529E+03  0.00000000000E+00 0. -1.
          4   -1    0    0  501    0  0.00000000000E+00 -0.00000000000E+00 -0.13883104556E+03  0.13883104556E+03  0.00000000000E+00 0.  1.
         25    2    1    2    0    0 -0.35752035055E+02  0.85078457198E+02 -0.49208674153E+02  0.16304860928E+03  0.12508718354E+03 0.  0.
         23    2    1    2    0    0  0.35752035055E+02 -0.85078457198E+02  0.10572886388E+03  0.17113367157E+03  0.97936658094E+02 0.  0.
          5    1    3    3  502    0 -0.30656677529E+02 -0.13056715894E+02 -0.55087576285E+02  0.64516844064E+02  0.41800000000E+01 0. -1.
         -5    1    3    3    0  502 -0.50953575267E+01  0.98135173091E+02  0.58789021315E+01  0.98531765214E+02  0.41800000000E+01 0. -1.
        -11    1    4    4    0    0 -0.25511893525E+02  0.44549163715E+01  0.23968102208E+02  0.35287007730E+02  0.00000000000E+00 0. -1.
         11    1    4    4    0    0  0.61263928580E+02 -0.89533373569E+02  0.81760761669E+02  0.13584666384E+03  0.00000000000E+00 0.  1.
</event>
<event>
 8    1  0.6849590E-009  0.1307906E+03  0.7561462E-02  0.1226287E+00
         -4   -1    0    0    0  501 -0.00000000000E+00  0.00000000000E+00  0.15939523104E+03  0.15939523104E+03  0.00000000000E+00 0.  1.
          4   -1    0    0  501    0  0.00000000000E+00 -0.00000000000E+00 -0.14299688468E+03  0.14299688468E+03  0.00000000000E+00 0. -1.
         25    2    1    2    0    0  0.77275683785E+02  0.58549807713E+02  0.44940990132E+02  0.16451980458E+03  0.12508981659E+03 0.  0.
         23    2    1    2    0    0 -0.77275683785E+02 -0.58549807713E+02 -0.28542643780E+02  0.13787231115E+03  0.93778890902E+02 0.  0.
          5    1    3    3  502    0  0.76235665449E+00  0.75583876124E+02  0.40597364392E+02  0.85901815541E+02  0.41800000000E+01 0. -1.
         -5    1    3    3    0  502  0.76513327131E+02 -0.17034068411E+02  0.43436257399E+01  0.78617989035E+02  0.41800000000E+01 0. -1.
        -11    1    4    4    0    0 -0.80037335167E+02 -0.41592403672E+02 -0.55499358513E+02  0.10590600483E+03  0.00000000000E+00 0. -1.
         11    1    4    4    0    0  0.27616513821E+01 -0.16957404041E+02  0.26956714733E+02  0.31966306314E+02  0.00000000000E+00 0.  1.
</event>
<event>
 8    1  0.6849590E-009  0.1217485E+03  0.7561462E-02  0.1240240E+00
         -1   -1    0    0    0  501 -0.00000000000E+00  0.00000000000E+00  0.26710637932E+02  0.26710637932E+02  0.00000000000E+00 0.  1.
          1   -1    0    0  501    0  0.00000000000E+00 -0.00000000000E+00 -0.62253163113E+03  0.62253163113E+03  0.00000000000E+00 0. -1.
         25    2    1    2    0    0  0.55146670432E+02  0.33791783234E+02 -0.39667318280E+03  0.42092796626E+03  0.12509076285E+03 0.  0.
         23    2    1    2    0    0 -0.55146670432E+02 -0.33791783234E+02 -0.19914781039E+03  0.22831430280E+03  0.91019396865E+02 0.  0.
          5    1    3    3  502    0 -0.14565248265E+02 -0.37828873401E+02 -0.11923733015E+03  0.12600866407E+03  0.41800000000E+01 0. -1.
         -5    1    3    3    0  502  0.69711918698E+02  0.71620656635E+02 -0.27743585266E+03  0.29491930219E+03  0.41800000000E+01 0. -1.
        -11    1    4    4    0    0  0.62248049592E+01  0.20097346354E+02 -0.12238758755E+02  0.24340064567E+02  0.00000000000E+00 0.  1.
         11    1    4    4    0    0 -0.61371475392E+02 -0.53889129587E+02 -0.18690905164E+03  0.20397423824E+03  0.00000000000E+00 0. -1.
</event>
<event>
 8    1  0.6849590E-009  0.1342085E+03  0.7561462E-02  0.1221341E+00
         -1   -1    0    0    0  501 -0.00000000000E+00  0.00000000000E+00  0.30318256928E+02  0.30318256928E+02  0.00000000000E+00 0.  1.
          1   -1    0    0  501    0  0.00000000000E+00 -0.00000000000E+00 -0.10807274767E+04  0.10807274767E+04  0.00000000000E+00 0. -1.
         25    2    1    2    0    0  0.10089876224E+03 -0.77006007493E+02 -0.34138280085E+03  0.38509751688E+03  0.12508954944E+03 0.  0.
         23    2    1    2    0    0 -0.10089876224E+03  0.77006007493E+02 -0.70902641891E+03  0.72594821674E+03  0.90398369807E+02 0.  0.
          5    1    3    3  502    0  0.14197940004E+02 -0.24770627952E+02 -0.24016088333E+03  0.24188817208E+03  0.41800000000E+01 0.  1.
         -5    1    3    3    0  502  0.86700822231E+02 -0.52235379541E+02 -0.10122191752E+03  0.14320934480E+03  0.41800000000E+01 0.  1.
        -11    1    4    4    0    0 -0.20965267287E+02 -0.71850553869E+01 -0.31307334685E+02  0.38357745742E+02  0.00000000000E+00 0.  1.
         11    1    4    4    0    0 -0.79933494949E+02  0.84191062880E+02 -0.67771908423E+03  0.68759047100E+03  0.00000000000E+00 0. -1.
</event>
<event>
 8    1  0.6849590E-009  0.1775403E+03  0.7561462E-02  0.1170205E+00
         -2   -1    0    0    0  501 -0.00000000000E+00  0.00000000000E+00  0.51853956734E+02  0.51853956734E+02  0.00000000000E+00 0.  1.
          2   -1    0    0  501    0  0.00000000000E+00 -0.00000000000E+00 -0.63707756611E+03  0.63707756611E+03  0.00000000000E+00 0. -1.
         25    2    1    2    0    0  0.14073013102E+03 -0.15337498459E+02 -0.36245888332E+03  0.40873446950E+03  0.12508883173E+03 0.  0.
         23    2    1    2    0    0 -0.14073013102E+03  0.15337498459E+02 -0.22276472606E+03  0.28019705335E+03  0.94053478901E+02 0.  0.
          5    1    3    3  502    0  0.16239012231E+03 -0.73373010529E+00 -0.31022261950E+03  0.35018086218E+03  0.41800000000E+01 0.  1.
         -5    1    3    3    0  502 -0.21659991291E+02 -0.14603768353E+02 -0.52236263820E+02  0.58553607325E+02  0.41800000000E+01 0.  1.
        -11    1    4    4    0    0 -0.16107836809E+02 -0.29603041617E+02 -0.24178026092E+02  0.41477456833E+02  0.00000000000E+00 0.  1.
         11    1    4    4    0    0 -0.12462229421E+03  0.44940540076E+02 -0.19858669996E+03  0.23871959651E+03  0.00000000000E+00 0. -1.
</event>
<event>
 8    1  0.6849590E-009  0.9619878E+02  0.7561462E-02  0.1288499E+00
          2   -1    0    0  501    0  0.00000000000E+00  0.00000000000E+00  0.25711016680E+03  0.25711016680E+03  0.00000000000E+00 0.  1.
         -2   -1    0    0    0  501 -0.00000000000E+00 -0.00000000000E+00 -0.62132906422E+02  0.62132906422E+02  0.00000000000E+00 0. -1.
         25    2    1    2    0    0 -0.46671889500E+02  0.45303327647E+02  0.11260145808E+03  0.18044009933E+03  0.12509550079E+03 0.  0.
         23    2    1    2    0    0  0.46671889500E+02 -0.45303327647E+02  0.82375802291E+02  0.13880297389E+03  0.90828607792E+02 0.  0.
          5    1    3    3  502    0 -0.65421400297E+02  0.39554481421E+02  0.13196368909E+03  0.15256606522E+03  0.41800000000E+01 0. -1.
         -5    1    3    3    0  502  0.18749510797E+02  0.57488462254E+01 -0.19362231006E+02  0.27874034110E+02  0.41800000000E+01 0. -1.
        -11    1    4    4    0    0  0.32748839637E+02  0.13448985602E+02 -0.15236837547E+01  0.35435622239E+02  0.00000000000E+00 0. -1.
         11    1    4    4    0    0  0.13923049863E+02 -0.58752313248E+02  0.83899486046E+02  0.10336735166E+03  0.00000000000E+00 0.  1.
</event>
<event>
 8    1  0.6849590E-009  0.1351485E+03  0.7561462E-02  0.1220010E+00
         -1   -1    0    0    0  501 -0.00000000000E+00  0.00000000000E+00  0.67196341547E+02  0.67196341547E+02  0.00000000000E+00 0.  1.
          1   -1    0    0  501    0  0.00000000000E+00 -0.00000000000E+00 -0.41971269325E+03  0.41971269325E+03  0.00000000000E+00 0. -1.
         25    2    1    2    0    0 -0.28647547659E+02 -0.86517987008E+02 -0.31684612314E+03  0.35262480042E+03  0.12508693002E+03 0.  0.
         23    2    1    2    0    0  0.28647547659E+02  0.86517987008E+02 -0.35670228563E+02  0.13428423437E+03  0.91944800465E+02 0.  0.
          5    1    3    3  502    0 -0.11320307885E+02  0.25272979268E+02 -0.13909960105E+03  0.14189095907E+03  0.41800000000E+01 0. -1.
         -5    1    3    3    0  502 -0.17327239774E+02 -0.11179096628E+03 -0.17774652208E+03  0.21073384135E+03  0.41800000000E+01 0. -1.
        -11    1    4    4    0    0 -0.19493085193E+02  0.77748462193E+02 -0.17186186273E+02  0.81976635344E+02  0.00000000000E+00 0. -1.
         11    1    4    4    0    0  0.48140632851E+02  0.87695248155E+01 -0.18484042290E+02  0.52307599029E+02  0.00000000000E+00 0.  1.
</event>
<event>
 8    1  0.6849590E-009  0.1044171E+03  0.7561462E-02  0.1271272E+00
         -2   -1    0    0    0  501 -0.00000000000E+00  0.00000000000E+00  0.21118495413E+02  0.21118495413E+02  0.00000000000E+00 0.  1.
          2   -1    0    0  501    0  0.00000000000E+00 -0.00000000000E+00 -0.56477230150E+03  0.56477230150E+03  0.00000000000E+00 0. -1.
         25    2    1    2    0    0  0.82974085646E+01  0.10040431496E+02 -0.28502429951E+03  0.31153657499E+03  0.12508608634E+03 0.  0.
         23    2    1    2    0    0 -0.82974085646E+01 -0.10040431496E+02 -0.25862950658E+03  0.27435422192E+03  0.90616555653E+02 0.  0.
          5    1    3    3  502    0  0.55260975328E+02 -0.22916116994E+02 -0.89566920443E+02  0.10778974650E+03  0.41800000000E+01 0.  1.
         -5    1    3    3    0  502 -0.46963566763E+02  0.32956548489E+02 -0.19545737906E+03  0.20374682850E+03  0.41800000000E+01 0.  1.
        -11    1    4    4    0    0 -0.47704084789E+02 -0.18268202490E+02 -0.15377265560E+03  0.16203529411E+03  0.00000000000E+00 0. -1.
         11    1    4    4    0    0  0.39406676224E+02  0.82277709946E+01 -0.10485685098E+03  0.11231892781E+03  0.00000000000E+00 0.  1.
</event>
<event>
 8    1  0.6849590E-009  0.1670418E+03  0.7561462E-02  0.1180968E+00
          2   -1    0    0  501    0  0.00000000000E+00  0.00000000000E+00  0.74336358653E+03  0.74336358653E+03  0.00000000000E+00 0. -1.
         -2   -1    0    0    0  501 -0.00000000000E+00 -0.00000000000E+00 -0.40169633527E+02  0.40169633527E+02  0.00000000000E+00 0.  1.
         25    2    1    2    0    0 -0.12918553232E+03 -0.53463785731E+01  0.29452962990E+03  0.34512836969E+03  0.12509357757E+03 0.  0.
         23    2    1    2    0    0  0.12918553232E+03  0.53463785731E+01  0.40866432310E+03  0.43840485036E+03  0.92058667837E+02 0.  0.
          5    1    3    3  502    0 -0.84742986197E+02 -0.63060054057E+02  0.15408990720E+03  0.18686657280E+03  0.41800000000E+01 0.  1.
         -5    1    3    3    0  502 -0.44442546126E+02  0.57713675484E+02  0.14043972270E+03  0.15826179689E+03  0.41800000000E+01 0.  1.
        -11    1    4    4    0    0  0.13993810739E+03  0.15278609193E+02  0.33627494952E+03  0.36455034147E+03  0.00000000000E+00 0.  1.
         11    1    4    4    0    0 -0.10752575063E+02 -0.99322306199E+01  0.72389373580E+02  0.73854508887E+02  0.00000000000E+00 0. -1.
</event>
<event>
 8    1  0.6849590E-009  0.1094299E+03  0.7561462E-02  0.1261629E+00
          2   -1    0    0  501    0  0.00000000000E+00  0.00000000000E+00  0.96114409109E+03  0.96114409109E+03  0.00000000000E+00 0. -1.
         -2   -1    0    0    0  501 -0.00000000000E+00 -0.00000000000E+00 -0.12586372610E+02  0.12586372610E+02  0.00000000000E+00 0.  1.
         25    2    1    2    0    0  0.18598399948E+02  0.35290862443E+01  0.57519029138E+03  0.58893992030E+03  0.12509198013E+03 0.  0.
         23    2    1    2    0    0 -0.18598399948E+02 -0.35290862443E+01  0.37336742709E+03  0.38479054339E+03  0.91116253989E+02 0.  0.
          5    1    3    3  502    0  0.61493266721E+02  0.36832074717E+02  0.34520190431E+03  0.35259020225E+03  0.41800000000E+01 0.  1.
         -5    1    3    3    0  502 -0.42894866773E+02 -0.33302988472E+02  0.22998838707E+03  0.23634971805E+03  0.41800000000E+01 0.  1.
        -11    1    4    4    0    0  0.36299178325E+02 -0.90716722933E+01  0.13228359349E+03  0.13747317808E+03  0.00000000000E+00 0.  1.
         11    1    4    4    0    0 -0.54897578272E+02  0.55425860490E+01  0.24108383361E+03  0.24731736532E+03  0.00000000000E+00 0. -1.
</event>
<event>
 8    1  0.6849590E-009  0.1073940E+03  0.7561462E-02  0.1265473E+00
         -3   -1    0    0    0  501 -0.00000000000E+00  0.00000000000E+00  0.59623546585E+02  0.59623546585E+02  0.00000000000E+00 0.  1.
          3   -1    0    0  501    0  0.00000000000E+00 -0.00000000000E+00 -0.37873990502E+03  0.37873990502E+03  0.00000000000E+00 0. -1.
         25    2    1    2    0    0 -0.33913531525E+02 -0.17668217814E+02 -0.31017433244E+03  0.33662634972E+03  0.12508752647E+03 0.  0.
         23    2    1    2    0    0  0.33913531525E+02  0.17668217814E+02 -0.89420259977E+01  0.10173710189E+03  0.93851928752E+02 0.  0.
          5    1    3    3  502    0 -0.37355234606E+02  0.50156535375E+02 -0.14273325316E+03  0.15588888847E+03  0.41800000000E+01 0.  1.
         -5    1    3    3    0  502  0.34417030805E+01 -0.67824753189E+02 -0.16744107928E+03  0.18073746124E+03  0.41800000000E+01 0.  1.
        -11    1    4    4    0    0 -0.24133420204E+02  0.45584768196E+01  0.23472295868E+02  0.33972788449E+02  0.00000000000E+00 0.  1.
         11    1    4    4    0    0  0.58046951729E+02  0.13109740995E+02 -0.32414321866E+02  0.67764313440E+02  0.00000000000E+00 0. -1.
</event>
<event>
 8    1  0.6849590E-009  0.1042452E+03  0.7561462E-02  0.1271614E+00
         -1   -1    0    0    0  501 -0.00000000000E+00  0.00000000000E+00  0.58555560284E+03  0.58555560284E+03  0.00000000000E+00 0.  1.
          1   -1    0    0  501    0  0.00000000000E+00 -0.00000000000E+00 -0.27022739820E+02  0.27022739820E+02  0.00000000000E+00 0. -1.
         25    2    1    2    0    0 -0.37126262684E+02 -0.13794320471E+02  0.18844497123E+03  0.22962773994E+03  0.12509496037E+03 0.  0.
         23    2    1    2    0    0  0.37126262684E+02  0.13794320471E+02  0.37008789180E+03  0.38295060272E+03  0.90097024451E+02 0.  0.
          5    1    3    3  502    0  0.19385664789E+01 -0.56252328854E+02  0.14974785771E+03  0.16003117143E+03  0.41800000000E+01 0. -1.
         -5    1    3    3    0  502 -0.39064829163E+02  0.42458008383E+02  0.38697113521E+02  0.69596568509E+02  0.41800000000E+01 0. -1.
        -11    1    4    4    0    0  0.30973843891E+02  0.49270463364E+02  0.17097509102E+03  0.18060852504E+03  0.00000000000E+00 0. -1.
         11    1    4    4    0    0  0.61524187939E+01 -0.35476142893E+02  0.19911280077E+03  0.20234207769E+03  0.00000000000E+00 0.  1.
</event>
<event>
 8    1  0.6849590E-009  0.1269428E+03  0.7561462E-02  0.1232064E+00
         -1   -1    0    0    0  501 -0.00000000000E+00  0.00000000000E+00  0.11653233908E+03  0.11653233908E+03  0.00000000000E+00 0.  1.
          1   -1    0    0  501    0  0.00000000000E+00 -0.00000000000E+00 -0.18336282702E+03  0.18336282702E+03  0.00000000000E+00 0. -1.
         25    2    1    2    0    0 -0.54887743704E+02 -0.73784647189E+02 -0.34409234452E+01  0.15529533079E+03  0.12509181125E+03 0.  0.
         23    2    1    2    0    0  0.54887743704E+02  0.73784647189E+02 -0.63389564505E+02  0.14459983531E+03  0.91837012769E+02 0.  0.
          5    1    3    3  502    0 -0.59674531701E+02 -0.10346349868E+03  0.13934670636E+02  0.12032203762E+03  0.41800000000E+01 0. -1.
         -5    1    3    3    0  502  0.47867879969E+01  0.29678851489E+02 -0.17375594081E+02  0.34973293163E+02  0.41800000000E+01 0. -1.
        -11    1    4    4    0    0  0.49620263476E+02  0.26135751653E+02  0.99735646546E+01  0.56962444241E+02  0.00000000000E+00 0.  1.
         11    1    4    4    0    0  0.52674802283E+01  0.47648895536E+02 -0.73363129159E+02  0.87637391071E+02  0.00000000000E+00 0. -1.
</event>
<event>
 8    1  0.6849590E-009  0.1859931E+03  0.7561462E-02  0.1162126E+00
         -2   -1    0    0    0  501 -0.00000000000E+00  0.00000000000E+00  0.11055869727E+03  0.11055869727E+03  0.00000000000E+00 0. -1.
          2   -1    0    0  501    0  0.00000000000E+00 -0.00000000000E+00 -0.38011603839E+03  0.38011603839E+03  0.00000000000E+00 0.  1.
         25    2    1    2    0    0  0.66326424659E+02  0.15994780998E+03 -0.13211464150E+03  0.25115375668E+03  0.12506572060E+03 0.  0.
         23    2    1    2    0    0 -0.66326424659E+02 -0.15994780998E+03 -0.13744269962E+03  0.23952097898E+03  0.92180839487E+02 0.  0.
          5    1    3    3  502    0  0.89828275803E+02  0.14462183985E+03 -0.14135272680E+03  0.22132026899E+03  0.41800000000E+01 0.  1.
         -5    1    3    3    0  502 -0.23501851144E+02  0.15325970131E+02  0.92380852914E+01  0.29833487685E+02  0.41800000000E+01 0.  1.
        -11    1    4    4    0    0 -0.47400902641E+02 -0.12273470665E+03 -0.46660313615E+02  0.13959884904E+03  0.00000000000E+00 0. -1.
         11    1    4    4    0    0 -0.18925522018E+02 -0.37213103333E+02 -0.90782386005E+02  0.99922129941E+02  0.00000000000E+00 0.  1.
</event>
<event>
 8    1  0.6849590E-009  0.3580883E+03  0.7561462E-02  0.1059343E+00
         -2   -1    0    0    0  501 -0.00000000000E+00  0.00000000000E+00  0.17986575511E+03  0.17986575511E+03  0.00000000000E+00 0.  1.
          2   -1    0    0  501    0  0.00000000000E+00 -0.00000000000E+00 -0.78451981827E+03  0.78451981827E+03  0.00000000000E+00 0. -1.
         25    2    1    2    0    0 -0.24651083950E+02 -0.34815737954E+03 -0.19647147271E+03  0.41960654365E+03  0.12508946805E+03 0.  0.
         23    2    1    2    0    0  0.24651083950E+02  0.34815737954E+03 -0.40818259045E+03  0.54477902973E+03  0.91377936133E+02 0.  0.
          5    1    3    3  502    0  0.31686034213E+02 -0.15273459633E+03 -0.13704667570E+03  0.20768034428E+03  0.41800000000E+01 0. -1.
         -5    1    3    3    0  502 -0.56337118162E+02 -0.19542278321E+03 -0.59424797014E+02  0.21192619937E+03  0.41800000000E+01 0. -1.
        -11    1    4    4    0    0 -0.26374757139E+02  0.10566019651E+03 -0.16411741941E+03  0.19696251495E+03  0.00000000000E+00 0. -1.
         11    1    4    4    0    0  0.51025841088E+02  0.24249718303E+03 -0.24406517104E+03  0.34781651478E+03  0.00000000000E+00 0.  1.
</event>
<event>
 8    1  0.6849590E-009  0.1291739E+03  0.7561462E-02  0.1228687E+00
         -2   -1    0    0    0  501 -0.00000000000E+00  0.00000000000E+00  0.27406722418E+02  0.27406722418E+02  0.00000000000E+00 0. -1.
          2   -1    0    0  501    0  0.00000000000E+00 -0.00000000000E+00 -0.12446537109E+04  0.12446537109E+04  0.00000000000E+00 0.  1.
         25    2    1    2    0    0  0.46942380972E+02  0.71789811337E+02 -0.10640111070E+04  0.10747660216E+04  0.12507997990E+03 0.  0.
         23    2    1    2    0    0 -0.46942380972E+02 -0.71789811337E+02 -0.15323588152E+03  0.19729441169E+03  0.89924887292E+02 0.  0.
          5    1    3    3  502    0 -0.41656813931E+02  0.29108155115E+02 -0.45548558881E+03  0.45833085086E+03  0.41800000000E+01 0.  1.
         -5    1    3    3    0  502  0.88599194903E+02  0.42681656222E+02 -0.60852551817E+03  0.61643517078E+03  0.41800000000E+01 0.  1.
        -11    1    4    4    0    0 -0.28003601940E+02  0.61883829496E+01 -0.55433696823E+01  0.29210045405E+02  0.00000000000E+00 0. -1.
         11    1    4    4    0    0 -0.18938779032E+02 -0.77978194286E+02 -0.14769251184E+03  0.16808436628E+03  0.00000000000E+00 0.  1.
</event>
<event>
 8    1  0.6849590E-009  0.1243066E+03  0.7561462E-02  0.1236157E+00
          2   -1    0    0  501    0  0.00000000000E+00  0.00000000000E+00  0.29984782147E+03  0.29984782147E+03  0.00000000000E+00 0.  1.
         -2   -1    0    0    0  501 -0.00000000000E+00 -0.00000000000E+00 -0.96544639030E+02  0.96544639030E+02  0.00000000000E+00 0. -1.
         25    2    1    2    0    0 -0.11825764425E+03  0.22955116343E+02  0.16730411523E+03  0.24114268641E+03  0.12508924992E+03 0.  0.
         23    2    1    2    0    0  0.11825764425E+03 -0.22955116343E+02  0.35999067216E+02  0.15524977410E+03  0.91075527591E+02 0.  0.
          5    1    3    3  502    0 -0.82751501070E+02  0.21321938050E+02  0.17765972441E+02  0.87381566410E+02  0.41800000000E+01 0. -1.
         -5    1    3    3    0  502 -0.35506143181E+02  0.16331782932E+01  0.14953814279E+03  0.15376112000E+03  0.41800000000E+01 0. -1.
        -11    1    4    4    0    0  0.31795490770E+02  0.12031336074E+02  0.50479896139E+02  0.60859889873E+02  0.00000000000E+00 0.  1.
         11    1    4    4    0    0  0.86462153481E+02 -0.34986452417E+02 -0.14480828923E+02  0.94389884223E+02  0.00000000000E+00 0. -1.
</event>
<event>
 8    1  0.6849590E-009  0.1235309E+03  0.7561462E-02  0.1237383E+00
          2   -1    0    0  501    0  0.00000000000E+00  0.00000000000E+00  0.10041325151E+03  0.10041325151E+03  0.00000000000E+00 0. -1.
         -2   -1    0    0    0  501 -0.00000000000E+00 -0.00000000000E+00 -0.27940335199E+03  0.27940335199E+03  0.00000000000E+00 0.  1.
         25    2    1    2    0    0  0.62060503030E+02  0.92572036802E+02 -0.17398149516E+03  0.24153270370E+03  0.12508956098E+03 0.  0.
         23    2    1    2    0    0 -0.62060503030E+02 -0.92572036802E+02 -0.50086053137E+01  0.13828389980E+03  0.81708400930E+02 0.  0.
          5    1    3    3  502    0 -0.37021860385E+01  0.44972115162E+02  0.43719533610E+01  0.45527834341E+02  0.41800000000E+01 0.  1.
         -5    1    3    3    0  502  0.65762689069E+02  0.47599921641E+02 -0.17835344852E+03  0.19600486936E+03  0.41800000000E+01 0.  1.
        -11    1    4    4    0    0 -0.10706348377E+02 -0.56969103899E+02 -0.36304182096E+02  0.68396625152E+02  0.00000000000E+00 0.  1.
         11    1    4    4    0    0 -0.51354154653E+02 -0.35602932904E+02  0.31295576782E+02  0.69887274647E+02  0.00000000000E+00 0. -1.
</event>
<event>
 8    1  0.6849590E-009  0.1893279E+03  0.7561462E-02  0.1159069E+00
         -2   -1    0    0    0  501 -0.00000000000E+00  0.00000000000E+00  0.25148966725E+03  0.25148966725E+03  0.00000000000E+00 0. -1.
          2   -1    0    0  501    0  0.00000000000E+00 -0.00000000000E+00 -0.21567440200E+03  0.21567440200E+03  0.00000000000E+00 0.  1.
         25    2    1    2    0    0  0.17199201541E+03  0.29412689392E+02  0.12787809204E+03  0.24990191245E+03  0.12510715312E+03 0.  0.
         23    2    1    2    0    0 -0.17199201541E+03 -0.29412689392E+02 -0.92062826793E+02  0.21726215680E+03  0.90999566145E+02 0.  0.
          5    1    3    3  502    0  0.17343059630E+03  0.36605095418E+02  0.14615093627E+03  0.22977309094E+03  0.41800000000E+01 0. -1.
         -5    1    3    3    0  502 -0.14385808944E+01 -0.71924060262E+01 -0.18272844231E+02  0.20128821518E+02  0.41800000000E+01 0. -1.
        -11    1    4    4    0    0 -0.14423878234E+03 -0.55763293384E+02 -0.90024369956E+02  0.17893786186E+03  0.00000000000E+00 0.  1.
         11    1    4    4    0    0 -0.27753233064E+02  0.26350603993E+02 -0.20384568369E+01  0.38324294939E+02  0.00000000000E+00 0. -1.
</event>
<event>
 8    1  0.6849590E-009  0.1142161E+03  0.7561462E-02  0.1252956E+00
         -2   -1    0    0    0  501 -0.00000000000E+00  0.00000000000E+00  0.25865034835E+02  0.25865034835E+02  0.00000000000E+00 0.  1.
          2   -1    0    0  501    0  0.00000000000E+00 -0.00000000000E+00 -0.68316865258E+03  0.68316865258E+03  0.00000000000E+00 0. -1.
         25    2    1    2    0    0 -0.37628864411E+02  0.50497896269E+02 -0.50470007921E+03  0.52377080431E+03  0.12509083309E+03 0.  0.
         23    2    1    2    0    0  0.37628864411E+02 -0.50497896269E+02 -0.15260353853E+03  0.18526288311E+03  0.84074531937E+02 0.  0.
          5    1    3    3  502    0 -0.65121995275E+01 -0.34643907881E+02 -0.26679632954E+03  0.26914747435E+03  0.41800000000E+01 0. -1.
         -5    1    3    3    0  502 -0.31116664884E+02  0.85141804149E+02 -0.23790374968E+03  0.25462332996E+03  0.41800000000E+01 0. -1.
        -11    1    4    4    0    0 -0.14094542363E+02  0.13761499028E+02 -0.49133116176E+02  0.52934847550E+02  0.00000000000E+00 0. -1.
         11    1    4    4    0    0  0.51723406774E+02 -0.64259395296E+02 -0.10347042235E+03  0.13232803556E+03  0.00000000000E+00 0.  1.
</event>
<event>
 8    1  0.6849590E-009  0.1623843E+03  0.7561462E-02  0.1186031E+00
         -2   -1    0    0    0  501 -0.00000000000E+00  0.00000000000E+00  0.33088309413E+03  0.33088309413E+03  0.00000000000E+00 0.  1.
          2   -1    0    0  501    0  0.00000000000E+00 -0.00000000000E+00 -0.10109248730E+03  0.10109248730E+03  0.00000000000E+00 0. -1.
         25    2    1    2    0    0 -0.50576076110E+02  0.12475826944E+03  0.54921204831E+02  0.19180147138E+03  0.12509556513E+03 0.  0.
         23    2    1    2    0    0  0.50576076110E+02 -0.12475826944E+03  0.17486940200E+03  0.24017411006E+03  0.94771990162E+02 0.  0.
          5    1    3    3  502    0 -0.85281185411E+02  0.11985844261E+03  0.53130334061E+02  0.15645840229E+03  0.41800000000E+01 0. -1.
         -5    1    3    3    0  502  0.34705109301E+02  0.48998268295E+01  0.17908707701E+01  0.35343069090E+02  0.41800000000E+01 0. -1.
        -11    1    4    4    0    0  0.88149645750E+01 -0.82246434484E+02  0.38269482828E+02  0.91141279899E+02  0.00000000000E+00 0. -1.
         11    1    4    4    0    0  0.41761111535E+02 -0.42511834952E+02  0.13659991917E+03  0.14903283016E+03  0.00000000000E+00 0.  1.
</event>
<event>
 8    1  0.6849590E-009  0.1267483E+03  0.7561462E-02  0.1232362E+00
         -2   -1    0    0    0  501 -0.00000000000E+00  0.00000000000E+00  0.12434283237E+02  0.12434283237E+02  0.00000000000E+00 0. -1.
          2   -1    0    0  501    0  0.00000000000E+00 -0.00000000000E+00 -0.15647091691E+04  0.15647091691E+04  0.00000000000E+00 0.  1.
         25    2    1    2    0    0 -0.78195812846E+02  0.68595597749E+01 -0.10779809146E+04  0.10880494385E+04  0.12508832719E+03 0.  0.
         23    2    1    2    0    0  0.78195812846E+02 -0.68595597749E+01 -0.47429397123E+03  0.48909401384E+03  0.89980800836E+02 0.  0.
          5    1    3    3  502    0 -0.11095952831E+03  0.11627701864E+02 -0.73234887747E+03  0.74081007762E+03  0.41800000000E+01 0. -1.
         -5    1    3    3    0  502  0.32763715465E+02 -0.47681420895E+01 -0.34563203713E+03  0.34723936085E+03  0.41800000000E+01 0. -1.
        -11    1    4    4    0    0  0.81894520149E+02  0.17581191877E+02 -0.43250881201E+03  0.44054475732E+03  0.00000000000E+00 0.  1.
         11    1    4    4    0    0 -0.36987073032E+01 -0.24440751652E+02 -0.41785159219E+02  0.48549256513E+02  0.00000000000E+00 0. -1.
</event>
<event>
 7    1  0.6849590E-009  0.1490574E+03  0.7561462E-02  0.1201636E+00
         -2   -1    0    0    0  501 -0.00000000000E+00  0.00000000000E+00  0.24664083264E+03  0.24664083264E+03  0.00000000000E+00 0. -1.
          2   -1    0    0  501    0  0.00000000000E+00 -0.00000000000E+00 -0.11283452633E+03  0.11283452633E+03  0.00000000000E+00 0.  1.
         23    2    1    2    0    0  0.11565235638E+03  0.78886729941E+01  0.11977376051E+03  0.18878691328E+03  0.88639980929E+02 0.  0.
          5    1    1    2  502    0 -0.42400354746E+02  0.52287228157E+02  0.31102090985E+02  0.74273526741E+02  0.41800000000E+01 0.  1.
         -5    1    1    2    0  502 -0.73252001637E+02 -0.60175901151E+02 -0.17069545195E+02  0.96414918951E+02  0.41800000000E+01 0.  1.
        -11    1    3    3    0    0  0.37333428196E+02 -0.30820986907E+02  0.78351308692E+02  0.92101279408E+02  0.00000000000E+00 0. -1.
         11    1    3    3    0    0  0.78318928187E+02  0.38709659901E+02  0.41422451821E+02  0.96685633871E+02  0.00000000000E+00 0.  1.
</event>
<event>
 8    1  0.6849590E-009  0.1838074E+03  0.7561462E-02  0.1164168E+00
          2   -1    0    0  501    0  0.00000000000E+00  0.00000000000E+00  0.25024844553E+03  0.25024844553E+03  0.00000000000E+00 0. -1.
         -2   -1    0    0    0  501 -0.00000000000E+00 -0.00000000000E+00 -0.15560528540E+03  0.15560528540E+03  0.00000000000E+00 0.  1.
         25    2    1    2    0    0  0.38206198967E+02 -0.15627807734E+03  0.14030521244E+02  0.20426202198E+03  0.12507424596E+03 0.  0.
         23    2    1    2    0    0 -0.38206198967E+02  0.15627807734E+03  0.80612638884E+02  0.20159170895E+03  0.90875015683E+02 0.  0.
          5    1    3    3  502    0  0.81599547779E+02 -0.73435359216E+02  0.19691553504E+01  0.10987533005E+03  0.41800000000E+01 0.  1.
         -5    1    3    3    0  502 -0.43393348812E+02 -0.82842718120E+02  0.12061365894E+02  0.94386691932E+02  0.41800000000E+01 0.  1.
        -11    1    4    4    0    0 -0.60542342178E+01  0.92711183790E+02 -0.14546111531E+01  0.92920036834E+02  0.00000000000E+00 0.  1.
         11    1    4    4    0    0 -0.32151964749E+02  0.63566893546E+02  0.82067250037E+02  0.10867167212E+03  0.00000000000E+00 0. -1.
</event>
<event>
 8    1  0.6849590E-009  0.1411652E+03  0.7561462E-02  0.1211770E+00
         -2   -1    0    0    0  501 -0.00000000000E+00  0.00000000000E+00  0.81339459662E+02  0.81339459662E+02  0.00000000000E+00 0.  1.
          2   -1    0    0  501    0  0.00000000000E+00 -0.00000000000E+00 -0.37455628914E+03  0.37455628914E+03  0.00000000000E+00 0. -1.
         25    2    1    2    0    0  0.12449868170E+03 -0.10013751660E+02 -0.85389535209E+02  0.19631383003E+03  0.12509016817E+03 0.  0.
         23    2    1    2    0    0 -0.12449868170E+03  0.10013751660E+02 -0.20782729427E+03  0.25958191877E+03  0.92684364055E+02 0.  0.
          5    1    3    3  502    0  0.26491797409E+02 -0.11188425304E+02  0.32068123686E+02  0.43276242298E+02  0.41800000000E+01 0. -1.
         -5    1    3    3    0  502  0.98006884292E+02  0.11746736441E+01 -0.11745765889E+03  0.15303758774E+03  0.41800000000E+01 0. -1.
        -11    1    4    4    0    0  0.25048363987E+00 -0.25469158374E+02 -0.41043042731E+02  0.48303955603E+02  0.00000000000E+00 0. -1.
         11    1    4    4    0    0 -0.12474916534E+03  0.35482910034E+02 -0.16678425154E+03  0.21127796316E+03  0.00000000000E+00 0.  1.
</event>
<event>
 8    1  0.6849590E-009  0.7785520E+02  0.7561462E-02  0.1335251E+00
         -1   -1    0    0    0  501 -0.00000000000E+00  0.00000000000E+00  0.14928870356E+02  0.14928870356E+02  0.00000000000E+00 0.  1.
          1   -1    0    0  501    0  0.00000000000E+00 -0.00000000000E+00 -0.89895128346E+03  0.89895128346E+03  0.00000000000E+00 0. -1.
         25    2    1    2    0    0 -0.18825402198E+02 -0.28020826245E+02 -0.59915954176E+03  0.61300784283E+03  0.12508755500E+03 0.  0.
         23    2    1    2    0    0  0.18825402198E+02  0.28020826245E+02 -0.28486287134E+03  0.30087231098E+03  0.90761939033E+02 0.  0.
          5    1    3    3  502    0  0.12017932573E+02  0.58900457798E+01 -0.52845151023E+03  0.52863748865E+03  0.41800000000E+01 0. -1.
         -5    1    3    3    0  502 -0.30843334772E+02 -0.33910872025E+02 -0.70708031531E+02  0.84370354179E+02  0.41800000000E+01 0. -1.
        -11    1    4    4    0    0  0.26406523628E+02 -0.28372089445E+02 -0.93104012590E+02  0.10084957665E+03  0.00000000000E+00 0.  1.
         11    1    4    4    0    0 -0.75811214292E+01  0.56392915691E+02 -0.19175885875E+03  0.20002273433E+03  0.00000000000E+00 0. -1.
</event>
<event>
 8    1  0.6849590E-009  0.6583820E+02  0.7561462E-02  0.1374846E+00
         -1   -1    0    0    0  501 -0.00000000000E+00  0.00000000000E+00  0.38448042843E+02  0.38448042843E+02  0.00000000000E+00 0.  1.
          1   -1    0    0  501    0  0.00000000000E+00 -0.00000000000E+00 -0.30387814924E+03  0.30387814924E+03  0.00000000000E+00 0. -1.
         25    2    1    2    0    0 -0.63270993556E+01 -0.60002926753E+01 -0.16397776343E+03  0.20642425534E+03  0.12508489356E+03 0.  0.
         23    2    1    2    0    0  0.63270993556E+01  0.60002926753E+01 -0.10145234297E+03  0.13590193674E+03  0.90004015559E+02 0.  0.
          5    1    3    3  502    0  0.25839404358E+02 -0.34265819751E+02 -0.70333673932E+01  0.43689379461E+02  0.41800000000E+01 0. -1.
         -5    1    3    3    0  502 -0.32166503714E+02  0.28265527076E+02 -0.15694439603E+03  0.16273487588E+03  0.41800000000E+01 0. -1.
        -11    1    4    4    0    0  0.40216859838E+01  0.25541296612E+02  0.60989382319E+01  0.26565557369E+02  0.00000000000E+00 0.  1.
         11    1    4    4    0    0  0.23054133718E+01 -0.19541003937E+02 -0.10755128120E+03  0.10933637937E+03  0.00000000000E+00 0. -1.
</event>
<event>
 8    1  0.6849590E-009  0.8027462E+02  0.7561462E-02  0.1328274E+00
         -2   -1    0    0    0  501 -0.00000000000E+00  0.00000000000E+00  0.41057965690E+02  0.41057965690E+02  0.00000000000E+00 0.  1.
          2   -1    0    0  501    0  0.00000000000E+00 -0.00000000000E+00 -0.32294035085E+03  0.32294035085E+03  0.00000000000E+00 0. -1.
         25    2    1    2    0    0  0.33352867355E+02 -0.24353139245E+02 -0.15558815681E+03  0.20386531392E+03  0.12509157656E+03 0.  0.
         23    2    1    2    0    0 -0.33352867355E+02  0.24353139245E+02 -0.12629422835E+03  0.16013300262E+03  0.89369218766E+02 0.  0.
          5    1    3    3  502    0 -0.13762673377E+02 -0.22129363329E+02  0.12522315969E+02  0.29213022731E+02  0.41800000000E+01 0.  1.
         -5    1    3    3    0  502  0.47115540733E+02 -0.22237759158E+01 -0.16811047278E+03  0.17465229119E+03  0.41800000000E+01 0.  1.
        -11    1    4    4    0    0  0.20664199591E+02 -0.98256475582E+01 -0.56000607674E+01  0.23556595154E+02  0.00000000000E+00 0.  1.
         11    1    4    4    0    0 -0.54017066946E+02  0.34178786803E+02 -0.12069416758E+03  0.13657640747E+03  0.00000000000E+00 0. -1.
</event>
<event>
 8    1  0.6849590E-009  0.1013058E+03  0.7561462E-02  0.1277574E+00
         -1   -1    0    0    0  501 -0.00000000000E+00  0.00000000000E+00  0.84085917832E+02  0.84085917832E+02  0.00000000000E+00 0.  1.
          1   -1    0    0  501    0  0.00000000000E+00 -0.00000000000E+00 -0.22144301625E+03  0.22144301625E+03  0.00000000000E+00 0. -1.
         25    2    1    2    0    0  0.41646940364E+02  0.94206925970E+01 -0.15455253533E+03  0.20336862919E+03  0.12509634715E+03 0.  0.
         23    2    1    2    0    0 -0.41646940364E+02 -0.94206925970E+01  0.17195436905E+02  0.10216030490E+03  0.91202125828E+02 0.  0.
          5    1    3    3  502    0 -0.33340905281E+02  0.49563459953E+01 -0.29127440229E+01  0.34090142392E+02  0.41800000000E+01 0.  1.
         -5    1    3    3    0  502  0.74987845645E+02  0.44643466017E+01 -0.15163979131E+03  0.16927848680E+03  0.41800000000E+01 0.  1.
        -11    1    4    4    0    0 -0.54110885184E+02 -0.35353776540E+02  0.29272043622E+02  0.70955830971E+02  0.00000000000E+00 0.  1.
         11    1    4    4    0    0  0.12463944819E+02  0.25933083943E+02 -0.12076606717E+02  0.31204473926E+02  0.00000000000E+00 0. -1.
</event>
<event>
 8    1  0.6849590E-009  0.1193778E+03  0.7561462E-02  0.1244127E+00
          1   -1    0    0  501    0  0.00000000000E+00  0.00000000000E+00  0.79236466369E+03  0.79236466369E+03  0.00000000000E+00 0. -1.
         -1   -1    0    0    0  501 -0.00000000000E+00 -0.00000000000E+00 -0.32150128004E+02  0.32150128004E+02  0.00000000000E+00 0.  1.
         25    2    1    2    0    0  0.22465971432E+02 -0.77273073559E+02  0.62785847701E+03  0.64523612767E+03  0.12509014959E+03 0.  0.
         23    2    1    2    0    0 -0.22465971432E+02  0.77273073559E+02  0.13235605868E+03  0.17927866403E+03  0.90259987464E+02 0.  0.
          5    1    3    3  502    0  0.63880218360E+02 -0.20476356249E+02  0.42999175620E+03  0.43521298953E+03  0.41800000000E+01 0.  1.
         -5    1    3    3    0  502 -0.41414246928E+02 -0.56796717310E+02  0.19786672082E+03  0.21002313814E+03  0.41800000000E+01 0.  1.
        -11    1    4    4    0    0 -0.42432235243E+02  0.37518097715E+02  0.22840154485E+02  0.61071883063E+02  0.00000000000E+00 0.  1.
         11    1    4    4    0    0  0.19966263811E+02  0.39754975844E+02  0.10951590419E+03  0.11820678096E+03  0.00000000000E+00 0. -1.
</event>
<event>
 8    1  0.6849590E-009  0.1424160E+03  0.7561462E-02  0.1210115E+00
         -2   -1    0    0    0  501 -0.00000000000E+00  0.00000000000E+00  0.21967722026E+02  0.21967722026E+02  0.00000000000E+00 0.  1.
          2   -1    0    0  501    0  0.00000000000E+00 -0.00000000000E+00 -0.10966034393E+04  0.10966034393E+04  0.00000000000E+00 0. -1.
         25    2    1    2    0    0  0.10247409481E+03  0.25060712015E+02 -0.70419249736E+03  0.72295403783E+03  0.12508592282E+03 0.  0.
         23    2    1    2    0    0 -0.10247409481E+03 -0.25060712015E+02 -0.37044321990E+03  0.39561712348E+03  0.90309190144E+02 0.  0.
          5    1    3    3  502    0 -0.23707090661E+02  0.41842205642E+01 -0.42687650380E+02  0.49185788032E+02  0.41800000000E+01 0. -1.
         -5    1    3    3    0  502  0.12618118547E+03  0.20876491451E+02 -0.66150484698E+03  0.67376824980E+03  0.41800000000E+01 0. -1.
        -11    1    4    4    0    0 -0.87967519779E+02 -0.51747114069E+02 -0.22542385886E+03  0.24745093351E+03  0.00000000000E+00 0.  1.
         11    1    4    4    0    0 -0.14506575034E+02  0.26686402053E+02 -0.14501936104E+03  0.14816618997E+03  0.00000000000E+00 0. -1.
</event>
<event>
 8    1  0.6849590E-009  0.1244737E+03  0.7561462E-02  0.1235894E+00
         -2   -1    0    0    0  501 -0.00000000000E+00  0.00000000000E+00  0.16060894505E+03  0.16060894505E+03  0.00000000000E+00 0.  1.
          2   -1    0    0  501    0  0.00000000000E+00 -0.00000000000E+00 -0.10576927699E+03  0.10576927699E+03  0.00000000000E+00 0. -1.
         25    2    1    2    0    0 -0.51918272764E+02  0.41091583791E+02  0.66221193907E+02  0.15625556853E+03  0.12508609383E+03 0.  0.
         23    2    1    2    0    0  0.51918272764E+02 -0.41091583791E+02 -0.11381525849E+02  0.11012265351E+03  0.87254996307E+02 0.  0.
          5    1    3    3  502    0 -0.75691965296E+01  0.81054104721E+02  0.34377263208E+02  0.88466543133E+02  0.41800000000E+01 0.  1.
         -5    1    3    3    0  502 -0.44349076234E+02 -0.39962520930E+02  0.31843930699E+02  0.67789025397E+02  0.41800000000E+01 0.  1.
        -11    1    4    4    0    0  0.71971198025E+02 -0.13096370281E+02 -0.17326740441E+02  0.75177019055E+02  0.00000000000E+00 0. -1.
         11    1    4    4    0    0 -0.20052925261E+02 -0.27995213510E+02  0.59452145927E+01  0.34945634456E+02  0.00000000000E+00 0.  1.
</event>
<event>
 8    1  0.6849590E-009  0.2195752E+03  0.7561462E-02  0.1134200E+00
         -2   -1    0    0    0  501 -0.00000000000E+00  0.00000000000E+00  0.10744373874E+03  0.10744373874E+03  0.00000000000E+00 0.  1.
          2   -1    0    0  501    0  0.00000000000E+00 -0.00000000000E+00 -0.75560504873E+03  0.75560504873E+03  0.00000000000E+00 0. -1.
         25    2    1    2    0    0 -0.12311176408E+03 -0.15448944360E+03 -0.68730839666E+02  0.24371154747E+03  0.12509154812E+03 0.  0.
         23    2    1    2    0    0  0.12311176408E+03  0.15448944360E+03 -0.57943047033E+03  0.61933723999E+03  0.93890639878E+02 0.  0.
          5    1    3    3  502    0 -0.23882191860E+02 -0.12687580705E+03 -0.52150623663E+02  0.13930179271E+03  0.41800000000E+01 0. -1.
         -5    1    3    3    0  502 -0.99229572224E+02 -0.27613636549E+02 -0.16580216003E+02  0.10440975476E+03  0.41800000000E+01 0. -1.
        -11    1    4    4    0    0  0.10637345074E+03  0.87178977617E+02 -0.27968646012E+03  0.31167290729E+03  0.00000000000E+00 0. -1.
         11    1    4    4    0    0  0.16738313342E+02  0.67310465984E+02 -0.29974401021E+03  0.30766433270E+03  0.00000000000E+00 0.  1.
</event>
<event>
 8    1  0.6849590E-009  0.1700240E+03  0.7561462E-02  0.1177823E+00
          1   -1    0    0  501    0  0.00000000000E+00  0.00000000000E+00  0.26709488836E+04  0.26709488836E+04  0.00000000000E+00 0. -1.
         -1   -1    0    0    0  501 -0.00000000000E+00 -0.00000000000E+00 -0.18871090832E+02  0.18871090832E+02  0.00000000000E+00 0.  1.
         25    2    1    2    0    0 -0.15787525863E+03  0.29548412204E+02  0.20549693674E+04  0.20650288665E+04  0.12508961811E+03 0.  0.
         23    2    1    2    0    0  0.15787525863E+03 -0.29548412204E+02  0.59710842530E+03  0.62479110787E+03  0.89597717370E+02 0.  0.
          5    1    3    3  502    0 -0.96339057392E+02  0.13263992814E+02  0.53904192355E+03  0.54775981527E+03  0.41800000000E+01 0.  1.
         -5    1    3    3    0  502 -0.61536201234E+02  0.16284419391E+02  0.15159274439E+04  0.15172690512E+04  0.41800000000E+01 0.  1.
        -11    1    4    4    0    0  0.66496406471E+02 -0.52475052356E+02  0.21130912178E+03  0.22765532750E+03  0.00000000000E+00 0.  1.
         11    1    4    4    0    0  0.91378852154E+02  0.22926640151E+02  0.38579930353E+03  0.39713578037E+03  0.00000000000E+00 0. -1.
</event>
<event>
 8    1  0.6849590E-009  0.1194426E+03  0.7561462E-02  0.1244019E+00
          1   -1    0    0  501    0  0.00000000000E+00  0.00000000000E+00  0.10053918440E+03  0.10053918440E+03  0.00000000000E+00 0. -1.
         -1   -1    0    0    0  501 -0.00000000000E+00 -0.00000000000E+00 -0.15541937318E+03  0.15541937318E+03  0.00000000000E+00 0.  1.
         25    2    1    2    0    0 -0.35540680233E+02 -0.49838266539E+02 -0.37454331816E+02  0.14419093850E+03  0.12506481124E+03 0.  0.
         23    2    1    2    0    0  0.35540680233E+02  0.49838266539E+02 -0.17425856958E+02  0.11176761908E+03  0.91876805675E+02 0.  0.
          5    1    3    3  502    0 -0.42916119239E+02 -0.87787576114E+02 -0.38953753121E+02  0.10527734368E+03  0.41800000000E+01 0. -1.
         -5    1    3    3    0  502  0.73754390058E+01  0.37949309575E+02  0.14994213044E+01  0.38913594822E+02  0.41800000000E+01 0. -1.
        -11    1    4    4    0    0  0.23823839345E+02 -0.20168470478E+02 -0.25531045901E+02  0.40325882847E+02  0.00000000000E+00 0.  1.
         11    1    4    4    0    0  0.11716840887E+02  0.70006737017E+02  0.81051889428E+01  0.71441736233E+02  0.00000000000E+00 0. -1.
</event>
<event>
 8    1  0.6849590E-009  0.1716857E+03  0.7561462E-02  0.1176101E+00
          1   -1    0    0  501    0  0.00000000000E+00  0.00000000000E+00  0.10933929408E+03  0.10933929408E+03  0.00000000000E+00 0. -1.
         -1   -1    0    0    0  501 -0.00000000000E+00 -0.00000000000E+00 -0.34794439690E+03  0.34794439690E+03  0.00000000000E+00 0.  1.
         25    2    1    2    0    0  0.12927302900E+03  0.77384394900E+02 -0.57686244043E+02  0.20414102101E+03  0.12508394424E+03 0.  0.
         23    2    1    2    0    0 -0.12927302900E+03 -0.77384394900E+02 -0.18091885878E+03  0.25314266997E+03  0.93003856346E+02 0.  0.
          5    1    3    3  502    0  0.10312755958E+03  0.22721725727E+02  0.17885696427E+02  0.10718647724E+03  0.41800000000E+01 0.  1.
         -5    1    3    3    0  502  0.26145469420E+02  0.54662669173E+02 -0.75571940469E+02  0.96954543775E+02  0.41800000000E+01 0.  1.
        -11    1    4    4    0    0 -0.70313719630E+02  0.10527878487E+02 -0.68378896680E+02  0.98643443294E+02  0.00000000000E+00 0. -1.
         11    1    4    4    0    0 -0.58959309372E+02 -0.87912273387E+02 -0.11253996210E+03  0.15449922667E+03  0.00000000000E+00 0.  1.
</event>
<event>
 8    1  0.6849590E-009  0.7826695E+02  0.7561462E-02  0.1334043E+00
         -1   -1    0    0    0  501 -0.00000000000E+00  0.00000000000E+00  0.11895388030E+02  0.11895388030E+02  0.00000000000E+00 0.  1.
          1   -1    0    0  501    0  0.00000000000E+00 -0.00000000000E+00 -0.11140725790E+04  0.11140725790E+04  0.00000000000E+00 0. -1.
         25    2    1    2    0    0 -0.17015519268E+02 -0.36623466510E+02 -0.61588281863E+03  0.62975353370E+03  0.12508821180E+03 0.  0.
         23    2    1    2    0    0  0.17015519268E+02  0.36623466510E+02 -0.48629437238E+03  0.49621443337E+03  0.90087407995E+02 0.  0.
          5    1    3    3  502    0 -0.34323430532E+01  0.98151366791E+01 -0.53701905535E+03  0.53713597543E+03  0.41800000000E+01 0. -1.
         -5    1    3    3    0  502 -0.13583176215E+02 -0.46438603189E+02 -0.78863763272E+02  0.92617558269E+02  0.41800000000E+01 0. -1.
        -11    1    4    4    0    0 -0.35868448024E+02  0.84839948886E+01 -0.13965695601E+03  0.14443887667E+03  0.00000000000E+00 0.  1.
         11    1    4    4    0    0  0.52883967292E+02  0.28139471621E+02 -0.34663741637E+03  0.35177555669E+03  0.00000000000E+00 0. -1.
</event>
<event>
 8    1  0.6849590E-009  0.1653945E+03  0.7561462E-02  0.1182738E+00
          2   -1    0    0  501    0  0.00000000000E+00  0.00000000000E+00  0.13564390813E+03  0.13564390813E+03  0.00000000000E+00 0.  1.
         -2   -1    0    0    0  501 -0.00000000000E+00 -0.00000000000E+00 -0.21017357682E+03  0.21017357682E+03  0.00000000000E+00 0. -1.
         25    2    1    2    0    0  0.75861910340E+02 -0.10126704660E+03 -0.68016156362E+02  0.19048322132E+03  0.12509043093E+03 0.  0.
         23    2    1    2    0    0 -0.75861910340E+02  0.10126704660E+03 -0.65135123240E+01  0.15533426363E+03  0.89868033511E+02 0.  0.
          5    1    3    3  502    0  0.87883758700E+02 -0.14386891813E+02 -0.44178844658E+02  0.99497640246E+02  0.41800000000E+01 0.  1.
         -5    1    3    3    0  502 -0.12021848360E+02 -0.86880154789E+02 -0.23837311704E+02  0.90985581075E+02  0.41800000000E+01 0.  1.
        -11    1    4    4    0    0 -0.18621194404E+02  0.94353259671E+02  0.59085534310E+01  0.96354540606E+02  0.00000000000E+00 0. -1.
         11    1    4    4    0    0 -0.57240715936E+02  0.69137869311E+01 -0.12422065755E+02  0.58979723026E+02  0.00000000000E+00 0.  1.
</event>
<event>
 8    1  0.6849590E-009  0.1280572E+03  0.7561462E-02  0.1230367E+00
          1   -1    0    0  501    0  0.00000000000E+00  0.00000000000E+00  0.67059065917E+03  0.67059065917E+03  0.00000000000E+00 0. -1.
         -1   -1    0    0    0  501 -0.00000000000E+00 -0.00000000000E+00 -0.28244592927E+02  0.28244592927E+02  0.00000000000E+00 0.  1.
         25    2    1    2    0    0  0.34689886869E+02  0.68820597192E+02  0.25690451444E+03  0.29595242457E+03  0.12509294634E+03 0.  0.
         23    2    1    2    0    0 -0.34689886869E+02 -0.68820597192E+02  0.38544155180E+03  0.40288282752E+03  0.88372620237E+02 0.  0.
          5    1    3    3  502    0  0.39149246928E+02  0.10013820717E+03  0.23107836403E+03  0.25490195525E+03  0.41800000000E+01 0.  1.
         -5    1    3    3    0  502 -0.44593600585E+01 -0.31317609973E+02  0.25826150412E+02  0.41050469323E+02  0.41800000000E+01 0.  1.
        -11    1    4    4    0    0 -0.64276314508E+02 -0.42967236547E+02  0.23480158330E+03  0.24720317867E+03  0.00000000000E+00 0.  1.
         11    1    4    4    0    0  0.29586427639E+02 -0.25853360645E+02  0.15063996850E+03  0.15567964885E+03  0.00000000000E+00 0. -1.
</event>
<event>
 8    1  0.6849590E-009  0.1639205E+03  0.7561462E-02  0.1184340E+00
         -2   -1    0    0    0  501 -0.00000000000E+00  0.00000000000E+00  0.77707807339E+02  0.77707807339E+02  0.00000000000E+00 0.  1.
          2   -1    0    0  501    0  0.00000000000E+00 -0.00000000000E+00 -0.38103741231E+03  0.38103741231E+03  0.00000000000E+00 0. -1.
         25    2    1    2    0    0  0.22954193121E+02 -0.12916902091E+03 -0.19389080752E+03  0.26542872954E+03  0.12508890551E+03 0.  0.
         23    2    1    2    0    0 -0.22954193121E+02  0.12916902091E+03 -0.10943879745E+03  0.19331649011E+03  0.90459294790E+02 0.  0.
          5    1    3    3  502    0 -0.40413293037E+02 -0.15036649596E+02 -0.19394563797E+02  0.47465319867E+02  0.41800000000E+01 0. -1.
         -5    1    3    3    0  502  0.63367486159E+02 -0.11413237132E+03 -0.17449624372E+03  0.21796340967E+03  0.41800000000E+01 0. -1.
        -11    1    4    4    0    0 -0.13630530911E+02  0.13940080561E+03 -0.11187547301E+03  0.17926097579E+03  0.00000000000E+00 0. -1.
         11    1    4    4    0    0 -0.93236622097E+01 -0.10231784699E+02  0.24366755558E+01  0.14055514323E+02  0.00000000000E+00 0.  1.
</event>
<event>
 8    1  0.6849590E-009  0.8491535E+02  0.7561462E-02  0.1315654E+00
         -1   -1    0    0    0  501 -0.00000000000E+00  0.00000000000E+00  0.15787472732E+02  0.15787472732E+02  0.00000000000E+00 0.  1.
          1   -1    0    0  501    0  0.00000000000E+00 -0.00000000000E+00 -0.88022636153E+03  0.88022636153E+03  0.00000000000E+00 0. -1.
         25    2    1    2    0    0  0.36813933453E+02 -0.20170311443E+02 -0.54495542975E+03  0.56070099027E+03  0.12508826049E+03 0.  0.
         23    2    1    2    0    0 -0.36813933453E+02  0.20170311443E+02 -0.31948345904E+03  0.33531284399E+03  0.92751903393E+02 0.  0.
          5    1    3    3  502    0  0.44452399078E+02 -0.32311748936E+02 -0.54281698128E+03  0.54560774597E+03  0.41800000000E+01 0. -1.
         -5    1    3    3    0  502 -0.76384656254E+01  0.12141437493E+02 -0.21384484752E+01  0.15093244296E+02  0.41800000000E+01 0. -1.
        -11    1    4    4    0    0 -0.49885919609E+02 -0.22808694075E+02 -0.14183344704E+03  0.15207093147E+03  0.00000000000E+00 0.  1.
         11    1    4    4    0    0  0.13071986156E+02  0.42979005518E+02 -0.17765001201E+03  0.18324191252E+03  0.00000000000E+00 0. -1.
</event>
<event>
 8    1  0.6849590E-009  0.1435599E+03  0.7561462E-02  0.1208618E+00
          2   -1    0    0  501    0  0.00000000000E+00  0.00000000000E+00  0.74045928941E+02  0.74045928941E+02  0.00000000000E+00 0. -1.
         -2   -1    0    0    0  501 -0.00000000000E+00 -0.00000000000E+00 -0.36996197362E+03  0.36996197362E+03  0.00000000000E+00 0.  1.
         25    2    1    2    0    0  0.10949844435E+03 -0.52942279874E+02 -0.19577543057E+03  0.26223585123E+03  0.12508728211E+03 0.  0.
         23    2    1    2    0    0 -0.10949844435E+03  0.52942279874E+02 -0.10014061411E+03  0.18177205132E+03  0.90664997301E+02 0.  0.
          5    1    3    3  502    0 -0.11268680626E+02  0.17146993516E+02 -0.74029710540E+02  0.76934212105E+02  0.41800000000E+01 0. -1.
         -5    1    3    3    0  502  0.12076712497E+03 -0.70089273389E+02 -0.12174572003E+03  0.18530163913E+03  0.41800000000E+01 0. -1.
        -11    1    4    4    0    0 -0.83338873494E+02  0.55611134133E+02 -0.11422805609E+03  0.15194082688E+03  0.00000000000E+00 0.  1.
         11    1    4    4    0    0 -0.26159570855E+02 -0.26688542592E+01  0.14087441980E+02  0.29831224445E+02  0.00000000000E+00 0. -1.
</event>
<event>
 8    1  0.6849590E-009  0.8477216E+02  0.7561462E-02  0.1316029E+00
         -1   -1    0    0    0  501 -0.00000000000E+00  0.00000000000E+00  0.11059131500E+03  0.11059131500E+03  0.00000000000E+00 0.  1.
          1   -1    0    0  501    0  0.00000000000E+00 -0.00000000000E+00 -0.12216725301E+03  0.12216725301E+03  0.00000000000E+00 0. -1.
         25    2    1    2    0    0 -0.37094183123E+02  0.80662460531E+01 -0.28628273435E+02  0.13382176187E+03  0.12509053986E+03 0.  0.
         23    2    1    2    0    0  0.37094183123E+02 -0.80662460531E+01  0.17052335418E+02  0.98936806145E+02  0.89758936714E+02 0.  0.
          5    1    3    3  502    0  0.23440363663E+02 -0.83494221253E+01  0.35806791114E+02  0.43803677795E+02  0.41800000000E+01 0.  1.
         -5    1    3    3    0  502 -0.60534546786E+02  0.16415668178E+02 -0.64435064549E+02  0.90018084071E+02  0.41800000000E+01 0.  1.
        -11    1    4    4    0    0 -0.18323139717E+02 -0.17383991524E+02  0.32019834042E+02  0.40782476414E+02  0.00000000000E+00 0.  1.
         11    1    4    4    0    0  0.55417322840E+02  0.93177454708E+01 -0.14967498624E+02  0.58154329731E+02  0.00000000000E+00 0. -1.
</event>
<event>
 8    1  0.6849590E-009  0.1491593E+03  0.7561462E-02  0.1201510E+00
         -2   -1    0    0    0  501 -0.00000000000E+00  0.00000000000E+00  0.82821943919E+02  0.82821943919E+02  0.00000000000E+00 0.  1.
          2   -1    0    0  501    0  0.00000000000E+00 -0.00000000000E+00 -0.37684105750E+03  0.37684105750E+03  0.00000000000E+00 0. -1.
         25    2    1    2    0    0  0.49868318915E+02 -0.11432445204E+03 -0.23600785898E+03  0.29479657463E+03  0.12509349042E+03 0.  0.
         23    2    1    2    0    0 -0.49868318915E+02  0.11432445204E+03 -0.58011254601E+02  0.16486642679E+03  0.90877408948E+02 0.  0.
          5    1    3    3  502    0  0.69867090580E+02 -0.31061705840E+02 -0.54282477874E+02  0.93863196835E+02  0.41800000000E+01 0.  1.
         -5    1    3    3    0  502 -0.19998771665E+02 -0.83262746202E+02 -0.18172538111E+03  0.20093337780E+03  0.41800000000E+01 0.  1.
        -11    1    4    4    0    0 -0.19336864809E+02  0.10076548141E+03 -0.75281850347E+02  0.12725939485E+03  0.00000000000E+00 0. -1.
         11    1    4    4    0    0 -0.30531454106E+02  0.13558970627E+02  0.17270595746E+02  0.37607031945E+02  0.00000000000E+00 0.  1.
</event>
<event>
 8    1  0.6849590E-009  0.1186111E+03  0.7561462E-02  0.1245406E+00
          2   -1    0    0  501    0  0.00000000000E+00  0.00000000000E+00  0.95306983211E+02  0.95306983211E+02  0.00000000000E+00 0. -1.
         -2   -1    0    0    0  501 -0.00000000000E+00 -0.00000000000E+00 -0.16480217580E+03  0.16480217580E+03  0.00000000000E+00 0.  1.
         25    2    1    2    0    0  0.52290423294E+02 -0.17264675567E+02 -0.85870576836E+01  0.13695900612E+03  0.12510665212E+03 0.  0.
         23    2    1    2    0    0 -0.52290423294E+02  0.17264675567E+02 -0.60908134902E+02  0.12315015289E+03  0.91781271890E+02 0.  0.
          5    1    3    3  502    0  0.53292588269E+02  0.45537298986E+02  0.10898329655E+02  0.71063292582E+02  0.41800000000E+01 0.  1.
         -5    1    3    3    0  502 -0.10021649746E+01 -0.62801974553E+02 -0.19485387339E+02  0.65895713534E+02  0.41800000000E+01 0.  1.
        -11    1    4    4    0    0 -0.24309194446E+01  0.46292776979E+02 -0.12963913405E+02  0.48135159921E+02  0.00000000000E+00 0. -1.
         11    1    4    4    0    0 -0.49859503849E+02 -0.29028101413E+02 -0.47944221497E+02  0.75014992973E+02  0.00000000000E+00 0.  1.
</event>
<event>
 8    1  0.6849590E-009  0.9578494E+02  0.7561462E-02  0.1289418E+00
          1   -1    0    0  501    0  0.00000000000E+00  0.00000000000E+00  0.31039512111E+03  0.31039512111E+03  0.00000000000E+00 0. -1.
         -1   -1    0    0    0  501 -0.00000000000E+00 -0.00000000000E+00 -0.50542902825E+02  0.50542902825E+02  0.00000000000E+00 0.  1.
         25    2    1    2    0    0 -0.22710287622E+02  0.33366756067E+02  0.17059694596E+03  0.21536063499E+03  0.12509111702E+03 0.  0.
         23    2    1    2    0    0  0.22710287622E+02 -0.33366756067E+02  0.89255272325E+02  0.14557738895E+03  0.10769018043E+03 0.  0.
          5    1    3    3  502    0  0.50091170794E+01  0.57007626578E+02  0.20630461589E+02  0.60975807394E+02  0.41800000000E+01 0.  1.
         -5    1    3    3    0  502 -0.27719404701E+02 -0.23640870511E+02  0.14996648438E+03  0.15438482759E+03  0.41800000000E+01 0.  1.
        -11    1    4    4    0    0 -0.16418409220E+02  0.23392969554E+02 -0.47817180215E+01  0.28976887568E+02  0.00000000000E+00 0.  1.
         11    1    4    4    0    0  0.39128696842E+02 -0.56759725621E+02  0.94036990346E+02  0.11660050138E+03  0.00000000000E+00 0. -1.
</event>
<event>
 8    1  0.6849590E-009  0.1471258E+03  0.7561462E-02  0.1204050E+00
         -3   -1    0    0    0  501 -0.00000000000E+00  0.00000000000E+00  0.13813107278E+03  0.13813107278E+03  0.00000000000E+00 0.  1.
          3   -1    0    0  501    0  0.00000000000E+00 -0.00000000000E+00 -0.17970270832E+03  0.17970270832E+03  0.00000000000E+00 0. -1.
         25    2    1    2    0    0  0.82191990096E+02 -0.79034908188E+02 -0.24489096638E+02  0.17102172572E+03  0.12508666942E+03 0.  0.
         23    2    1    2    0    0 -0.82191990096E+02  0.79034908188E+02 -0.17082538900E+02  0.14681205537E+03  0.90884137889E+02 0.  0.
          5    1    3    3  502    0  0.61952261317E+02 -0.11104011288E+03 -0.34134505607E+02  0.13172177581E+03  0.41800000000E+01 0.  1.
         -5    1    3    3    0  502  0.20239728779E+02  0.32005204692E+02  0.96454089686E+01  0.39299949906E+02  0.41800000000E+01 0.  1.
        -11    1    4    4    0    0 -0.54756177001E+02  0.11381271338E+02  0.26393915109E+02  0.61841822513E+02  0.00000000000E+00 0.  1.
         11    1    4    4    0    0 -0.27435813095E+02  0.67653636850E+02 -0.43476454009E+02  0.84970232861E+02  0.00000000000E+00 0. -1.
</event>
<event>
 8    1  0.6849590E-009  0.1160395E+03  0.7561462E-02  0.1249777E+00
         -1   -1    0    0    0  501 -0.00000000000E+00  0.00000000000E+00  0.32955446867E+02  0.32955446867E+02  0.00000000000E+00 0.  1.
          1   -1    0    0  501    0  0.00000000000E+00 -0.00000000000E+00 -0.57949422336E+03  0.57949422336E+03  0.00000000000E+00 0. -1.
         25    2    1    2    0    0  0.62902892108E+01  0.37918973333E+02 -0.45758960762E+03  0.47593417269E+03  0.12509065296E+03 0.  0.
         23    2    1    2    0    0 -0.62902892108E+01 -0.37918973333E+02 -0.88949168880E+02  0.13651549754E+03  0.96161895506E+02 0.  0.
          5    1    3    3  502    0 -0.55486274292E+02  0.37391584660E+02 -0.19721120543E+03  0.20829447709E+03  0.41800000000E+01 0.  1.
         -5    1    3    3    0  502  0.61776563502E+02  0.52738867289E+00 -0.26037840218E+03  0.26763969560E+03  0.41800000000E+01 0.  1.
        -11    1    4    4    0    0  0.51685794566E+01 -0.69413091634E+02 -0.54016562341E+02  0.88106075334E+02  0.00000000000E+00 0.  1.
         11    1    4    4    0    0 -0.11458868667E+02  0.31494118301E+02 -0.34932606540E+02  0.48409422206E+02  0.00000000000E+00 0. -1.
</event>
<event>
 8    1  0.6849590E-009  0.1421787E+03  0.7561462E-02  0.1210427E+00
         -2   -1    0    0    0  501 -0.00000000000E+00  0.00000000000E+00  0.45547914685E+02  0.45547914685E+02  0.00000000000E+00 0.  1.
          2   -1    0    0  501    0  0.00000000000E+00 -0.00000000000E+00 -0.65386457725E+03  0.65386457725E+03  0.00000000000E+00 0. -1.
         25    2    1    2    0    0  0.10683160100E+03  0.78006303512E+02 -0.35186180853E+03  0.39617175844E+03  0.12508939014E+03 0.  0.
         23    2    1    2    0    0 -0.10683160100E+03 -0.78006303512E+02 -0.25645485404E+03  0.30324073350E+03  0.93208776038E+02 0.  0.
          5    1    3    3  502    0  0.24010010626E+02  0.50179478122E+02 -0.31459525059E+02  0.64044006369E+02  0.41800000000E+01 0.  1.
         -5    1    3    3    0  502  0.82821590378E+02  0.27826825389E+02 -0.32040228347E+03  0.33212775207E+03  0.41800000000E+01 0.  1.
        -11    1    4    4    0    0 -0.33267832154E+02 -0.54540080492E+02 -0.45040196543E+02  0.78166414404E+02  0.00000000000E+00 0.  1.
         11    1    4    4    0    0 -0.73563768851E+02 -0.23466223020E+02 -0.21141465750E+03  0.22507431909E+03  0.00000000000E+00 0. -1.
</event>
<event>
 8    1  0.6849590E-009  0.3065378E+03  0.7561462E-02  0.1082017E+00
         -1   -1    0    0    0  501 -0.00000000000E+00  0.00000000000E+00  0.51230499194E+02  0.51230499194E+02  0.00000000000E+00 0. -1.
          1   -1    0    0  501    0  0.00000000000E+00 -0.00000000000E+00 -0.19581079500E+04  0.19581079500E+04  0.00000000000E+00 0.  1.
         25    2    1    2    0    0  0.28735933293E+03  0.60362441397E+02 -0.11225269315E+04  0.11670189288E+04  0.12508979808E+03 0.  0.
         23    2    1    2    0    0 -0.28735933293E+03 -0.60362441397E+02 -0.78435051929E+03  0.84231952042E+03  0.89874505932E+02 0.  0.
          5    1    3    3  502    0  0.11202774672E+03  0.66941813654E+02 -0.32174375966E+03  0.34722894714E+03  0.41800000000E+01 0.  1.
         -5    1    3    3    0  502  0.17533158621E+03 -0.65793722566E+01 -0.80078317187E+03  0.81978998165E+03  0.41800000000E+01 0.  1.
        -11    1    4    4    0    0 -0.13461369943E+03  0.17167480867E+02 -0.33731266357E+03  0.36358685823E+03  0.00000000000E+00 0.  1.
         11    1    4    4    0    0 -0.15274563350E+03 -0.77529922264E+02 -0.44703785572E+03  0.47873266219E+03  0.00000000000E+00 0. -1.
</event>
<event>
 8    1  0.6849590E-009  0.2808849E+03  0.7561462E-02  0.1095207E+00
         -3   -1    0    0    0  501 -0.00000000000E+00  0.00000000000E+00  0.14308174093E+03  0.14308174093E+03  0.00000000000E+00 0.  1.
          3   -1    0    0  501    0  0.00000000000E+00 -0.00000000000E+00 -0.57515566027E+03  0.57515566027E+03  0.00000000000E+00 0. -1.
         25    2    1    2    0    0 -0.13697094571E+03 -0.22689703301E+03 -0.21574826430E+03  0.36392997107E+03  0.12511757165E+03 0.  0.
         23    2    1    2    0    0  0.13697094571E+03  0.22689703301E+03 -0.21632565504E+03  0.35430743013E+03  0.92161068029E+02 0.  0.
          5    1    3    3  502    0 -0.15860053020E+03 -0.18455080294E+03 -0.19510355671E+03  0.31192306309E+03  0.41800000000E+01 0. -1.
         -5    1    3    3    0  502  0.21629584488E+02 -0.42346230063E+02 -0.20644707586E+02  0.52006907974E+02  0.41800000000E+01 0. -1.
        -11    1    4    4    0    0  0.82097455059E+02  0.18236711338E+03 -0.19771938879E+03  0.28123071112E+03  0.00000000000E+00 0. -1.
         11    1    4    4    0    0  0.54873490655E+02  0.44529919624E+02 -0.18606266250E+02  0.73076719016E+02  0.00000000000E+00 0.  1.
</event>
<event>
 8    1  0.6849590E-009  0.7974910E+02  0.7561462E-02  0.1329765E+00
         -2   -1    0    0    0  501 -0.00000000000E+00  0.00000000000E+00  0.21443094432E+02  0.21443094432E+02  0.00000000000E+00 0. -1.
          2   -1    0    0  501    0  0.00000000000E+00 -0.00000000000E+00 -0.88075005554E+03  0.88075005554E+03  0.00000000000E+00 0.  1.
         25    2    1    2    0    0  0.18301087468E+02  0.56224087664E+02 -0.67132177389E+03  0.68543130109E+03  0.12508823517E+03 0.  0.
         23    2    1    2    0    0 -0.18301087468E+02 -0.56224087664E+02 -0.18798518721E+03  0.21676184888E+03  0.90283944758E+02 0.  0.
          5    1    3    3  502    0  0.19826936131E+02 -0.13073200435E+02 -0.49986904952E+03  0.50045035222E+03  0.41800000000E+01 0.  1.
         -5    1    3    3    0  502 -0.15258486630E+01  0.69297288099E+02 -0.17145272437E+03  0.18498094887E+03  0.41800000000E+01 0.  1.
        -11    1    4    4    0    0 -0.19945406613E+02 -0.15690980862E+02 -0.96862444899E+00  0.25396148501E+02  0.00000000000E+00 0. -1.
         11    1    4    4    0    0  0.16443191448E+01 -0.40533106803E+02 -0.18701656277E+03  0.19136570038E+03  0.00000000000E+00 0.  1.
</event>
<event>
 8    1  0.6849590E-009  0.9777738E+02  0.7561462E-02  0.1285040E+00
         -1   -1    0    0    0  501 -0.00000000000E+00  0.00000000000E+00  0.35048942076E+02  0.35048942076E+02  0.00000000000E+00 0.  1.
          1   -1    0    0  501    0  0.00000000000E+00 -0.00000000000E+00 -0.51533835520E+03  0.51533835520E+03  0.00000000000E+00 0. -1.
         25    2    1    2    0    0 -0.77190495916E+02  0.11755824456E+02 -0.24461471264E+03  0.28562257544E+03  0.12508927169E+03 0.  0.
         23    2    1    2    0    0  0.77190495916E+02 -0.11755824456E+02 -0.23567470049E+03  0.26476472184E+03  0.91984897741E+02 0.  0.
          5    1    3    3  502    0 -0.53131388785E+02  0.33800310446E+02 -0.24471779191E+03  0.25272450522E+03  0.41800000000E+01 0. -1.
         -5    1    3    3    0  502 -0.24059107132E+02 -0.22044485990E+02  0.10307927678E+00  0.32898070215E+02  0.41800000000E+01 0. -1.
        -11    1    4    4    0    0  0.82439041231E+01  0.21479939161E+02 -0.76641184723E+01  0.24250535118E+02  0.00000000000E+00 0.  1.
         11    1    4    4    0    0  0.68946591793E+02 -0.33235763617E+02 -0.22801058202E+03  0.24051418672E+03  0.00000000000E+00 0. -1.
</event>
<event>
 8    1  0.6849590E-009  0.2322445E+03  0.7561462E-02  0.1125070E+00
          2   -1    0    0  501    0  0.00000000000E+00  0.00000000000E+00  0.34244734176E+03  0.34244734176E+03  0.00000000000E+00 0. -1.
         -2   -1    0    0    0  501 -0.00000000000E+00 -0.00000000000E+00 -0.17649771824E+03  0.17649771824E+03  0.00000000000E+00 0.  1.
         25    2    1    2    0    0  0.13701451113E+03 -0.17066152325E+03  0.76078766126E+02  0.26330800325E+03  0.12507915152E+03 0.  0.
         23    2    1    2    0    0 -0.13701451113E+03  0.17066152325E+03  0.89870857397E+02  0.25563705675E+03  0.96825626767E+02 0.  0.
          5    1    3    3  502    0 -0.12753796108E+02 -0.22976420410E+02 -0.18743611846E+02  0.32547973748E+02  0.41800000000E+01 0.  1.
         -5    1    3    3    0  502  0.14976830723E+03 -0.14768510284E+03  0.94822377972E+02  0.23076002950E+03  0.41800000000E+01 0.  1.
        -11    1    4    4    0    0 -0.59151068634E+02  0.12226890431E+03  0.91803517892E+02  0.16394029333E+03  0.00000000000E+00 0. -1.
         11    1    4    4    0    0 -0.77863442492E+02  0.48392618941E+02 -0.19326604948E+01  0.91696763418E+02  0.00000000000E+00 0.  1.
</event>
<event>
 8    1  0.6849590E-009  0.3247702E+03  0.7561462E-02  0.1073475E+00
         -3   -1    0    0    0  501 -0.00000000000E+00  0.00000000000E+00  0.74524666535E+03  0.74524666535E+03  0.00000000000E+00 0.  1.
          3   -1    0    0  501    0  0.00000000000E+00 -0.00000000000E+00 -0.16277959277E+03  0.16277959277E+03  0.00000000000E+00 0. -1.
         25    2    1    2    0    0  0.29869915197E+03  0.81992723766E+02  0.14545575805E+03  0.36434666348E+03  0.12508846269E+03 0.  0.
         23    2    1    2    0    0 -0.29869915197E+03 -0.81992723766E+02  0.43701131453E+03  0.54367959464E+03  0.93083953872E+02 0.  0.
          5    1    3    3  502    0  0.86226410309E+02 -0.32459337267E+02  0.31840814881E+02  0.97570037936E+02  0.41800000000E+01 0.  1.
         -5    1    3    3    0  502  0.21247274166E+03  0.11445206103E+03  0.11361494317E+03  0.26677662554E+03  0.41800000000E+01 0.  1.
        -11    1    4    4    0    0 -0.25267126900E+02  0.10391765949E+02  0.80356609815E+02  0.84874031613E+02  0.00000000000E+00 0.  1.
         11    1    4    4    0    0 -0.27343202507E+03 -0.92384489715E+02  0.35665470471E+03  0.45880556303E+03  0.00000000000E+00 0. -1.
</event>
<event>
 8    1  0.6849590E-009  0.2250767E+03  0.7561462E-02  0.1130154E+00
         -2   -1    0    0    0  501 -0.00000000000E+00  0.00000000000E+00  0.21854093551E+03  0.21854093551E+03  0.00000000000E+00 0.  1.
          2   -1    0    0  501    0  0.00000000000E+00 -0.00000000000E+00 -0.23233242060E+03  0.23233242060E+03  0.00000000000E+00 0. -1.
         25    2    1    2    0    0  0.12669794143E+03 -0.14608852055E+03 -0.77569910613E+01  0.23043798159E+03  0.12508904129E+03 0.  0.
         23    2    1    2    0    0 -0.12669794143E+03  0.14608852055E+03 -0.60344940206E+01  0.22043537452E+03  0.10564617845E+03 0.  0.
          5    1    3    3  502    0  0.86428283849E+02 -0.89510724962E+01 -0.88951932117E+01  0.87444649981E+02  0.41800000000E+01 0.  1.
         -5    1    3    3    0  502  0.40269657578E+02 -0.13713744806E+03  0.11382021504E+01  0.14299333161E+03  0.41800000000E+01 0.  1.
        -11    1    4    4    0    0 -0.81912318491E+02  0.15425009294E+03 -0.11821129355E+01  0.17465427702E+03  0.00000000000E+00 0.  1.
         11    1    4    4    0    0 -0.44785622937E+02 -0.81615723840E+01 -0.48523810851E+01  0.45781097495E+02  0.00000000000E+00 0. -1.
</event>
<event>
 8    1  0.6849590E-009  0.8327012E+02  0.7561462E-02  0.1320019E+00
         -1   -1    0    0    0  501 -0.00000000000E+00  0.00000000000E+00  0.57337444581E+03  0.57337444581E+03  0.00000000000E+00 0.  1.
          1   -1    0    0  501    0  0.00000000000E+00 -0.00000000000E+00 -0.21522561535E+02  0.21522561535E+02  0.00000000000E+00 0. -1.
         25    2    1    2    0    0 -0.20658013502E+02  0.54236398271E+01  0.34336852649E+03  0.36606769328E+03  0.12508973453E+03 0.  0.
         23    2    1    2    0    0  0.20658013502E+02 -0.54236398271E+01  0.20848335778E+03  0.22882931407E+03  0.91876956381E+02 0.  0.
          5    1    3    3  502    0  0.24347932783E+02  0.10288727073E+02  0.84289864526E+01  0.28057083744E+02  0.41800000000E+01 0. -1.
         -5    1    3    3    0  502 -0.45005946285E+02 -0.48650872463E+01  0.33493954004E+03  0.33801060953E+03  0.41800000000E+01 0. -1.
        -11    1    4    4    0    0  0.65943677825E+01  0.43200751330E+02  0.98111138982E+02  0.10740384627E+03  0.00000000000E+00 0.  1.
         11    1    4    4    0    0  0.14063645719E+02 -0.48624391157E+02  0.11037221880E+03  0.12142546780E+03  0.00000000000E+00 0. -1.
</event>
<event>
 8    1  0.6849590E-009  0.7984247E+02  0.7561462E-02  0.1329499E+00
         -2   -1    0    0    0  501 -0.00000000000E+00  0.00000000000E+00  0.11687253111E+03  0.11687253111E+03  0.00000000000E+00 0.  1.
          2   -1    0    0  501    0  0.00000000000E+00 -0.00000000000E+00 -0.15060181604E+03  0.15060181604E+03  0.00000000000E+00 0. -1.
         25    2    1    2    0    0  0.53037863497E+02  0.28816414470E+02 -0.43018572414E+02  0.14539857815E+03  0.12508696275E+03 0.  0.
         23    2    1    2    0    0 -0.53037863497E+02 -0.28816414470E+02  0.92892874841E+01  0.12207576899E+03  0.10570147495E+03 0.  0.
          5    1    3    3  502    0  0.52295748979E+02  0.12272248753E+02 -0.84682472870E+02  0.10036955247E+03  0.41800000000E+01 0. -1.
         -5    1    3    3    0  502  0.74211451752E+00  0.16544165717E+02  0.41663900456E+02  0.45029025688E+02  0.41800000000E+01 0. -1.
        -11    1    4    4    0    0 -0.75505045940E+01  0.20373626535E+02  0.42174195692E+02  0.47442149614E+02  0.00000000000E+00 0.  1.
         11    1    4    4    0    0 -0.45487358903E+02 -0.49190041005E+02 -0.32884908207E+02  0.74633619380E+02  0.00000000000E+00 0. -1.
</event>
<event>
 8    1  0.6849590E-009  0.1713127E+03  0.7561462E-02  0.1176486E+00
          2   -1    0    0  501    0  0.00000000000E+00  0.00000000000E+00  0.19831022192E+03  0.19831022192E+03  0.00000000000E+00 0. -1.
         -2   -1    0    0    0  501 -0.00000000000E+00 -0.00000000000E+00 -0.20752512599E+03  0.20752512599E+03  0.00000000000E+00 0.  1.
         25    2    1    2    0    0 -0.13430556219E+03 -0.53947161328E+01 -0.10850486984E+03  0.21327843165E+03  0.12508915073E+03 0.  0.
         23    2    1    2    0    0  0.13430556219E+03  0.53947161328E+01  0.99289965769E+02  0.19255691626E+03  0.95669126147E+02 0.  0.
          5    1    3    3  502    0 -0.16221468995E+02 -0.53183964644E+02 -0.39580117814E+02  0.68379297143E+02  0.41800000000E+01 0. -1.
         -5    1    3    3    0  502 -0.11808409320E+03  0.47789248511E+02 -0.68924752031E+02  0.14489913451E+03  0.41800000000E+01 0. -1.
        -11    1    4    4    0    0  0.94110330674E+01 -0.28486390896E+02  0.40548525406E+02  0.50440310489E+02  0.00000000000E+00 0. -1.
         11    1    4    4    0    0  0.12489452912E+03  0.33881107029E+02  0.58741440363E+02  0.14211660577E+03  0.00000000000E+00 0.  1.
</event>
<event>
 8    1  0.6849590E-009  0.4471473E+03  0.7561462E-02  0.1028576E+00
          2   -1    0    0  501    0  0.00000000000E+00  0.00000000000E+00  0.12386129052E+04  0.12386129052E+04  0.00000000000E+00 0. -1.
         -2   -1    0    0    0  501 -0.00000000000E+00 -0.00000000000E+00 -0.18009650419E+03  0.18009650419E+03  0.00000000000E+00 0.  1.
         25    2    1    2    0    0 -0.24148976604E+03 -0.36274403082E+03  0.75332576514E+03  0.87923149506E+03  0.12509106478E+03 0.  0.
         23    2    1    2    0    0  0.24148976604E+03  0.36274403082E+03  0.30519063582E+03  0.53947791428E+03  0.89412285544E+02 0.  0.
          5    1    3    3  502    0 -0.55902570356E+02 -0.17388964708E+02  0.69430893007E+02  0.90915316475E+02  0.41800000000E+01 0. -1.
         -5    1    3    3    0  502 -0.18558719568E+03 -0.34535506612E+03  0.68389487213E+03  0.78831617859E+03  0.41800000000E+01 0. -1.
        -11    1    4    4    0    0  0.13858318252E+03  0.13437890130E+03  0.11222412948E+03  0.22328735484E+03  0.00000000000E+00 0.  1.
         11    1    4    4    0    0  0.10290658352E+03  0.22836512952E+03  0.19296650635E+03  0.31619055945E+03  0.00000000000E+00 0. -1.
</event>
<event>
 7    1  0.6849590E-009  0.7792694E+02  0.7561462E-02  0.1335040E+00
          2   -1    0    0  501    0  0.00000000000E+00  0.00000000000E+00  0.12099071105E+03  0.12099071105E+03  0.00000000000E+00 0. -1.
         -2   -1    0    0    0  501 -0.00000000000E+00 -0.00000000000E+00 -0.25465211803E+03  0.25465211803E+03  0.00000000000E+00 0.  1.
         23    2    1    2    0    0  0.13640625156E+02 -0.46035552635E+02  0.75030516482E+02  0.12770337346E+03  0.91505379240E+02 0.  0.
          5    1    1    2  502    0  0.24165739702E+02 -0.28593470919E+01 -0.17632591264E+03  0.17804622633E+03  0.41800000000E+01 0. -1.
         -5    1    1    2    0  502 -0.37806364858E+02  0.48894899727E+02 -0.32366010821E+02  0.69893229282E+02  0.41800000000E+01 0. -1.
        -11    1    3    3    0    0  0.24061758941E+02 -0.22043174872E+01 -0.13997973537E+02  0.27924371471E+02  0.00000000000E+00 0.  1.
         11    1    3    3    0    0 -0.10421133786E+02 -0.43831235148E+02  0.89028490018E+02  0.99779001994E+02  0.00000000000E+00 0. -1.
</event>
<event>
 8    1  0.6849590E-009  0.1188441E+03  0.7561462E-02  0.1245016E+00
          1   -1    0    0  501    0  0.00000000000E+00  0.00000000000E+00  0.55090412223E+02  0.55090412223E+02  0.00000000000E+00 0. -1.
         -1   -1    0    0    0  501 -0.00000000000E+00 -0.00000000000E+00 -0.29956123148E+03  0.29956123148E+03  0.00000000000E+00 0.  1.
         25    2    1    2    0    0  0.45225717874E+02  0.45974429736E+02 -0.16861422502E+03  0.21962992546E+03  0.12509010165E+03 0.  0.
         23    2    1    2    0    0 -0.45225717874E+02 -0.45974429736E+02 -0.75856594242E+02  0.13502171825E+03  0.91201029390E+02 0.  0.
          5    1    3    3  502    0  0.10304859236E+02 -0.43326616538E+02 -0.51588158502E+02  0.68280277695E+02  0.41800000000E+01 0.  1.
         -5    1    3    3    0  502  0.34920858638E+02  0.89301046274E+02 -0.11702606652E+03  0.15134964776E+03  0.41800000000E+01 0.  1.
        -11    1    4    4    0    0 -0.61141207564E+02 -0.16251275859E+02 -0.14336259904E+02  0.64868170758E+02  0.00000000000E+00 0.  1.
         11    1    4    4    0    0  0.15915489689E+02 -0.29723153877E+02 -0.61520334338E+02  0.70153547490E+02  0.00000000000E+00 0. -1.
</event>
<event>
 8    1  0.6849590E-009  0.1017384E+03  0.7561462E-02  0.1276682E+00
          1   -1    0    0  501    0  0.00000000000E+00  0.00000000000E+00  0.27411161394E+03  0.27411161394E+03  0.00000000000E+00 0. -1.
         -1   -1    0    0    0  501 -0.00000000000E+00 -0.00000000000E+00 -0.50915469321E+02  0.50915469321E+02  0.00000000000E+00 0.  1.
         25    2    1    2    0    0 -0.34707624720E+02  0.15642493903E+02  0.15318509413E+03  0.20140282852E+03  0.12509244360E+03 0.  0.
         23    2    1    2    0    0  0.34707624720E+02 -0.15642493903E+02  0.70011050494E+02  0.12362425474E+03  0.94509800230E+02 0.  0.
          5    1    3    3  502    0  0.39372954084E+02 -0.25565629304E+00  0.12437125374E+02  0.41502401871E+02  0.41800000000E+01 0.  1.
         -5    1    3    3    0  502 -0.74080578804E+02  0.15898150196E+02  0.14074796875E+03  0.15990042665E+03  0.41800000000E+01 0.  1.
        -11    1    4    4    0    0 -0.22970454914E+01 -0.42319141229E+02  0.29047064786E+01  0.42480859832E+02  0.00000000000E+00 0.  1.
         11    1    4    4    0    0  0.37004670212E+02  0.26676647326E+02  0.67106344016E+02  0.81143394908E+02  0.00000000000E+00 0. -1.
</event>
<event>
 8    1  0.6849590E-009  0.1025513E+03  0.7561462E-02  0.1275021E+00
          1   -1    0    0  501    0  0.00000000000E+00  0.00000000000E+00  0.39679631201E+02  0.39679631201E+02  0.00000000000E+00 0. -1.
         -1   -1    0    0    0  501 -0.00000000000E+00 -0.00000000000E+00 -0.38270762948E+03  0.38270762948E+03  0.00000000000E+00 0.  1.
         25    2    1    2    0    0 -0.17727723056E+02  0.51368963717E+02 -0.16621515196E+03  0.21500670052E+03  0.12508941573E+03 0.  0.
         23    2    1    2    0    0  0.17727723056E+02 -0.51368963717E+02 -0.17681284632E+03  0.20738056017E+03  0.93759647571E+02 0.  0.
          5    1    3    3  502    0 -0.80796550446E+01  0.81529805147E+02 -0.16352950215E+03  0.18295289128E+03  0.41800000000E+01 0. -1.
         -5    1    3    3    0  502 -0.96480680119E+01 -0.30160841429E+02 -0.26856498132E+01  0.32053809243E+02  0.41800000000E+01 0. -1.
        -11    1    4    4    0    0 -0.89397245409E+01 -0.61835197608E+02 -0.16492787040E+03  0.17636528223E+03  0.00000000000E+00 0.  1.
         11    1    4    4    0    0  0.26667447597E+02  0.10466233890E+02 -0.11884975915E+02  0.31015277940E+02  0.00000000000E+00 0. -1.
</event>
<event>
 8    1  0.6849590E-009  0.7554802E+02  0.7561462E-02  0.1342182E+00
          1   -1    0    0  501    0  0.00000000000E+00  0.00000000000E+00  0.37039991146E+03  0.37039991146E+03  0.00000000000E+00 0. -1.
         -1   -1    0    0    0  501 -0.00000000000E+00 -0.00000000000E+00 -0.39497579910E+02  0.39497579910E+02  0.00000000000E+00 0.  1.
         25    2    1    2    0    0 -0.33105912743E+02 -0.53944918541E+01  0.11599612887E+03  0.17386107054E+03  0.12508983946E+03 0.  0.
         23    2    1    2    0    0  0.33105912743E+02  0.53944918541E+01  0.21490620269E+03  0.23603642084E+03  0.91670136942E+02 0.  0.
          5    1    3    3  502    0 -0.26678280698E+02 -0.22253645194E+02 -0.17473871397E+02  0.39112197164E+02  0.41800000000E+01 0. -1.
         -5    1    3    3    0  502 -0.64276320449E+01  0.16859153340E+02  0.13347000026E+03  0.13474887337E+03  0.41800000000E+01 0. -1.
        -11    1    4    4    0    0  0.64004027220E+02 -0.68037845820E+01  0.13892544537E+03  0.15311135280E+03  0.00000000000E+00 0.  1.
         11    1    4    4    0    0 -0.30898114478E+02  0.12198276436E+02  0.75980757321E+02  0.82925068040E+02  0.00000000000E+00 0. -1.
</event>
<event>
 8    1  0.6849590E-009  0.1132859E+03  0.7561462E-02  0.1254603E+00
          2   -1    0    0  501    0  0.00000000000E+00  0.00000000000E+00  0.54245937310E+03  0.54245937310E+03  0.00000000000E+00 0. -1.
         -2   -1    0    0    0  501 -0.00000000000E+00 -0.00000000000E+00 -0.29194520766E+02  0.29194520766E+02  0.00000000000E+00 0.  1.
         25    2    1    2    0    0 -0.46388914173E+02  0.34742064658E+02  0.35015039702E+03  0.37631215117E+03  0.12508633884E+03 0.  0.
         23    2    1    2    0    0  0.46388914173E+02 -0.34742064658E+02  0.16311445531E+03  0.19534174270E+03  0.90515901885E+02 0.  0.
          5    1    3    3  502    0 -0.54534986069E+02  0.70929588750E+02  0.30419172733E+03  0.31710432139E+03  0.41800000000E+01 0. -1.
         -5    1    3    3    0  502  0.81460718966E+01 -0.36187524092E+02  0.45958669689E+02  0.59207829777E+02  0.41800000000E+01 0. -1.
        -11    1    4    4    0    0  0.69284157626E+02 -0.18842145166E+02  0.14581789898E+03  0.16253670538E+03  0.00000000000E+00 0. -1.
         11    1    4    4    0    0 -0.22895243453E+02 -0.15899919492E+02  0.17296556332E+02  0.32805037320E+02  0.00000000000E+00 0.  1.
</event>
<event>
 8    1  0.6849590E-009  0.1059784E+03  0.7561462E-02  0.1268204E+00
          1   -1    0    0  501    0  0.00000000000E+00  0.00000000000E+00  0.37978091214E+02  0.37978091214E+02  0.00000000000E+00 0. -1.
         -1   -1    0    0    0  501 -0.00000000000E+00 -0.00000000000E+00 -0.52648476556E+03  0.52648476556E+03  0.00000000000E+00 0.  1.
         25    2    1    2    0    0 -0.47893711172E+02  0.52179187727E+02 -0.37562619113E+03  0.40219362163E+03  0.12509276003E+03 0.  0.
         23    2    1    2    0    0  0.47893711172E+02 -0.52179187727E+02 -0.11288048321E+03  0.16226923515E+03  0.92589556553E+02 0.  0.
          5    1    3    3  502    0  0.48865624184E+01  0.60615580371E+02 -0.74156275159E+02  0.95993503017E+02  0.41800000000E+01 0.  1.
         -5    1    3    3    0  502 -0.52780273590E+02 -0.84363926432E+01 -0.30146991597E+03  0.30620011861E+03  0.41800000000E+01 0.  1.
        -11    1    4    4    0    0  0.55084388762E+02 -0.11749617762E+02 -0.18403581460E+02  0.59253989008E+02  0.00000000000E+00 0.  1.
         11    1    4    4    0    0 -0.71906775903E+01 -0.40429569966E+02 -0.94476901754E+02  0.10301524614E+03  0.00000000000E+00 0. -1.
</event>
<event>
 8    1  0.6849590E-009  0.1253842E+03  0.7561462E-02  0.1234470E+00
         -1   -1    0    0    0  501 -0.00000000000E+00  0.00000000000E+00  0.77324307903E+02  0.77324307903E+02  0.00000000000E+00 0.  1.
          1   -1    0    0  501    0  0.00000000000E+00 -0.00000000000E+00 -0.30270694517E+03  0.30270694517E+03  0.00000000000E+00 0. -1.
         25    2    1    2    0    0  0.10010500809E+03 -0.57596176835E+01 -0.74635028439E+02  0.17683886726E+03  0.12508961452E+03 0.  0.
         23    2    1    2    0    0 -0.10010500809E+03  0.57596176835E+01 -0.15074760883E+03  0.20319238582E+03  0.92239461433E+02 0.  0.
          5    1    3    3  502    0 -0.23676846910E+02 -0.10885530648E+02  0.83328689950E+01  0.27676650136E+02  0.41800000000E+01 0. -1.
         -5    1    3    3    0  502  0.12378185500E+03  0.51259129640E+01 -0.82967897434E+02  0.14916221712E+03  0.41800000000E+01 0. -1.
        -11    1    4    4    0    0 -0.87907679140E+02  0.32683827541E+01 -0.16331680970E+03  0.18550154368E+03  0.00000000000E+00 0. -1.
         11    1    4    4    0    0 -0.12197328952E+02  0.24912349293E+01  0.12569200869E+02  0.17690842137E+02  0.00000000000E+00 0.  1.
</event>
<event>
 8    1  0.6849590E-009  0.7417453E+02  0.7561462E-02  0.1346446E+00
          1   -1    0    0  501    0  0.00000000000E+00  0.00000000000E+00  0.47514773465E+02  0.47514773465E+02  0.00000000000E+00 0. -1.
         -1   -1    0    0    0  501 -0.00000000000E+00 -0.00000000000E+00 -0.27859536499E+03  0.27859536499E+03  0.00000000000E+00 0.  1.
         25    2    1    2    0    0 -0.16959061785E+02  0.13620065996E+02 -0.91061279211E+02  0.15624660485E+03  0.12509088289E+03 0.  0.
         23    2    1    2    0    0  0.16959061785E+02 -0.13620065996E+02 -0.14001931231E+03  0.16986353360E+03  0.93675483736E+02 0.  0.
          5    1    3    3  502    0 -0.23466745821E+02 -0.11559145557E+02 -0.11659204624E+03  0.11956370541E+03  0.41800000000E+01 0. -1.
         -5    1    3    3    0  502  0.65076840356E+01  0.25179211553E+02  0.25530767031E+02  0.36682899437E+02  0.41800000000E+01 0. -1.
        -11    1    4    4    0    0  0.33375487733E+02 -0.47393322388E+02 -0.94403817175E+02  0.11077965014E+03  0.00000000000E+00 0. -1.
         11    1    4    4    0    0 -0.16416425948E+02  0.33773256392E+02 -0.45615495138E+02  0.59083883462E+02  0.00000000000E+00 0.  1.
</event>
<event>
 8    1  0.6849590E-009  0.1069184E+03  0.7561462E-02  0.1266385E+00
          2   -1    0    0  501    0  0.00000000000E+00  0.00000000000E+00  0.52785981372E+03  0.52785981372E+03  0.00000000000E+00 0. -1.
         -2   -1    0    0    0  501 -0.00000000000E+00 -0.00000000000E+00 -0.32790511680E+02  0.32790511680E+02  0.00000000000E+00 0.  1.
         25    2    1    2    0    0 -0.98463732529E+01  0.62554468294E+02  0.38024761399E+03  0.40527401779E+03  0.12509503979E+03 0.  0.
         23    2    1    2    0    0  0.98463732529E+01 -0.62554468294E+02  0.11482168805E+03  0.15537630762E+03  0.83353250391E+02 0.  0.
          5    1    3    3  502    0  0.39845592070E+02  0.25625079057E+02  0.30044080452E+03  0.30418163210E+03  0.41800000000E+01 0. -1.
         -5    1    3    3    0  502 -0.49691965323E+02  0.36929389237E+02  0.79806809468E+02  0.10109238569E+03  0.41800000000E+01 0. -1.
        -11    1    4    4    0    0  0.44011247188E+02 -0.52715098964E+02  0.68641860945E+02  0.97095708514E+02  0.00000000000E+00 0.  1.
         11    1    4    4    0    0 -0.34164873935E+02 -0.98393693295E+01  0.46179827110E+02  0.58280599102E+02  0.00000000000E+00 0. -1.
</event>
<event>
 8    1  0.6849590E-009  0.8446863E+02  0.7561462E-02  0.1316828E+00
          1   -1    0    0  501    0  0.00000000000E+00  0.00000000000E+00  0.24968856518E+03  0.24968856518E+03  0.00000000000E+00 0.  1.
         -1   -1    0    0    0  501 -0.00000000000E+00 -0.00000000000E+00 -0.62252021140E+02  0.62252021140E+02  0.00000000000E+00 0. -1.
         25    2    1    2    0    0 -0.55989874804E+02 -0.12831007217E+02  0.77857266023E+02  0.15813938719E+03  0.12508721390E+03 0.  0.
         23    2    1    2    0    0  0.55989874804E+02  0.12831007217E+02  0.10957927801E+03  0.15380119913E+03  0.91365692997E+02 0.  0.
          5    1    3    3  502    0 -0.60862551695E+02  0.18192962999E+02 -0.10275940688E+02  0.64484893258E+02  0.41800000000E+01 0. -1.
         -5    1    3    3    0  502  0.48726768908E+01 -0.31023970216E+02  0.88133206711E+02  0.93654493929E+02  0.41800000000E+01 0. -1.
        -11    1    4    4    0    0  0.51586889014E+02 -0.80886145849E+01  0.11936743094E+03  0.13028897257E+03  0.00000000000E+00 0.  1.
         11    1    4    4    0    0  0.44029857899E+01  0.20919621802E+02 -0.97881529244E+01  0.23512226561E+02  0.00000000000E+00 0. -1.
</event>
<event>
 8    1  0.6849590E-009  0.1111523E+03  0.7561462E-02  0.1258451E+00
          1   -1    0    0  501    0  0.00000000000E+00  0.00000000000E+00  0.35090545904E+02  0.35090545904E+02  0.00000000000E+00 0.  1.
         -1   -1    0    0    0  501 -0.00000000000E+00 -0.00000000000E+00 -0.52635776504E+03  0.52635776504E+03  0.00000000000E+00 0. -1.
         25    2    1    2    0    0 -0.39289841517E+02 -0.48289734975E+02 -0.37445319157E+03  0.39967329040E+03  0.12509179123E+03 0.  0.
         23    2    1    2    0    0  0.39289841517E+02  0.48289734975E+02 -0.11681402757E+03  0.16177502054E+03  0.93005645445E+02 0.  0.
          5    1    3    3  502    0  0.44057121221E+02 -0.26122156918E+02 -0.10850404492E+03  0.12005830740E+03  0.41800000000E+01 0. -1.
         -5    1    3    3    0  502 -0.83346962739E+02 -0.22167578057E+02 -0.26594914665E+03  0.27961498300E+03  0.41800000000E+01 0. -1.
        -11    1    4    4    0    0  0.53934717421E+02  0.32212374296E+02 -0.25321043804E+02  0.67732902347E+02  0.00000000000E+00 0.  1.
         11    1    4    4    0    0 -0.14644875904E+02  0.16077360679E+02 -0.91492983766E+02  0.94042118197E+02  0.00000000000E+00 0. -1.
</event>
<event>
 8    1  0.6849590E-009  0.8438164E+02  0.7561462E-02  0.1317058E+00
          1   -1    0    0  501    0  0.00000000000E+00  0.00000000000E+00  0.27680986796E+03  0.27680986796E+03  0.00000000000E+00 0. -1.
         -1   -1    0    0    0  501 -0.00000000000E+00 -0.00000000000E+00 -0.51912711260E+02  0.51912711260E+02  0.00000000000E+00 0.  1.
         25    2    1    2    0    0 -0.15394562657E+02 -0.38408235770E+02  0.12117717562E+03  0.17900854375E+03  0.12509182911E+03 0.  0.
         23    2    1    2    0    0  0.15394562657E+02  0.38408235770E+02  0.10371998109E+03  0.14971403548E+03  0.99720974763E+02 0.  0.
          5    1    3    3  502    0 -0.73782910401E+01 -0.73169844172E+02  0.27404400532E+02  0.78592231443E+02  0.41800000000E+01 0.  1.
         -5    1    3    3    0  502 -0.80162716165E+01  0.34761608402E+02  0.93772775084E+02  0.10041631230E+03  0.41800000000E+01 0.  1.
        -11    1    4    4    0    0 -0.14612210910E+02  0.16450235103E+02 -0.14122078244E+02  0.26144981097E+02  0.00000000000E+00 0.  1.
         11    1    4    4    0    0  0.30006773567E+02  0.21958000667E+02  0.11784205933E+03  0.12356905438E+03  0.00000000000E+00 0. -1.
</event>
<event>
 8    1  0.6849590E-009  0.1432065E+03  0.7561462E-02  0.1209078E+00
         -2   -1    0    0    0  501 -0.00000000000E+00  0.00000000000E+00  0.20202756668E+02  0.20202756668E+02  0.00000000000E+00 0.  1.
          2   -1    0    0  501    0  0.00000000000E+00 -0.00000000000E+00 -0.12363268314E+04  0.12363268314E+04  0.00000000000E+00 0. -1.
         25    2    1    2    0    0  0.45698028085E+02 -0.10461824204E+03 -0.68589283750E+03  0.70649229436E+03  0.12509632736E+03 0.  0.
         23    2    1    2    0    0 -0.45698028085E+02  0.10461824204E+03 -0.53023123726E+03  0.55003729374E+03  0.91447105990E+02 0.  0.
          5    1    3    3  502    0 -0.19045229409E+02 -0.75324899064E+02 -0.52256634211E+03  0.52832718602E+03  0.41800000000E+01 0. -1.
         -5    1    3    3    0  502  0.64743257494E+02 -0.29293342978E+02 -0.16332649539E+03  0.17816510834E+03  0.41800000000E+01 0. -1.
        -11    1    4    4    0    0 -0.51299605059E+02  0.24048889966E+02 -0.31700123388E+03  0.32202450353E+03  0.00000000000E+00 0.  1.
         11    1    4    4    0    0  0.56015769739E+01  0.80569352077E+02 -0.21323000338E+03  0.22801279021E+03  0.00000000000E+00 0. -1.
</event>
<event>
 8    1  0.6849590E-009  0.2001662E+03  0.7561462E-02  0.1149599E+00
          2   -1    0    0  501    0  0.00000000000E+00  0.00000000000E+00  0.17710001466E+04  0.17710001466E+04  0.00000000000E+00 0.  1.
         -2   -1    0    0    0  501 -0.00000000000E+00 -0.00000000000E+00 -0.24652674391E+02  0.24652674391E+02  0.00000000000E+00 0. -1.
         25    2    1    2    0    0 -0.90643041617E+02  0.15363450015E+03  0.90413894029E+03  0.93001842130E+03  0.12508924807E+03 0.  0.
         23    2    1    2    0    0  0.90643041617E+02 -0.15363450015E+03  0.84220853189E+03  0.86563439966E+03  0.90487469038E+02 0.  0.
          5    1    3    3  502    0 -0.94885811804E+02  0.17243703481E+03  0.78813615006E+03  0.81235085504E+03  0.41800000000E+01 0. -1.
         -5    1    3    3    0  502  0.42427701869E+01 -0.18802534659E+02  0.11600279022E+03  0.11766756626E+03  0.41800000000E+01 0. -1.
        -11    1    4    4    0    0  0.83514245902E+01 -0.53440550082E+02  0.11662355090E+03  0.12855617959E+03  0.00000000000E+00 0. -1.
         11    1    4    4    0    0  0.82291617027E+02 -0.10019395007E+03  0.72558498099E+03  0.73707822007E+03  0.00000000000E+00 0.  1.
</event>
<event>
 8    1  0.6849590E-009  0.1215006E+03  0.7561462E-02  0.1240642E+00
         -1   -1    0    0    0  501 -0.00000000000E+00  0.00000000000E+00  0.20593867519E+03  0.20593867519E+03  0.00000000000E+00 0.  1.
          1   -1    0    0  501    0  0.00000000000E+00 -0.00000000000E+00 -0.10072423711E+03  0.10072423711E+03  0.00000000000E+00 0. -1.
         25    2    1    2    0    0  0.53523079077E+02  0.63366495947E+02  0.92630318721E+01  0.15037690051E+03  0.12508947056E+03 0.  0.
         23    2    1    2    0    0 -0.53523079077E+02 -0.63366495947E+02  0.95951406206E+02  0.15628601179E+03  0.91316002564E+02 0.  0.
          5    1    3    3  502    0  0.47620149576E+02 -0.19552976574E+02  0.35997235651E+02  0.62954514636E+02  0.41800000000E+01 0.  1.
         -5    1    3    3    0  502  0.59029295006E+01  0.82919472521E+02 -0.26734203779E+02  0.87422385872E+02  0.41800000000E+01 0.  1.
        -11    1    4    4    0    0 -0.50585686726E+02 -0.62992171248E+01  0.83455729533E+02  0.97792896622E+02  0.00000000000E+00 0. -1.
         11    1    4    4    0    0 -0.29373923512E+01 -0.57067278822E+02  0.12495676673E+02  0.58493115163E+02  0.00000000000E+00 0.  1.
</event>
<event>
 8    1  0.6849590E-009  0.1545529E+03  0.7561462E-02  0.1194987E+00
         -1   -1    0    0    0  501 -0.00000000000E+00  0.00000000000E+00  0.14444452607E+04  0.14444452607E+04  0.00000000000E+00 0.  1.
          1   -1    0    0  501    0  0.00000000000E+00 -0.00000000000E+00 -0.33289707599E+02  0.33289707599E+02  0.00000000000E+00 0. -1.
         25    2    1    2    0    0  0.92924616363E+02 -0.69355615958E+02  0.12373695610E+04  0.12490694738E+04  0.12508370835E+03 0.  0.
         23    2    1    2    0    0 -0.92924616363E+02  0.69355615958E+02  0.17378599216E+03  0.22866549456E+03  0.92957794401E+02 0.  0.
          5    1    3    3  502    0  0.96198819326E+01 -0.78091713718E+02  0.41332135539E+03  0.42076462910E+03  0.41800000000E+01 0.  1.
         -5    1    3    3    0  502  0.83304734431E+02  0.87360977603E+01  0.82404820558E+03  0.82830484467E+03  0.41800000000E+01 0.  1.
        -11    1    4    4    0    0 -0.63108588607E+02  0.90187187234E+02  0.14625255220E+03  0.18304707516E+03  0.00000000000E+00 0.  1.
         11    1    4    4    0    0 -0.29816027756E+02 -0.20831571277E+02  0.27533439959E+02  0.45618419405E+02  0.00000000000E+00 0. -1.
</event>
<event>
 8    1  0.6849590E-009  0.1458254E+03  0.7561462E-02  0.1205699E+00
         -2   -1    0    0    0  501 -0.00000000000E+00  0.00000000000E+00  0.18811756295E+03  0.18811756295E+03  0.00000000000E+00 0.  1.
          2   -1    0    0  501    0  0.00000000000E+00 -0.00000000000E+00 -0.18007031838E+03  0.18007031838E+03  0.00000000000E+00 0. -1.
         25    2    1    2    0    0 -0.11066922405E+03 -0.11072057317E+02 -0.94852084557E+02  0.19239017840E+03  0.12508715039E+03 0.  0.
         23    2    1    2    0    0  0.11066922405E+03  0.11072057317E+02  0.10289932912E+03  0.17579770293E+03  0.89141981208E+02 0.  0.
          5    1    3    3  502    0 -0.11958911128E+03 -0.47111059257E+02 -0.83541163336E+02  0.15335451025E+03  0.41800000000E+01 0. -1.
         -5    1    3    3    0  502  0.89198872289E+01  0.36039001940E+02 -0.11310921221E+02  0.39035668150E+02  0.41800000000E+01 0. -1.
        -11    1    4    4    0    0  0.37996442120E+02 -0.24054847953E+02  0.80203045546E+02  0.91950496674E+02  0.00000000000E+00 0. -1.
         11    1    4    4    0    0  0.72672781934E+02  0.35126905270E+02  0.22696283579E+02  0.83847206252E+02  0.00000000000E+00 0.  1.
</event>
<event>
 8    1  0.6849590E-009  0.1782327E+03  0.7561462E-02  0.1169525E+00
         -4   -1    0    0    0  501 -0.00000000000E+00  0.00000000000E+00  0.16509963415E+03  0.16509963415E+03  0.00000000000E+00 0.  1.
          4   -1    0    0  501    0  0.00000000000E+00 -0.00000000000E+00 -0.20664603190E+03  0.20664603190E+03  0.00000000000E+00 0. -1.
         25    2    1    2    0    0  0.25245154990E+02  0.13985249345E+03  0.22318400060E+02  0.19063450995E+03  0.12508943851E+03 0.  0.
         23    2    1    2    0    0 -0.25245154990E+02 -0.13985249345E+03 -0.63864797811E+02  0.18111115611E+03  0.92339052914E+02 0.  0.
          5    1    3    3  502    0  0.89541486995E+01 -0.22101208310E+02  0.13153160444E+02  0.27552100053E+02  0.41800000000E+01 0.  1.
         -5    1    3    3    0  502  0.16291006291E+02  0.16195370176E+03  0.91652396158E+01  0.16308240990E+03  0.41800000000E+01 0.  1.
        -11    1    4    4    0    0  0.33221414821E+02 -0.28971052014E+02 -0.18481121271E+02  0.47796821033E+02  0.00000000000E+00 0. -1.
         11    1    4    4    0    0 -0.58466569811E+02 -0.11088144144E+03 -0.45383676540E+02  0.13331433508E+03  0.00000000000E+00 0.  1.
</event>
<event>
 8    1  0.6849590E-009  0.4646961E+02  0.7561462E-02  0.1465370E+00
          1   -1    0    0  501    0  0.00000000000E+00  0.00000000000E+00  0.98839907393E+02  0.98839907393E+02  0.00000000000E+00 0. -1.
         -1   -1    0    0    0  501 -0.00000000000E+00 -0.00000000000E+00 -0.12426493825E+03  0.12426493825E+03  0.00000000000E+00 0.  1.
         25    2    1    2    0    0  0.77664925762E+01 -0.47356138655E+01 -0.36836225535E+02  0.13072038571E+03  0.12509263481E+03 0.  0.
         23    2    1    2    0    0 -0.77664925762E+01  0.47356138655E+01  0.11411194681E+02  0.92384459932E+02  0.91224605383E+02 0.  0.
          5    1    3    3  502    0 -0.19460520264E+02 -0.17922136786E+02  0.39942143029E+02  0.48091184490E+02  0.41800000000E+01 0. -1.
         -5    1    3    3    0  502  0.27227012840E+02  0.13186522920E+02 -0.76778368564E+02  0.82629201220E+02  0.41800000000E+01 0. -1.
        -11    1    4    4    0    0  0.13682969202E+02  0.35363556017E+01  0.47954831940E+02  0.49993953270E+02  0.00000000000E+00 0. -1.
         11    1    4    4    0    0 -0.21449461778E+02  0.11992582638E+01 -0.36543637259E+02  0.42390506662E+02  0.00000000000E+00 0.  1.
</event>
<event>
 8    1  0.6849590E-009  0.1951850E+03  0.7561462E-02  0.1153866E+00
          3   -1    0    0  501    0  0.00000000000E+00  0.00000000000E+00  0.37239097802E+03  0.37239097802E+03  0.00000000000E+00 0.  1.
         -3   -1    0    0    0  501 -0.00000000000E+00 -0.00000000000E+00 -0.12799487886E+03  0.12799487886E+03  0.00000000000E+00 0. -1.
         25    2    1    2    0    0  0.17668940249E+03 -0.55166636320E+02  0.82245889415E+02  0.23806389888E+03  0.12509009117E+03 0.  0.
         23    2    1    2    0    0 -0.17668940249E+03  0.55166636320E+02  0.16215020975E+03  0.26232195800E+03  0.90871427920E+02 0.  0.
          5    1    3    3  502    0  0.15335224073E+03 -0.78196898228E+02  0.27869667849E+02  0.17443008747E+03  0.41800000000E+01 0.  1.
         -5    1    3    3    0  502  0.23337161767E+02  0.23030261908E+02  0.54376221566E+02  0.63633811411E+02  0.41800000000E+01 0.  1.
        -11    1    4    4    0    0 -0.96678994164E+02  0.31818411858E+02  0.14511704753E+03  0.17725178907E+03  0.00000000000E+00 0.  1.
         11    1    4    4    0    0 -0.80010408328E+02  0.23348224463E+02  0.17033162218E+02  0.85070168929E+02  0.00000000000E+00 0. -1.
</event>
<event>
 8    1  0.6849590E-009  0.1590676E+03  0.7561462E-02  0.1189753E+00
          1   -1    0    0  501    0  0.00000000000E+00  0.00000000000E+00  0.13836501491E+02  0.13836501491E+02  0.00000000000E+00 0. -1.
         -1   -1    0    0    0  501 -0.00000000000E+00 -0.00000000000E+00 -0.18508410036E+04  0.18508410036E+04  0.00000000000E+00 0.  1.
         25    2    1    2    0    0 -0.11173368781E+03 -0.33120469002E+02 -0.10755193661E+04  0.10890227346E+04  0.12508887693E+03 0.  0.
         23    2    1    2    0    0  0.11173368781E+03  0.33120469002E+02 -0.76148513593E+03  0.77565477043E+03  0.90550141828E+02 0.  0.
          5    1    3    3  502    0 -0.70497000073E+02  0.44144106433E+02 -0.52181994258E+03  0.52842412325E+03  0.41800000000E+01 0. -1.
         -5    1    3    3    0  502 -0.41236687734E+02 -0.77264575435E+02 -0.55369942355E+03  0.56059861137E+03  0.41800000000E+01 0. -1.
        -11    1    4    4    0    0  0.36226615593E+02  0.57384631613E+02 -0.38009839303E+03  0.38610898980E+03  0.00000000000E+00 0.  1.
         11    1    4    4    0    0  0.75507072215E+02 -0.24264162611E+02 -0.38138674290E+03  0.38954578063E+03  0.00000000000E+00 0. -1.
</event>
<event>
 8    1  0.6849590E-009  0.1163107E+03  0.7561462E-02  0.1249310E+00
          2   -1    0    0  501    0  0.00000000000E+00  0.00000000000E+00  0.10913454844E+04  0.10913454844E+04  0.00000000000E+00 0. -1.
         -2   -1    0    0    0  501 -0.00000000000E+00 -0.00000000000E+00 -0.21644010513E+02  0.21644010513E+02  0.00000000000E+00 0.  1.
         25    2    1    2    0    0 -0.11387796886E+02 -0.60529077398E+02  0.90067609151E+03  0.91140409014E+03  0.12508614065E+03 0.  0.
         23    2    1    2    0    0  0.11387796886E+02  0.60529077398E+02  0.16902538239E+03  0.20158540478E+03  0.90959575640E+02 0.  0.
          5    1    3    3  502    0 -0.12473590917E+02  0.37993502187E+02  0.22403247381E+03  0.22761177122E+03  0.41800000000E+01 0. -1.
         -5    1    3    3    0  502  0.10857940311E+01 -0.98522579586E+02  0.67664361770E+03  0.68379231892E+03  0.41800000000E+01 0. -1.
        -11    1    4    4    0    0 -0.14039940297E+02  0.66260825970E+02  0.63342688040E+02  0.92735716473E+02  0.00000000000E+00 0.  1.
         11    1    4    4    0    0  0.25427737183E+02 -0.57317485713E+01  0.10568269435E+03  0.10884968831E+03  0.00000000000E+00 0. -1.
</event>
<event>
 8    1  0.6849590E-009  0.1371498E+03  0.7561462E-02  0.1217216E+00
         -1   -1    0    0    0  501 -0.00000000000E+00  0.00000000000E+00  0.28315840725E+02  0.28315840725E+02  0.00000000000E+00 0. -1.
          1   -1    0    0  501    0  0.00000000000E+00 -0.00000000000E+00 -0.69245867194E+03  0.69245867194E+03  0.00000000000E+00 0.  1.
         25    2    1    2    0    0  0.88591988282E+02  0.14141357067E+01 -0.36520555704E+03  0.39607131696E+03  0.12508736569E+03 0.  0.
         23    2    1    2    0    0 -0.88591988282E+02 -0.14141357067E+01 -0.29893727417E+03  0.32470319571E+03  0.90653909157E+02 0.  0.
          5    1    3    3  502    0  0.69686181644E+01  0.54951979840E+02 -0.12835098862E+03  0.13985610608E+03  0.41800000000E+01 0. -1.
         -5    1    3    3    0  502  0.81623370118E+02 -0.53537844133E+02 -0.23685456842E+03  0.25621521088E+03  0.41800000000E+01 0. -1.
        -11    1    4    4    0    0 -0.56071225990E+02  0.39642548661E+02 -0.21561962675E+03  0.22629038311E+03  0.00000000000E+00 0.  1.
         11    1    4    4    0    0 -0.32520762292E+02 -0.41056684367E+02 -0.83317647420E+02  0.98412812595E+02  0.00000000000E+00 0. -1.
</event>
<event>
 8    1  0.6849590E-009  0.1882482E+03  0.7561462E-02  0.1160051E+00
          2   -1    0    0  501    0  0.00000000000E+00  0.00000000000E+00  0.74802388043E+03  0.74802388043E+03  0.00000000000E+00 0. -1.
         -2   -1    0    0    0  501 -0.00000000000E+00 -0.00000000000E+00 -0.49800136284E+02  0.49800136284E+02  0.00000000000E+00 0.  1.
         25    2    1    2    0    0  0.13746923195E+03  0.71330229152E+02  0.33204626285E+03  0.38715404242E+03  0.12509092921E+03 0.  0.
         23    2    1    2    0    0 -0.13746923195E+03 -0.71330229152E+02  0.36617748129E+03  0.41066997429E+03  0.10284983545E+03 0.  0.
          5    1    3    3  502    0  0.14870918792E+03  0.88937840817E+02  0.26368016410E+03  0.31554565983E+03  0.41800000000E+01 0. -1.
         -5    1    3    3    0  502 -0.11239955972E+02 -0.17607611665E+02  0.68366098754E+02  0.71608382593E+02  0.41800000000E+01 0. -1.
        -11    1    4    4    0    0 -0.62240287666E+02  0.18276401563E+02  0.17376604132E+03  0.18547915619E+03  0.00000000000E+00 0.  1.
         11    1    4    4    0    0 -0.75228944280E+02 -0.89606630715E+02  0.19241143997E+03  0.22519081810E+03  0.00000000000E+00 0. -1.
</event>
<event>
 8    1  0.6849590E-009  0.2061704E+03  0.7561462E-02  0.1144635E+00
          2   -1    0    0  501    0  0.00000000000E+00  0.00000000000E+00  0.10165922549E+04  0.10165922549E+04  0.00000000000E+00 0.  1.
         -2   -1    0    0    0  501 -0.00000000000E+00 -0.00000000000E+00 -0.48072050599E+02  0.48072050599E+02  0.00000000000E+00 0. -1.
         25    2    1    2    0    0  0.18462459048E+03  0.78523182805E+01  0.63680296839E+03  0.67476914921E+03  0.12508991112E+03 0.  0.
         23    2    1    2    0    0 -0.18462459048E+03 -0.78523182805E+01  0.33171723594E+03  0.38989515631E+03  0.88509942859E+02 0.  0.
          5    1    3    3  502    0  0.33406932821E+02 -0.37120692279E+02  0.28244270106E+03  0.28685418027E+03  0.41800000000E+01 0. -1.
         -5    1    3    3    0  502  0.15121765766E+03  0.44973010559E+02  0.35436026733E+03  0.38791496894E+03  0.41800000000E+01 0. -1.
        -11    1    4    4    0    0 -0.14129100794E+03  0.32736374136E+02  0.22282781346E+03  0.26587036986E+03  0.00000000000E+00 0. -1.
         11    1    4    4    0    0 -0.43333582542E+02 -0.40588692416E+02  0.10888942248E+03  0.12402478646E+03  0.00000000000E+00 0.  1.
</event>
<event>
 8    1  0.6849590E-009  0.1003832E+03  0.7561462E-02  0.1279492E+00
         -3   -1    0    0    0  501 -0.00000000000E+00  0.00000000000E+00  0.20885414161E+03  0.20885414161E+03  0.00000000000E+00 0.  1.
          3   -1    0    0  501    0  0.00000000000E+00 -0.00000000000E+00 -0.75148290129E+02  0.75148290129E+02  0.00000000000E+00 0. -1.
         25    2    1    2    0    0  0.97092420186E+01 -0.17741702125E+02  0.14179218720E+03  0.19016383443E+03  0.12509285431E+03 0.  0.
         23    2    1    2    0    0 -0.97092420186E+01  0.17741702125E+02 -0.80863357124E+01  0.93838597314E+02  0.91275714983E+02 0.  0.
          5    1    3    3  502    0 -0.51287643516E+02 -0.29418153880E+02  0.42353169572E+02  0.72849938421E+02  0.41800000000E+01 0.  1.
         -5    1    3    3    0  502  0.60996885534E+02  0.11676451756E+02  0.99439017624E+02  0.11731389601E+03  0.41800000000E+01 0.  1.
        -11    1    4    4    0    0 -0.48265599145E+01 -0.30439715871E+02 -0.27844056676E+02  0.41535087276E+02  0.00000000000E+00 0. -1.
         11    1    4    4    0    0 -0.48826821041E+01  0.48181417995E+02  0.19757720963E+02  0.52303510037E+02  0.00000000000E+00 0.  1.
</event>
<event>
 8    1  0.6849590E-009  0.9520804E+02  0.7561462E-02  0.1290708E+00
          2   -1    0    0  501    0  0.00000000000E+00  0.00000000000E+00  0.22307789628E+03  0.22307789628E+03  0.00000000000E+00 0. -1.
         -2   -1    0    0    0  501 -0.00000000000E+00 -0.00000000000E+00 -0.63582771179E+02  0.63582771179E+02  0.00000000000E+00 0.  1.
         25    2    1    2    0    0 -0.19408400083E+02 -0.42497179833E+02  0.68614902309E+02  0.15013242983E+03  0.12509614454E+03 0.  0.
         23    2    1    2    0    0  0.19408400083E+02  0.42497179833E+02  0.90880222789E+02  0.13652823763E+03  0.90543075320E+02 0.  0.
          5    1    3    3  502    0  0.18949210811E+02  0.23032476314E+02 -0.17830030864E+02  0.34999285080E+02  0.41800000000E+01 0.  1.
         -5    1    3    3    0  502 -0.38357610894E+02 -0.65529656147E+02  0.86444933172E+02  0.11513314475E+03  0.41800000000E+01 0.  1.
        -11    1    4    4    0    0 -0.25730728843E+02  0.65546062488E+01  0.70498826516E+02  0.75333377795E+02  0.00000000000E+00 0. -1.
         11    1    4    4    0    0  0.45139128926E+02  0.35942573585E+02  0.20381396273E+02  0.61194859834E+02  0.00000000000E+00 0.  1.
</event>
<event>
 8    1  0.6849590E-009  0.1560751E+03  0.7561462E-02  0.1193201E+00
         -1   -1    0    0    0  501 -0.00000000000E+00  0.00000000000E+00  0.52957524524E+02  0.52957524524E+02  0.00000000000E+00 0.  1.
          1   -1    0    0  501    0  0.00000000000E+00 -0.00000000000E+00 -0.50405382214E+03  0.50405382214E+03  0.00000000000E+00 0. -1.
         25    2    1    2    0    0  0.53124043720E+02 -0.11045336797E+03 -0.23910372154E+03  0.29637825647E+03  0.12508945094E+03 0.  0.
         23    2    1    2    0    0 -0.53124043720E+02  0.11045336797E+03 -0.21199257608E+03  0.26063309020E+03  0.89256063526E+02 0.  0.
          5    1    3    3  502    0  0.21337225315E+02 -0.13191608426E+03 -0.20578150840E+03  0.24539892435E+03  0.41800000000E+01 0.  1.
         -5    1    3    3    0  502  0.31786818405E+02  0.21462716292E+02 -0.33322213138E+02  0.50979332119E+02  0.41800000000E+01 0.  1.
        -11    1    4    4    0    0  0.34304667864E+01  0.70608695776E+02 -0.56677877938E+02  0.90607603815E+02  0.00000000000E+00 0.  1.
         11    1    4    4    0    0 -0.56554510507E+02  0.39844672196E+02 -0.15531469814E+03  0.17002548639E+03  0.00000000000E+00 0. -1.
</event>
<event>
 8    1  0.6849590E-009  0.9403589E+02  0.7561462E-02  0.1293362E+00
          1   -1    0    0  501    0  0.00000000000E+00  0.00000000000E+00  0.37608171795E+02  0.37608171795E+02  0.00000000000E+00 0. -1.
         -1   -1    0    0    0  501 -0.00000000000E+00 -0.00000000000E+00 -0.33871236719E+03  0.33871236719E+03  0.00000000000E+00 0.  1.
         25    2    1    2    0    0 -0.30114740436E+02 -0.63505110105E+01 -0.18244805168E+03  0.22333413748E+03  0.12507445310E+03 0.  0.
         23    2    1    2    0    0  0.30114740436E+02  0.63505110105E+01 -0.11865614371E+03  0.15298640151E+03  0.91533229068E+02 0.  0.
          5    1    3    3  502    0 -0.23838039616E+02  0.39387267520E+02 -0.13525387336E+02  0.48166559749E+02  0.41800000000E+01 0. -1.
         -5    1    3    3    0  502 -0.62767008196E+01 -0.45737778530E+02 -0.16892266435E+03  0.17516757773E+03  0.41800000000E+01 0. -1.
        -11    1    4    4    0    0  0.47701409364E+02  0.36852698833E+02 -0.85579738370E+02  0.10467777933E+03  0.00000000000E+00 0.  1.
         11    1    4    4    0    0 -0.17586668928E+02 -0.30502187823E+02 -0.33076405344E+02  0.48308622175E+02  0.00000000000E+00 0. -1.
</event>
<event>
 8    1  0.6849590E-009  0.1096181E+03  0.7561462E-02  0.1261279E+00
          2   -1    0    0  501    0  0.00000000000E+00  0.00000000000E+00  0.32082475806E+03  0.32082475806E+03  0.00000000000E+00 0.  1.
         -2   -1    0    0    0  501 -0.00000000000E+00 -0.00000000000E+00 -0.47056926052E+02  0.47056926052E+02  0.00000000000E+00 0. -1.
         25    2    1    2    0    0 -0.28394866388E+01 -0.20963700286E+02  0.87675069119E+02  0.15421207855E+03  0.12508760135E+03 0.  0.
         23    2    1    2    0    0  0.28394866388E+01  0.20963700286E+02  0.18609276289E+03  0.21366960556E+03  0.10284281465E+03 0.  0.
          5    1    3    3  502    0  0.58147063724E+02  0.61813950554E+01  0.29800382367E+02  0.65763408167E+02  0.41800000000E+01 0. -1.
         -5    1    3    3    0  502 -0.60986550363E+02 -0.27145095342E+02  0.57874686752E+02  0.88448670385E+02  0.41800000000E+01 0. -1.
        -11    1    4    4    0    0  0.56977598741E+01 -0.36122389430E+02  0.12397667039E+03  0.12925751926E+03  0.00000000000E+00 0.  1.
         11    1    4    4    0    0 -0.28582732353E+01  0.57086089717E+02  0.62116092499E+02  0.84412086293E+02  0.00000000000E+00 0. -1.
</event>
<event>
 8    1  0.6849590E-009  0.1045799E+03  0.7561462E-02  0.1270950E+00
          2   -1    0    0  501    0  0.00000000000E+00  0.00000000000E+00  0.14665646329E+03  0.14665646329E+03  0.00000000000E+00 0. -1.
         -2   -1    0    0    0  501 -0.00000000000E+00 -0.00000000000E+00 -0.82484704697E+02  0.82484704697E+02  0.00000000000E+00 0.  1.
         25    2    1    2    0    0  0.69549325971E+01 -0.16107906050E+02  0.49752864615E+02  0.13574797074E+03  0.12507728929E+03 0.  0.
         23    2    1    2    0    0 -0.69549325971E+01  0.16107906050E+02  0.14418893978E+02  0.93393197249E+02  0.90590005321E+02 0.  0.
          5    1    3    3  502    0  0.65336715643E+02 -0.36669075918E+01  0.17961962520E+02  0.67988507263E+02  0.41800000000E+01 0.  1.
         -5    1    3    3    0  502 -0.58381783046E+02 -0.12440998458E+02  0.31790902095E+02  0.67759463474E+02  0.41800000000E+01 0.  1.
        -11    1    4    4    0    0 -0.91706830961E+01 -0.33173036251E+02 -0.13194520788E+02  0.36859831001E+02  0.00000000000E+00 0.  1.
         11    1    4    4    0    0  0.22157504990E+01  0.49280942301E+02  0.27613414766E+02  0.56533366249E+02  0.00000000000E+00 0. -1.
</event>
<event>
 8    1  0.6849590E-009  0.1008678E+03  0.7561462E-02  0.1278482E+00
          2   -1    0    0  501    0  0.00000000000E+00  0.00000000000E+00  0.12712464962E+04  0.12712464962E+04  0.00000000000E+00 0. -1.
         -2   -1    0    0    0  501 -0.00000000000E+00 -0.00000000000E+00 -0.15270358951E+02  0.15270358951E+02  0.00000000000E+00 0.  1.
         25    2    1    2    0    0  0.38809892897E+02  0.33535322554E+02  0.10166119478E+04  0.10255619570E+04  0.12508656851E+03 0.  0.
         23    2    1    2    0    0 -0.38809892897E+02 -0.33535322554E+02  0.23936418940E+03  0.26095489809E+03  0.90395896051E+02 0.  0.
          5    1    3    3  502    0  0.82728061526E+02  0.60149695625E+01  0.60176161993E+03  0.60746574524E+03  0.41800000000E+01 0. -1.
         -5    1    3    3    0  502 -0.43918168629E+02  0.27520352992E+02  0.41485032789E+03  0.41809621179E+03  0.41800000000E+01 0. -1.
        -11    1    4    4    0    0  0.67329247669E+01 -0.16916247903E+02  0.15760697216E+01  0.18275002457E+02  0.00000000000E+00 0.  1.
         11    1    4    4    0    0 -0.45542817664E+02 -0.16619074652E+02  0.23778811968E+03  0.24267989563E+03  0.00000000000E+00 0. -1.
</event>
<event>
 8    1  0.6849590E-009  0.6242114E+02  0.7561462E-02  0.1387943E+00
         -2   -1    0    0    0  501 -0.00000000000E+00  0.00000000000E+00  0.53236552236E+02  0.53236552236E+02  0.00000000000E+00 0.  1.
          2   -1    0    0  501    0  0.00000000000E+00 -0.00000000000E+00 -0.42942479983E+03  0.42942479983E+03  0.00000000000E+00 0. -1.
         25    2    1    2    0    0 -0.29143727268E+02  0.28215823896E+02 -0.35998996855E+03  0.38325717613E+03  0.12509115095E+03 0.  0.
         23    2    1    2    0    0  0.29143727268E+02 -0.28215823896E+02 -0.16198279049E+02  0.99404175935E+02  0.89293428604E+02 0.  0.
          5    1    3    3  502    0 -0.35129703860E+02  0.41285300149E+02 -0.36377503004E+03  0.36781560187E+03  0.41800000000E+01 0.  1.
         -5    1    3    3    0  502  0.59859765918E+01 -0.13069476253E+02  0.37850614880E+01  0.15441574264E+02  0.41800000000E+01 0.  1.
        -11    1    4    4    0    0  0.37812935573E+02 -0.17354119526E+02  0.29914256227E+02  0.51243012077E+02  0.00000000000E+00 0.  1.
         11    1    4    4    0    0 -0.86692083044E+01 -0.10861704370E+02 -0.46112535277E+02  0.48161163857E+02  0.00000000000E+00 0. -1.
</event>
<event>
 8    1  0.6849590E-009  0.1844004E+03  0.7561462E-02  0.1163611E+00
         -2   -1    0    0    0  501 -0.00000000000E+00  0.00000000000E+00  0.56312219615E+02  0.56312219615E+02  0.00000000000E+00 0.  1.
          2   -1    0    0  501    0  0.00000000000E+00 -0.00000000000E+00 -0.65733690462E+03  0.65733690462E+03  0.00000000000E+00 0. -1.
         25    2    1    2    0    0 -0.14051848396E+03  0.60546432576E+02 -0.39296638435E+03  0.43986581329E+03  0.12509212462E+03 0.  0.
         23    2    1    2    0    0  0.14051848396E+03 -0.60546432576E+02 -0.20805830065E+03  0.27378331094E+03  0.90872053179E+02 0.  0.
          5    1    3    3  502    0 -0.14071331865E+03  0.49824866857E+01 -0.26025213224E+03  0.29592855211E+03  0.41800000000E+01 0. -1.
         -5    1    3    3    0  502  0.19483468866E+00  0.55563945890E+02 -0.13271425210E+03  0.14393726118E+03  0.41800000000E+01 0. -1.
        -11    1    4    4    0    0  0.55533521154E+02  0.16050535188E+02 -0.39306540187E+02  0.69904189810E+02  0.00000000000E+00 0.  1.
         11    1    4    4    0    0  0.84984962803E+02 -0.76596967764E+02 -0.16875176047E+03  0.20387912113E+03  0.00000000000E+00 0. -1.
</event>
<event>
 8    1  0.6849590E-009  0.2250379E+03  0.7561462E-02  0.1130182E+00
          2   -1    0    0  501    0  0.00000000000E+00  0.00000000000E+00  0.14242922259E+04  0.14242922259E+04  0.00000000000E+00 0. -1.
         -2   -1    0    0    0  501 -0.00000000000E+00 -0.00000000000E+00 -0.69376347583E+02  0.69376347583E+02  0.00000000000E+00 0.  1.
         25    2    1    2    0    0  0.15579937040E+03  0.13810716017E+03  0.11859224908E+04  0.12105397333E+04  0.12508900917E+03 0.  0.
         23    2    1    2    0    0 -0.15579937040E+03 -0.13810716017E+03  0.16899338752E+03  0.28312884018E+03  0.90863323783E+02 0.  0.
          5    1    3    3  502    0  0.98954895092E+02  0.18023386116E+02  0.68158862828E+03  0.68898290568E+03  0.41800000000E+01 0. -1.
         -5    1    3    3    0  502  0.56844475313E+02  0.12008377405E+03  0.50433386254E+03  0.52155682765E+03  0.41800000000E+01 0. -1.
        -11    1    4    4    0    0 -0.55363616870E+02 -0.14531627938E+02  0.86670349460E+02  0.10386552729E+03  0.00000000000E+00 0. -1.
         11    1    4    4    0    0 -0.10043575354E+03 -0.12357553223E+03  0.82323038057E+02  0.17926331289E+03  0.00000000000E+00 0.  1.
</event>
<event>
 8    1  0.6849590E-009  0.1119733E+03  0.7561462E-02  0.1256959E+00
          2   -1    0    0  501    0  0.00000000000E+00  0.00000000000E+00  0.40253780414E+03  0.40253780414E+03  0.00000000000E+00 0. -1.
         -2   -1    0    0    0  501 -0.00000000000E+00 -0.00000000000E+00 -0.37301643158E+02  0.37301643158E+02  0.00000000000E+00 0.  1.
         25    2    1    2    0    0 -0.52302252532E+02  0.15306257049E+01  0.24418977624E+03  0.27930408848E+03  0.12507701062E+03 0.  0.
         23    2    1    2    0    0  0.52302252532E+02 -0.15306257049E+01  0.12104638474E+03  0.16053535882E+03  0.91550563833E+02 0.  0.
          5    1    3    3  502    0 -0.92415855871E+02  0.12177413340E+02  0.15664234084E+03  0.18232738455E+03  0.41800000000E+01 0.  1.
         -5    1    3    3    0  502  0.40113603339E+02 -0.10646787635E+02  0.87547435406E+02  0.96976703934E+02  0.41800000000E+01 0.  1.
        -11    1    4    4    0    0  0.42004328845E+02  0.32666737047E+02  0.26452570242E+02  0.59424050883E+02  0.00000000000E+00 0.  1.
         11    1    4    4    0    0  0.10297923688E+02 -0.34197362752E+02  0.94593814501E+02  0.10111130794E+03  0.00000000000E+00 0. -1.
</event>
<event>
 8    1  0.6849590E-009  0.1149488E+03  0.7561462E-02  0.1251670E+00
         -2   -1    0    0    0  501 -0.00000000000E+00  0.00000000000E+00  0.86322428092E+02  0.86322428092E+02  0.00000000000E+00 0.  1.
          2   -1    0    0  501    0  0.00000000000E+00 -0.00000000000E+00 -0.15820390072E+03  0.15820390072E+03  0.00000000000E+00 0. -1.
         25    2    1    2    0    0 -0.37165847610E+02 -0.56453939923E+01 -0.29345076394E+02  0.13387328175E+03  0.12509097232E+03 0.  0.
         23    2    1    2    0    0  0.37165847610E+02  0.56453939923E+01 -0.42536396239E+02  0.11065304706E+03  0.94982004177E+02 0.  0.
          5    1    3    3  502    0 -0.50314286641E+02  0.51326019562E+02 -0.15674875658E+02  0.73682167796E+02  0.41800000000E+01 0.  1.
         -5    1    3    3    0  502  0.13148439031E+02 -0.56971413554E+02 -0.13670200736E+02  0.60191113957E+02  0.41800000000E+01 0.  1.
        -11    1    4    4    0    0 -0.18717901842E+02  0.32328812776E+02 -0.36629102450E+01  0.37535701623E+02  0.00000000000E+00 0. -1.
         11    1    4    4    0    0  0.55883749453E+02 -0.26683418784E+02 -0.38873485994E+02  0.73117345440E+02  0.00000000000E+00 0.  1.
</event>
<event>
 8    1  0.6849590E-009  0.9174329E+02  0.7561462E-02  0.1298684E+00
          2   -1    0    0  501    0  0.00000000000E+00  0.00000000000E+00  0.10400829306E+03  0.10400829306E+03  0.00000000000E+00 0. -1.
         -2   -1    0    0    0  501 -0.00000000000E+00 -0.00000000000E+00 -0.15775144115E+03  0.15775144115E+03  0.00000000000E+00 0.  1.
         25    2    1    2    0    0 -0.33561560586E+02 -0.45650509256E+01  0.35453579803E+02  0.13435865149E+03  0.12509225744E+03 0.  0.
         23    2    1    2    0    0  0.33561560586E+02  0.45650509256E+01 -0.89196727897E+02  0.12740108272E+03  0.84426071629E+02 0.  0.
          5    1    3    3  502    0 -0.42212282562E+02 -0.48157048875E+02  0.56042502441E+02  0.85201013112E+02  0.41800000000E+01 0. -1.
         -5    1    3    3    0  502  0.86507219761E+01  0.43591997950E+02 -0.20588922637E+02  0.49157638382E+02  0.41800000000E+01 0. -1.
        -11    1    4    4    0    0 -0.19434203274E+02  0.91480822910E+01  0.22617396238E+01  0.21598405789E+02  0.00000000000E+00 0. -1.
         11    1    4    4    0    0  0.52995763860E+02 -0.45830313654E+01 -0.91458467521E+02  0.10580267693E+03  0.00000000000E+00 0.  1.
</event>
<event>
 8    1  0.6849590E-009  0.1041292E+03  0.7561462E-02  0.1271845E+00
         -2   -1    0    0    0  501 -0.00000000000E+00  0.00000000000E+00  0.20834520690E+02  0.20834520690E+02  0.00000000000E+00 0.  1.
          2   -1    0    0  501    0  0.00000000000E+00 -0.00000000000E+00 -0.81349519631E+03  0.81349519631E+03  0.00000000000E+00 0. -1.
         25    2    1    2    0    0  0.66450852403E+02  0.18323840145E+02 -0.39608149825E+03  0.42104638983E+03  0.12509208699E+03 0.  0.
         23    2    1    2    0    0 -0.66450852403E+02 -0.18323840145E+02 -0.39657917736E+03  0.41328332717E+03  0.93683433399E+02 0.  0.
          5    1    3    3  502    0 -0.10684867306E+02  0.26086182117E+02 -0.15132249415E+02  0.32266277429E+02  0.41800000000E+01 0. -1.
         -5    1    3    3    0  502  0.77135719709E+02 -0.77623419722E+01 -0.38094924884E+03  0.38878011240E+03  0.41800000000E+01 0. -1.
        -11    1    4    4    0    0 -0.29978505417E+02  0.29446045408E+02 -0.73524249075E+02  0.84685273686E+02  0.00000000000E+00 0.  1.
         11    1    4    4    0    0 -0.36472346986E+02 -0.47769885553E+02 -0.32305492829E+03  0.32859805348E+03  0.00000000000E+00 0. -1.
</event>
<event>
 7    1  0.6849590E-009  0.1774360E+03  0.7561462E-02  0.1170308E+00
         -1   -1    0    0    0  501 -0.00000000000E+00  0.00000000000E+00  0.35687636339E+03  0.35687636339E+03  0.00000000000E+00 0.  1.
          1   -1    0    0  501    0  0.00000000000E+00 -0.00000000000E+00 -0.10366782918E+03  0.10366782918E+03  0.00000000000E+00 0. -1.
         23    2    1    2    0    0 -0.83153849097E+02 -0.13279344956E+03  0.86857422349E+02  0.19999553639E+03  0.88911978346E+02 0.  0.
          5    1    1    2  502    0  0.66591655645E+02  0.15445090864E+03  0.16013922836E+03  0.23227478692E+03  0.41800000000E+01 0. -1.
         -5    1    1    2    0  502  0.16562193452E+02 -0.21657459086E+02  0.62118835026E+01  0.28273869255E+02  0.41800000000E+01 0. -1.
        -11    1    3    3    0    0 -0.63439476966E+02 -0.11940455457E+03  0.10404850345E+03  0.17061097842E+03  0.00000000000E+00 0.  1.
         11    1    3    3    0    0 -0.19714372131E+02 -0.13388894990E+02 -0.17191081097E+02  0.29384557966E+02  0.00000000000E+00 0. -1.
</event>
<event>
 8    1  0.6849590E-009  0.1582596E+03  0.7561462E-02  0.1190676E+00
          2   -1    0    0  501    0  0.00000000000E+00  0.00000000000E+00  0.27982854466E+03  0.27982854466E+03  0.00000000000E+00 0. -1.
         -2   -1    0    0    0  501 -0.00000000000E+00 -0.00000000000E+00 -0.11224804697E+03  0.11224804697E+03  0.00000000000E+00 0.  1.
         25    2    1    2    0    0 -0.95500268770E+02  0.85964297009E+02  0.27701103742E+02  0.18145209953E+03  0.12508937437E+03 0.  0.
         23    2    1    2    0    0  0.95500268770E+02 -0.85964297009E+02  0.13987939395E+03  0.21062449210E+03  0.91028952139E+02 0.  0.
          5    1    3    3  502    0 -0.37769531194E+02 -0.29591847234E+02  0.19464978067E+02  0.51947788023E+02  0.41800000000E+01 0. -1.
         -5    1    3    3    0  502 -0.57730737575E+02  0.11555614424E+03  0.82361256750E+01  0.12950431151E+03  0.41800000000E+01 0. -1.
        -11    1    4    4    0    0  0.50320591945E+02 -0.10877605518E+02  0.77298113999E+01  0.52059910294E+02  0.00000000000E+00 0.  1.
         11    1    4    4    0    0  0.45179676824E+02 -0.75086691491E+02  0.13214958255E+03  0.15856458181E+03  0.00000000000E+00 0. -1.
</event>
<event>
 8    1  0.6849590E-009  0.1577149E+03  0.7561462E-02  0.1191301E+00
         -2   -1    0    0    0  501 -0.00000000000E+00  0.00000000000E+00  0.32117483204E+03  0.32117483204E+03  0.00000000000E+00 0.  1.
          2   -1    0    0  501    0  0.00000000000E+00 -0.00000000000E+00 -0.99802376998E+02  0.99802376998E+02  0.00000000000E+00 0. -1.
         25    2    1    2    0    0  0.10930940192E+03  0.90616805865E+02  0.11882888406E+03  0.22344465071E+03  0.12508899788E+03 0.  0.
         23    2    1    2    0    0 -0.10930940192E+03 -0.90616805865E+02  0.10254357098E+03  0.19753255833E+03  0.91345370978E+02 0.  0.
          5    1    3    3  502    0  0.11733995653E+03  0.61936087058E+02  0.39338444705E+02  0.13845479374E+03  0.41800000000E+01 0.  1.
         -5    1    3    3    0  502 -0.80305546086E+01  0.28680718807E+02  0.79490439354E+02  0.84989856967E+02  0.41800000000E+01 0.  1.
        -11    1    4    4    0    0 -0.85990235658E+02 -0.95784379987E+02  0.46933199649E+02  0.13700982924E+03  0.00000000000E+00 0. -1.
         11    1    4    4    0    0 -0.23319166259E+02  0.51675741221E+01  0.55610371336E+02  0.60522729098E+02  0.00000000000E+00 0.  1.
</event>
<event>
 8    1  0.6849590E-009  0.1049260E+03  0.7561462E-02  0.1270265E+00
         -2   -1    0    0    0  501 -0.00000000000E+00  0.00000000000E+00  0.19806567429E+03  0.19806567429E+03  0.00000000000E+00 0. -1.
          2   -1    0    0  501    0  0.00000000000E+00 -0.00000000000E+00 -0.85093571741E+02  0.85093571741E+02  0.00000000000E+00 0.  1.
         25    2    1    2    0    0 -0.15010812972E+02 -0.66179898608E+02  0.90764877455E+02  0.16879151872E+03  0.12508880975E+03 0.  0.
         23    2    1    2    0    0  0.15010812972E+02  0.66179898608E+02  0.22207225096E+02  0.11436772732E+03  0.89340431607E+02 0.  0.
          5    1    3    3  502    0  0.34109425848E+02 -0.70862119609E+00 -0.12838628522E+02  0.36691386700E+02  0.41800000000E+01 0. -1.
         -5    1    3    3    0  502 -0.49120238819E+02 -0.65471277412E+02  0.10360350598E+03  0.13210013202E+03  0.41800000000E+01 0. -1.
        -11    1    4    4    0    0 -0.21044832900E+02  0.49518970118E+02 -0.19069374283E+02  0.57084625153E+02  0.00000000000E+00 0. -1.
         11    1    4    4    0    0  0.36055645872E+02  0.16660928489E+02  0.41276599379E+02  0.57283102165E+02  0.00000000000E+00 0.  1.
</event>
<event>
 8    1  0.6849590E-009  0.1333411E+03  0.7561462E-02  0.1222581E+00
         -2   -1    0    0    0  501 -0.00000000000E+00  0.00000000000E+00  0.32031629480E+02  0.32031629480E+02  0.00000000000E+00 0.  1.
          2   -1    0    0  501    0  0.00000000000E+00 -0.00000000000E+00 -0.61293827572E+03  0.61293827572E+03  0.00000000000E+00 0. -1.
         25    2    1    2    0    0  0.29168530711E+02  0.78441450009E+02 -0.37798832940E+03  0.40684976408E+03  0.12509072352E+03 0.  0.
         23    2    1    2    0    0 -0.29168530711E+02 -0.78441450009E+02 -0.20291831684E+03  0.23812014112E+03  0.92311938731E+02 0.  0.
          5    1    3    3  502    0  0.77932694615E+02  0.54791096034E+02 -0.26022772535E+03  0.27714889597E+03  0.41800000000E+01 0. -1.
         -5    1    3    3    0  502 -0.48764163904E+02  0.23650353976E+02 -0.11776060405E+03  0.12970086812E+03  0.41800000000E+01 0. -1.
        -11    1    4    4    0    0  0.78634476738E+01 -0.79531264783E+02 -0.17275694969E+03  0.19034710283E+03  0.00000000000E+00 0. -1.
         11    1    4    4    0    0 -0.37031978384E+02  0.10898147740E+01 -0.30161367154E+02  0.47773038294E+02  0.00000000000E+00 0.  1.
</event>
<event>
 8    1  0.6849590E-009  0.5114404E+02  0.7561462E-02  0.1439267E+00
          1   -1    0    0  501    0  0.00000000000E+00  0.00000000000E+00  0.24361671877E+03  0.24361671877E+03  0.00000000000E+00 0. -1.
         -1   -1    0    0    0  501 -0.00000000000E+00 -0.00000000000E+00 -0.56872878188E+02  0.56872878188E+02  0.00000000000E+00 0.  1.
         25    2    1    2    0    0 -0.77188828968E+01 -0.45939833293E+02  0.10985357259E+03  0.17286995846E+03  0.12508463412E+03 0.  0.
         23    2    1    2    0    0  0.77188828968E+01  0.45939833293E+02  0.76890267991E+02  0.12761963849E+03  0.90579298858E+02 0.  0.
          5    1    3    3  502    0 -0.33185714195E+01 -0.38297853064E+01 -0.27917139715E+02  0.28679596608E+02  0.41800000000E+01 0.  1.
         -5    1    3    3    0  502 -0.44003114773E+01 -0.42110047986E+02  0.13777071231E+03  0.14419036186E+03  0.41800000000E+01 0.  1.
        -11    1    4    4    0    0  0.17225304543E+02  0.28105923046E+02 -0.13037523315E+02  0.35448992102E+02  0.00000000000E+00 0.  1.
         11    1    4    4    0    0 -0.95064216463E+01  0.17833910247E+02  0.89927791306E+02  0.92170646392E+02  0.00000000000E+00 0. -1.
</event>
<event>
 8    1  0.6849590E-009  0.1367839E+03  0.7561462E-02  0.1217723E+00
         -1   -1    0    0    0  501 -0.00000000000E+00  0.00000000000E+00  0.78883030716E+02  0.78883030716E+02  0.00000000000E+00 0.  1.
          1   -1    0    0  501    0  0.00000000000E+00 -0.00000000000E+00 -0.27523849896E+03  0.27523849896E+03  0.00000000000E+00 0. -1.
         25    2    1    2    0    0 -0.88320817092E+02  0.34696695629E+02 -0.14231514958E+03  0.21191093886E+03  0.12509283268E+03 0.  0.
         23    2    1    2    0    0  0.88320817092E+02 -0.34696695629E+02 -0.54040318658E+02  0.14221059081E+03  0.91099224361E+02 0.  0.
          5    1    3    3  502    0 -0.59911373348E+02 -0.42102294927E+02 -0.82692953363E+02  0.11053313001E+03  0.41800000000E+01 0. -1.
         -5    1    3    3    0  502 -0.28409443744E+02  0.76798990557E+02 -0.59622196220E+02  0.10137780885E+03  0.41800000000E+01 0. -1.
        -11    1    4    4    0    0 -0.29804255967E+00 -0.29456061930E+02 -0.43889219801E+02  0.52858414927E+02  0.00000000000E+00 0. -1.
         11    1    4    4    0    0  0.88618859652E+02 -0.52406336991E+01 -0.10151098856E+02  0.89352175886E+02  0.00000000000E+00 0.  1.
</event>
<event>
 8    1  0.6849590E-009  0.1119642E+03  0.7561462E-02  0.1256975E+00
         -2   -1    0    0    0  501 -0.00000000000E+00  0.00000000000E+00  0.92478006761E+02  0.92478006761E+02  0.00000000000E+00 0. -1.
          2   -1    0    0  501    0  0.00000000000E+00 -0.00000000000E+00 -0.25730097698E+03  0.25730097698E+03  0.00000000000E+00 0.  1.
         25    2    1    2    0    0 -0.81532761595E+02  0.23840011811E+02 -0.12921597228E+02  0.15175605914E+03  0.12508795479E+03 0.  0.
         23    2    1    2    0    0  0.81532761595E+02 -0.23840011811E+02 -0.15190137299E+03  0.19802292460E+03  0.94462236759E+02 0.  0.
          5    1    3    3  502    0 -0.62438653184E+02 -0.51204624491E+01  0.49679550900E+02  0.80064565975E+02  0.41800000000E+01 0.  1.
         -5    1    3    3    0  502 -0.19094108410E+02  0.28960474260E+02 -0.62601148128E+02  0.71691493165E+02  0.41800000000E+01 0.  1.
        -11    1    4    4    0    0  0.60190802736E+02  0.30747955712E+02 -0.69956180523E+02  0.97274028948E+02  0.00000000000E+00 0. -1.
         11    1    4    4    0    0  0.21341958859E+02 -0.54587967522E+02 -0.81945192465E+02  0.10074889565E+03  0.00000000000E+00 0.  1.
</event>
<event>
 8    1  0.6849590E-009  0.1175825E+03  0.7561462E-02  0.1247139E+00
          2   -1    0    0  501    0  0.00000000000E+00  0.00000000000E+00  0.81028652817E+03  0.81028652817E+03  0.00000000000E+00 0. -1.
         -2   -1    0    0    0  501 -0.00000000000E+00 -0.00000000000E+00 -0.25623514779E+02  0.25623514779E+02  0.00000000000E+00 0.  1.
         25    2    1    2    0    0  0.56410028114E+02  0.39047768670E+02  0.61397401198E+03  0.63033205209E+03  0.12509032334E+03 0.  0.
         23    2    1    2    0    0 -0.56410028114E+02 -0.39047768670E+02  0.17068900140E+03  0.20557799085E+03  0.91764675194E+02 0.  0.
          5    1    3    3  502    0  0.80710139821E+01 -0.39772714495E+02  0.98509191704E+02  0.10662337143E+03  0.41800000000E+01 0.  1.
         -5    1    3    3    0  502  0.48339014132E+02  0.78820483165E+02  0.51546482028E+03  0.52370868066E+03  0.41800000000E+01 0.  1.
        -11    1    4    4    0    0 -0.33173272786E+02  0.19735882027E+02  0.23005196322E+02  0.44935622000E+02  0.00000000000E+00 0.  1.
         11    1    4    4    0    0 -0.23236755328E+02 -0.58783650697E+02  0.14768380508E+03  0.16064236885E+03  0.00000000000E+00 0. -1.
</event>
<event>
 8    1  0.6849590E-009  0.1236394E+03  0.7561462E-02  0.1237211E+00
         -3   -1    0    0    0  501 -0.00000000000E+00  0.00000000000E+00  0.41811515668E+02  0.41811515668E+02  0.00000000000E+00 0.  1.
          3   -1    0    0  501    0  0.00000000000E+00 -0.00000000000E+00 -0.55449277070E+03  0.55449277070E+03  0.00000000000E+00 0. -1.
         25    2    1    2    0    0  0.18205165635E+02 -0.10303759514E+03 -0.31234356891E+03  0.35235751015E+03  0.12509650618E+03 0.  0.
         23    2    1    2    0    0 -0.18205165635E+02  0.10303759514E+03 -0.20033768613E+03  0.24394677621E+03  0.91796879440E+02 0.  0.
          5    1    3    3  502    0 -0.29836090935E+01 -0.69803682548E+02 -0.47555458835E+02  0.84619442716E+02  0.41800000000E+01 0. -1.
         -5    1    3    3    0  502  0.21188774728E+02 -0.33233912589E+02 -0.26478811007E+03  0.26773806744E+03  0.41800000000E+01 0. -1.
        -11    1    4    4    0    0  0.35725210098E+02  0.54075199488E+02 -0.76378925881E+02  0.10017064518E+03  0.00000000000E+00 0.  1.
         11    1    4    4    0    0 -0.53930375733E+02  0.48962395650E+02 -0.12395876024E+03  0.14377613104E+03  0.00000000000E+00 0. -1.
</event>
<event>
 8    1  0.6849590E-009  0.9690417E+02  0.7561462E-02  0.1286944E+00
          1   -1    0    0  501    0  0.00000000000E+00  0.00000000000E+00  0.97152669523E+03  0.97152669523E+03  0.00000000000E+00 0. -1.
         -1   -1    0    0    0  501 -0.00000000000E+00 -0.00000000000E+00 -0.17031505582E+02  0.17031505582E+02  0.00000000000E+00 0.  1.
         25    2    1    2    0    0 -0.41535135657E+02 -0.47519772324E+02  0.66364674545E+03  0.67827460325E+03  0.12508452510E+03 0.  0.
         23    2    1    2    0    0  0.41535135657E+02  0.47519772324E+02  0.29084844420E+03  0.31028359756E+03  0.87748488100E+02 0.  0.
          5    1    3    3  502    0 -0.34864986560E+02 -0.67497570184E+02  0.64604413413E+03  0.65050901985E+03  0.41800000000E+01 0. -1.
         -5    1    3    3    0  502 -0.66701490978E+01  0.19977797861E+02  0.17602611322E+02  0.27765583403E+02  0.41800000000E+01 0. -1.
        -11    1    4    4    0    0  0.41637050769E+02 -0.65772397003E+01  0.60953874646E+02  0.74109911032E+02  0.00000000000E+00 0.  1.
         11    1    4    4    0    0 -0.10191511145E+00  0.54097012024E+02  0.22989456955E+03  0.23617368653E+03  0.00000000000E+00 0. -1.
</event>
<event>
 8    1  0.6849590E-009  0.8842422E+02  0.7561462E-02  0.1306713E+00
          2   -1    0    0  501    0  0.00000000000E+00  0.00000000000E+00  0.54725291987E+02  0.54725291987E+02  0.00000000000E+00 0. -1.
         -2   -1    0    0    0  501 -0.00000000000E+00 -0.00000000000E+00 -0.29609340339E+03  0.29609340339E+03  0.00000000000E+00 0.  1.
         25    2    1    2    0    0 -0.28078307321E+02  0.61304343302E+01 -0.22788478625E+03  0.26154789063E+03  0.12509935940E+03 0.  0.
         23    2    1    2    0    0  0.28078307321E+02 -0.61304343302E+01 -0.13483325155E+02  0.89270804749E+02  0.83435621627E+02 0.  0.
          5    1    3    3  502    0 -0.46997779006E+02  0.46362843848E+02 -0.65333181537E+02  0.92974198200E+02  0.41800000000E+01 0.  1.
         -5    1    3    3    0  502  0.18919471685E+02 -0.40232409518E+02 -0.16255160472E+03  0.16857369243E+03  0.41800000000E+01 0.  1.
        -11    1    4    4    0    0 -0.56313662672E+01 -0.26209213198E+02  0.23278178296E+02  0.35503643859E+02  0.00000000000E+00 0. -1.
         11    1    4    4    0    0  0.33709673588E+02  0.20078778868E+02 -0.36761503451E+02  0.53767160890E+02  0.00000000000E+00 0.  1.
</event>
<event>
 8    1  0.6849590E-009  0.1274102E+03  0.7561462E-02  0.1231350E+00
          1   -1    0    0  501    0  0.00000000000E+00  0.00000000000E+00  0.24309420921E+02  0.24309420921E+02  0.00000000000E+00 0. -1.
         -1   -1    0    0    0  501 -0.00000000000E+00 -0.00000000000E+00 -0.71814636301E+03  0.71814636301E+03  0.00000000000E+00 0.  1.
         25    2    1    2    0    0 -0.54795015994E+02 -0.51951033289E+02 -0.40979505274E+03  0.43506475261E+03  0.12509176663E+03 0.  0.
         23    2    1    2    0    0  0.54795015994E+02  0.51951033289E+02 -0.28404188935E+03  0.30739103132E+03  0.90044697748E+02 0.  0.
          5    1    3    3  502    0 -0.91806897986E+02 -0.40825362342E+02 -0.34638830195E+03  0.36069037256E+03  0.41800000000E+01 0. -1.
         -5    1    3    3    0  502  0.37011881992E+02 -0.11125670947E+02 -0.63406750788E+02  0.74374380052E+02  0.41800000000E+01 0. -1.
        -11    1    4    4    0    0 -0.21585457381E+02  0.27966067861E+02 -0.62014491673E+02  0.71371073268E+02  0.00000000000E+00 0. -1.
         11    1    4    4    0    0  0.76380473374E+02  0.23984965428E+02 -0.22202739767E+03  0.23601995805E+03  0.00000000000E+00 0.  1.
</event>
<event>
 8    1  0.6849590E-009  0.2891592E+03  0.7561462E-02  0.1090789E+00
         -2   -1    0    0    0  501 -0.00000000000E+00  0.00000000000E+00  0.61767247088E+03  0.61767247088E+03  0.00000000000E+00 0.  1.
          2   -1    0    0  501    0  0.00000000000E+00 -0.00000000000E+00 -0.14182018730E+03  0.14182018730E+03  0.00000000000E+00 0. -1.
         25    2    1    2    0    0  0.27451609101E+03  0.50115781153E+01  0.23385619321E+03  0.38173363062E+03  0.12509054922E+03 0.  0.
         23    2    1    2    0    0 -0.27451609101E+03 -0.50115781153E+01  0.24199609038E+03  0.37775902756E+03  0.93571229589E+02 0.  0.
          5    1    3    3  502    0  0.26079059041E+03  0.38181953171E+02  0.19019722960E+03  0.32505699829E+03  0.41800000000E+01 0. -1.
         -5    1    3    3    0  502  0.13725500602E+02 -0.33170375055E+02  0.43658963614E+02  0.56676632327E+02  0.41800000000E+01 0. -1.
        -11    1    4    4    0    0 -0.14210076674E+03  0.20951979372E+02  0.71862599741E+02  0.16061085452E+03  0.00000000000E+00 0. -1.
         11    1    4    4    0    0 -0.13241532427E+03 -0.25963557487E+02  0.17013349064E+03  0.21714817304E+03  0.00000000000E+00 0.  1.
</event>
<event>
 8    1  0.6849590E-009  0.1104845E+03  0.7561462E-02  0.1259675E+00
          1   -1    0    0  501    0  0.00000000000E+00  0.00000000000E+00  0.24190926847E+02  0.24190926847E+02  0.00000000000E+00 0. -1.
         -1   -1    0    0    0  501 -0.00000000000E+00 -0.00000000000E+00 -0.75645420732E+03  0.75645420732E+03  0.00000000000E+00 0.  1.
         25    2    1    2    0    0 -0.25545904405E+02 -0.38610556271E+02 -0.59329216715E+03  0.60810060902E+03  0.12508951514E+03 0.  0.
         23    2    1    2    0    0  0.25545904405E+02  0.38610556271E+02 -0.13897111332E+03  0.17254452515E+03  0.91188127152E+02 0.  0.
          5    1    3    3  502    0 -0.63837440990E+02 -0.48230739337E+02 -0.50469292641E+03  0.51101256878E+03  0.41800000000E+01 0. -1.
         -5    1    3    3    0  502  0.38291536585E+02  0.96201830667E+01 -0.88599240747E+02  0.97088040238E+02  0.41800000000E+01 0. -1.
        -11    1    4    4    0    0 -0.29700455668E+02 -0.58048318539E+01 -0.53863980821E+02  0.61783020075E+02  0.00000000000E+00 0.  1.
         11    1    4    4    0    0  0.55246360073E+02  0.44415388124E+02 -0.85107132500E+02  0.11076150507E+03  0.00000000000E+00 0. -1.
</event>
<event>
 8    1  0.6849590E-009  0.1044930E+03  0.7561462E-02  0.1271122E+00
         -2   -1    0    0    0  501 -0.00000000000E+00  0.00000000000E+00  0.10093976685E+02  0.10093976685E+02  0.00000000000E+00 0.  1.
          2   -1    0    0  501    0  0.00000000000E+00 -0.00000000000E+00 -0.18069432533E+04  0.18069432533E+04  0.00000000000E+00 0. -1.
         25    2    1    2    0    0  0.95413391024E+01 -0.35049182749E+02 -0.14794273882E+04  0.14851508291E+04  0.12509238868E+03 0.  0.
         23    2    1    2    0    0 -0.95413391024E+01  0.35049182749E+02 -0.31742188843E+03  0.33188640095E+03  0.89846789136E+02 0.  0.
          5    1    3    3  502    0  0.87057372401E+01 -0.77009050389E+02 -0.12054779228E+04  0.12079737905E+04  0.41800000000E+01 0. -1.
         -5    1    3    3    0  502  0.83560186230E+00  0.41959867640E+02 -0.27394946542E+03  0.27717703860E+03  0.41800000000E+01 0. -1.
        -11    1    4    4    0    0 -0.39989793002E+02 -0.34212600058E+01 -0.80652544159E+02  0.90087299014E+02  0.00000000000E+00 0.  1.
         11    1    4    4    0    0  0.30448453900E+02  0.38470442755E+02 -0.23676934427E+03  0.24179910193E+03  0.00000000000E+00 0. -1.
</event>
<event>
 8    1  0.6849590E-009  0.1026036E+03  0.7561462E-02  0.1274914E+00
          2   -1    0    0  501    0  0.00000000000E+00  0.00000000000E+00  0.92977358229E+02  0.92977358229E+02  0.00000000000E+00 0. -1.
         -2   -1    0    0    0  501 -0.00000000000E+00 -0.00000000000E+00 -0.19764989400E+03  0.19764989400E+03  0.00000000000E+00 0.  1.
         25    2    1    2    0    0  0.71493058252E+02  0.35414773416E+02 -0.40998560707E+02  0.15392557495E+03  0.12508691814E+03 0.  0.
         23    2    1    2    0    0 -0.71493058252E+02 -0.35414773416E+02 -0.63673975067E+02  0.13670167728E+03  0.90925848451E+02 0.  0.
          5    1    3    3  502    0  0.60193508145E+02  0.69778514757E+01  0.36247788185E+02  0.70734174076E+02  0.41800000000E+01 0.  1.
         -5    1    3    3    0  502  0.11299550107E+02  0.28436921940E+02 -0.77246348892E+02  0.83191400873E+02  0.41800000000E+01 0.  1.
        -11    1    4    4    0    0  0.13996018040E+02 -0.23382333798E+02 -0.37756320941E+02  0.46563524628E+02  0.00000000000E+00 0.  1.
         11    1    4    4    0    0 -0.85489076292E+02 -0.12032439618E+02 -0.25917654126E+02  0.90138152654E+02  0.00000000000E+00 0. -1.
</event>
<event>
 8    1  0.6849590E-009  0.1639852E+03  0.7561462E-02  0.1184270E+00
          2   -1    0    0  501    0  0.00000000000E+00  0.00000000000E+00  0.88715121902E+03  0.88715121902E+03  0.00000000000E+00 0. -1.
         -2   -1    0    0    0  501 -0.00000000000E+00 -0.00000000000E+00 -0.44112225454E+02  0.44112225454E+02  0.00000000000E+00 0.  1.
         25    2    1    2    0    0 -0.87507594990E+02  0.79299473451E+02  0.17641810972E+03  0.24640887469E+03  0.12509195985E+03 0.  0.
         23    2    1    2    0    0  0.87507594990E+02 -0.79299473451E+02  0.66662088384E+03  0.68485456978E+03  0.10342336924E+03 0.  0.
          5    1    3    3  502    0 -0.53045516101E+02  0.11215951738E+03  0.12381800439E+03  0.17533383794E+03  0.41800000000E+01 0. -1.
         -5    1    3    3    0  502 -0.34462078889E+02 -0.32860043924E+02  0.52600105333E+02  0.71075036751E+02  0.41800000000E+01 0. -1.
        -11    1    4    4    0    0 -0.20400709397E+02 -0.32581466420E+02  0.13379037364E+03  0.13920346611E+03  0.00000000000E+00 0.  1.
         11    1    4    4    0    0  0.10790830439E+03 -0.46718007031E+02  0.53283051020E+03  0.54565110367E+03  0.00000000000E+00 0. -1.
</event>
<event>
 8    1  0.6849590E-009  0.5878441E+02  0.7561462E-02  0.1403005E+00
          2   -1    0    0  501    0  0.00000000000E+00  0.00000000000E+00  0.38234811551E+03  0.38234811551E+03  0.00000000000E+00 0. -1.
         -2   -1    0    0    0  501 -0.00000000000E+00 -0.00000000000E+00 -0.33140197348E+02  0.33140197348E+02  0.00000000000E+00 0.  1.
         25    2    1    2    0    0 -0.36938546272E+01 -0.30322587831E+02  0.19375650918E+03  0.23264132960E+03  0.12508916617E+03 0.  0.
         23    2    1    2    0    0  0.36938546272E+01  0.30322587831E+02  0.15545140898E+03  0.18284698326E+03  0.91294988020E+02 0.  0.
          5    1    3    3  502    0  0.21192209395E+02 -0.20625974517E+02  0.20214247544E+03  0.20433696029E+03  0.41800000000E+01 0.  1.
         -5    1    3    3    0  502 -0.24886064023E+02 -0.96966133140E+01 -0.83859662542E+01  0.28304369315E+02  0.41800000000E+01 0.  1.
        -11    1    4    4    0    0 -0.24095728817E+02  0.18897287862E+02  0.70351413477E+01  0.31419816192E+02  0.00000000000E+00 0.  1.
         11    1    4    4    0    0  0.27789583444E+02  0.11425299969E+02  0.14841626763E+03  0.15142716707E+03  0.00000000000E+00 0. -1.
</event>
<event>
 8    1  0.6849590E-009  0.1095395E+03  0.7561462E-02  0.1261425E+00
          2   -1    0    0  501    0  0.00000000000E+00  0.00000000000E+00  0.30634341169E+03  0.30634341169E+03  0.00000000000E+00 0. -1.
         -2   -1    0    0    0  501 -0.00000000000E+00 -0.00000000000E+00 -0.10967893304E+03  0.10967893304E+03  0.00000000000E+00 0.  1.
         25    2    1    2    0    0 -0.55468817919E+02  0.46433983526E+02  0.25109725462E+03  0.28971775702E+03  0.12511451902E+03 0.  0.
         23    2    1    2    0    0  0.55468817919E+02 -0.46433983526E+02 -0.54432775974E+02  0.12630458771E+03  0.88073930243E+02 0.  0.
          5    1    3    3  502    0 -0.22566910143E+02 -0.32960819553E+02  0.23815509168E+02  0.46694024628E+02  0.41800000000E+01 0. -1.
         -5    1    3    3    0  502 -0.32901907776E+02  0.79394803079E+02  0.22728174545E+03  0.24302373239E+03  0.41800000000E+01 0. -1.
        -11    1    4    4    0    0  0.10205853971E+01 -0.37715327426E+02 -0.60006160006E+02  0.70881780142E+02  0.00000000000E+00 0.  1.
         11    1    4    4    0    0  0.54448232522E+02 -0.87186560995E+01  0.55733840317E+01  0.55422807566E+02  0.00000000000E+00 0. -1.
</event>
<event>
 8    1  0.6849590E-009  0.1248822E+03  0.7561462E-02  0.1235253E+00
          2   -1    0    0  501    0  0.00000000000E+00  0.00000000000E+00  0.26503270776E+03  0.26503270776E+03  0.00000000000E+00 0.  1.
         -2   -1    0    0    0  501 -0.00000000000E+00 -0.00000000000E+00 -0.76963197145E+02  0.76963197145E+02  0.00000000000E+00 0. -1.
         25    2    1    2    0    0 -0.75012707998E+01  0.87542518569E+02  0.67579364587E+02  0.16713677143E+03  0.12509103974E+03 0.  0.
         23    2    1    2    0    0  0.75012707998E+01 -0.87542518569E+02  0.12049014603E+03  0.17485913348E+03  0.91311990722E+02 0.  0.
          5    1    3    3  502    0  0.91800142030E+01  0.10669978483E+03  0.84371422010E+02  0.13640060849E+03  0.41800000000E+01 0. -1.
         -5    1    3    3    0  502 -0.16681285003E+02 -0.19157266260E+02 -0.16792057423E+02  0.30736162942E+02  0.41800000000E+01 0. -1.
        -11    1    4    4    0    0 -0.32792528016E+02 -0.58883761914E+02  0.10160964671E+03  0.12193099531E+03  0.00000000000E+00 0.  1.
         11    1    4    4    0    0  0.40293798816E+02 -0.28658756656E+02  0.18880499315E+02  0.52928138173E+02  0.00000000000E+00 0. -1.
</event>
<event>
 8    1  0.6849590E-009  0.1350761E+03  0.7561462E-02  0.1220112E+00
          2   -1    0    0  501    0  0.00000000000E+00  0.00000000000E+00  0.16839788905E+03  0.16839788905E+03  0.00000000000E+00 0. -1.
         -2   -1    0    0    0  501 -0.00000000000E+00 -0.00000000000E+00 -0.13950986089E+03  0.13950986089E+03  0.00000000000E+00 0.  1.
         25    2    1    2    0    0 -0.58529870925E+02 -0.86123458236E+02  0.44077513733E+02  0.16862414625E+03  0.12509308387E+03 0.  0.
         23    2    1    2    0    0  0.58529870925E+02  0.86123458236E+02 -0.15189485574E+02  0.13928360369E+03  0.91248046209E+02 0.  0.
          5    1    3    3  502    0 -0.48235218557E+02 -0.10413023598E+03 -0.52443878684E+01  0.11495528852E+03  0.41800000000E+01 0.  1.
         -5    1    3    3    0  502 -0.10294652368E+02  0.18006777746E+02  0.49321901601E+02  0.53668857727E+02  0.41800000000E+01 0.  1.
        -11    1    4    4    0    0  0.58461107709E+02  0.11558409551E+02 -0.23909658625E+02  0.64210355251E+02  0.00000000000E+00 0. -1.
         11    1    4    4    0    0  0.68763216122E-01  0.74565048686E+02  0.87201730503E+01  0.75073248444E+02  0.00000000000E+00 0.  1.
</event>
<event>
 8    1  0.6849590E-009  0.2134907E+03  0.7561462E-02  0.1138831E+00
         -1   -1    0    0    0  501 -0.00000000000E+00  0.00000000000E+00  0.11931148369E+03  0.11931148369E+03  0.00000000000E+00 0.  1.
          1   -1    0    0  501    0  0.00000000000E+00 -0.00000000000E+00 -0.73182312181E+03  0.73182312181E+03  0.00000000000E+00 0. -1.
         25    2    1    2    0    0 -0.10889574817E+02 -0.18913996286E+03 -0.59532803679E+03  0.63714608483E+03  0.12508858319E+03 0.  0.
         23    2    1    2    0    0  0.10889574817E+02  0.18913996286E+03 -0.17183601336E+02  0.21398852068E+03  0.97996440947E+02 0.  0.
          5    1    3    3  502    0  0.63197249570E+01 -0.19998144700E+03 -0.57157127052E+03  0.60559368206E+03  0.41800000000E+01 0. -1.
         -5    1    3    3    0  502 -0.17209299774E+02  0.10841484143E+02 -0.23756766260E+02  0.31552402766E+02  0.41800000000E+01 0. -1.
        -11    1    4    4    0    0  0.45782630584E+02  0.89710892504E+02 -0.35979299800E+02  0.10695140724E+03  0.00000000000E+00 0. -1.
         11    1    4    4    0    0 -0.34893055767E+02  0.99429070351E+02  0.18795698465E+02  0.10703711343E+03  0.00000000000E+00 0.  1.
</event>
<event>
 8    1  0.6849590E-009  0.1087364E+03  0.7561462E-02  0.1262928E+00
         -1   -1    0    0    0  501 -0.00000000000E+00  0.00000000000E+00  0.43952875138E+03  0.43952875138E+03  0.00000000000E+00 0.  1.
          1   -1    0    0  501    0  0.00000000000E+00 -0.00000000000E+00 -0.33706269330E+02  0.33706269330E+02  0.00000000000E+00 0. -1.
         25    2    1    2    0    0 -0.36443314910E+02  0.14651086729E+02  0.31039296821E+03  0.33694780436E+03  0.12508900273E+03 0.  0.
         23    2    1    2    0    0  0.36443314910E+02 -0.14651086729E+02  0.95429513839E+02  0.13628721635E+03  0.89020467788E+02 0.  0.
          5    1    3    3  502    0 -0.48700498623E+02 -0.45673175074E+02  0.12841937714E+03  0.14479912400E+03  0.41800000000E+01 0.  1.
         -5    1    3    3    0  502  0.12257183713E+02  0.60324261803E+02  0.18197359108E+03  0.19214868036E+03  0.41800000000E+01 0.  1.
        -11    1    4    4    0    0  0.10801949082E+02  0.33022935640E+02  0.66209218672E+02  0.74772033672E+02  0.00000000000E+00 0.  1.
         11    1    4    4    0    0  0.25641365828E+02 -0.47674022369E+02  0.29220295167E+02  0.61515182679E+02  0.00000000000E+00 0. -1.
</event>
<event>
 7    1  0.6849590E-009  0.8115720E+02  0.7561462E-02  0.1325799E+00
          1   -1    0    0  501    0  0.00000000000E+00  0.00000000000E+00  0.26797671950E+02  0.26797671950E+02  0.00000000000E+00 0. -1.
         -1   -1    0    0    0  501 -0.00000000000E+00 -0.00000000000E+00 -0.76150257695E+03  0.76150257695E+03  0.00000000000E+00 0.  1.
         23    2    1    2    0    0 -0.12540033684E+02  0.27691712152E+02 -0.91959473009E+02  0.13282782870E+03  0.90898867072E+02 0.  0.
          5    1    1    2  502    0 -0.14225230861E+02  0.16973899501E+02 -0.18814902671E+02  0.29358872932E+02  0.41800000000E+01 0.  1.
         -5    1    1    2    0  502  0.26765264545E+02 -0.44665611654E+02 -0.62393052933E+03  0.62611354727E+03  0.41800000000E+01 0.  1.
        -11    1    3    3    0    0 -0.44408727257E+02 -0.13392966805E+01 -0.19512423439E+02  0.48524874453E+02  0.00000000000E+00 0. -1.
         11    1    3    3    0    0  0.31868693573E+02  0.29031008833E+02 -0.72447049569E+02  0.84302954249E+02  0.00000000000E+00 0.  1.
</event>
<event>
 8    1  0.6849590E-009  0.9508297E+02  0.7561462E-02  0.1290989E+00
          2   -1    0    0  501    0  0.00000000000E+00  0.00000000000E+00  0.37229546362E+03  0.37229546362E+03  0.00000000000E+00 0. -1.
         -2   -1    0    0    0  501 -0.00000000000E+00 -0.00000000000E+00 -0.40216048138E+02  0.40216048138E+02  0.00000000000E+00 0.  1.
         25    2    1    2    0    0  0.13747728061E+01 -0.53434076481E+02  0.19118254993E+03  0.23463866269E+03  0.12508974419E+03 0.  0.
         23    2    1    2    0    0 -0.13747728061E+01  0.53434076481E+02  0.14089686555E+03  0.17787284907E+03  0.94497265484E+02 0.  0.
          5    1    3    3  502    0 -0.55471922741E+02  0.65224177801E+00  0.60824367281E+02  0.82429580170E+02  0.41800000000E+01 0. -1.
         -5    1    3    3    0  502  0.56846695547E+02 -0.54086318259E+02  0.13035818265E+03  0.15220908252E+03  0.41800000000E+01 0. -1.
        -11    1    4    4    0    0  0.75925481768E+01  0.26657803079E+02  0.14648749945E+03  0.14908679602E+03  0.00000000000E+00 0. -1.
         11    1    4    4    0    0 -0.89673209829E+01  0.26776273402E+02 -0.55906338951E+01  0.28786053051E+02  0.00000000000E+00 0.  1.
</event>
<event>
 8    1  0.6849590E-009  0.7554122E+02  0.7561462E-02  0.1342203E+00
         -1   -1    0    0    0  501 -0.00000000000E+00  0.00000000000E+00  0.19925885310E+03  0.19925885310E+03  0.00000000000E+00 0.  1.
          1   -1    0    0  501    0  0.00000000000E+00 -0.00000000000E+00 -0.71563174038E+02  0.71563174038E+02  0.00000000000E+00 0. -1.
         25    2    1    2    0    0 -0.47002116772E+02 -0.71117084404E+01  0.52792175805E+02  0.14385133694E+03  0.12508564240E+03 0.  0.
         23    2    1    2    0    0  0.47002116772E+02  0.71117084404E+01  0.74903503259E+02  0.12697069020E+03  0.90836369321E+02 0.  0.
          5    1    3    3  502    0 -0.24875776968E+01  0.35405514597E+02  0.71029652629E+02  0.79513662092E+02  0.41800000000E+01 0.  1.
         -5    1    3    3    0  502 -0.44514539075E+02 -0.42517223038E+02 -0.18237476824E+02  0.64337674848E+02  0.41800000000E+01 0.  1.
        -11    1    4    4    0    0  0.42519027956E+02 -0.29592877056E+01  0.94958705987E+02  0.10408545030E+03  0.00000000000E+00 0.  1.
         11    1    4    4    0    0  0.44830888159E+01  0.10070996146E+02 -0.20055202728E+02  0.22885239897E+02  0.00000000000E+00 0. -1.
</event>
<event>
 8    1  0.6849590E-009  0.8067906E+02  0.7561462E-02  0.1327135E+00
          1   -1    0    0  501    0  0.00000000000E+00  0.00000000000E+00  0.10607458168E+03  0.10607458168E+03  0.00000000000E+00 0. -1.
         -1   -1    0    0    0  501 -0.00000000000E+00 -0.00000000000E+00 -0.13664885600E+03  0.13664885600E+03  0.00000000000E+00 0.  1.
         25    2    1    2    0    0 -0.47507260424E+02  0.91746759117E+01 -0.26606841623E+02  0.13673495413E+03  0.12508960464E+03 0.  0.
         23    2    1    2    0    0  0.47507260424E+02 -0.91746759117E+01 -0.39674326895E+01  0.10598848355E+03  0.94216260024E+02 0.  0.
          5    1    3    3  502    0 -0.53553473294E+02  0.59684928943E+00  0.41384182137E+02  0.67811899119E+02  0.41800000000E+01 0. -1.
         -5    1    3    3    0  502  0.60462128706E+01  0.85778266222E+01 -0.67991023760E+02  0.68923055008E+02  0.41800000000E+01 0. -1.
        -11    1    4    4    0    0  0.59909069073E+02 -0.33788417441E+02 -0.22965925628E+02  0.72513360495E+02  0.00000000000E+00 0.  1.
         11    1    4    4    0    0 -0.12401808649E+02  0.24613741530E+02  0.18998492939E+02  0.33475123059E+02  0.00000000000E+00 0. -1.
</event>
<event>
 8    1  0.6849590E-009  0.9427852E+02  0.7561462E-02  0.1292809E+00
          1   -1    0    0  501    0  0.00000000000E+00  0.00000000000E+00  0.12348696131E+03  0.12348696131E+03  0.00000000000E+00 0. -1.
         -1   -1    0    0    0  501 -0.00000000000E+00 -0.00000000000E+00 -0.21384981295E+03  0.21384981295E+03  0.00000000000E+00 0.  1.
         25    2    1    2    0    0  0.10846824535E+02 -0.15123950160E+02  0.75450404660E+02  0.14725982506E+03  0.12508519114E+03 0.  0.
         23    2    1    2    0    0 -0.10846824535E+02  0.15123950160E+02 -0.16581325630E+03  0.19007694920E+03  0.91042974379E+02 0.  0.
          5    1    3    3  502    0 -0.41393396966E+02 -0.19420030572E+02  0.82291901127E+02  0.94233647340E+02  0.41800000000E+01 0. -1.
         -5    1    3    3    0  502  0.52240221502E+02  0.42960804119E+01 -0.68414964676E+01  0.53026177718E+02  0.41800000000E+01 0. -1.
        -11    1    4    4    0    0 -0.28730637777E+02 -0.29990109566E+02 -0.53504950948E+02  0.67732089845E+02  0.00000000000E+00 0.  1.
         11    1    4    4    0    0  0.17883813242E+02  0.45114059726E+02 -0.11230830535E+03  0.12234485936E+03  0.00000000000E+00 0. -1.
</event>
<event>
 8    1  0.6849590E-009  0.1083624E+03  0.7561462E-02  0.1263633E+00
         -2   -1    0    0    0  501 -0.00000000000E+00  0.00000000000E+00  0.14336952677E+03  0.14336952677E+03  0.00000000000E+00 0.  1.
          2   -1    0    0  501    0  0.00000000000E+00 -0.00000000000E+00 -0.14416904394E+03  0.14416904394E+03  0.00000000000E+00 0. -1.
         25    2    1    2    0    0  0.65865880405E+02 -0.58325044523E+02  0.92177443464E+01  0.15320796520E+03  0.12509032244E+03 0.  0.
         23    2    1    2    0    0 -0.65865880405E+02  0.58325044523E+02 -0.10017261512E+02  0.13433060552E+03  0.10101604343E+03 0.  0.
          5    1    3    3  502    0  0.66586839881E+02 -0.71902189220E+02  0.49942720227E+02  0.11007034007E+03  0.41800000000E+01 0.  1.
         -5    1    3    3    0  502 -0.72095947586E+00  0.13577144698E+02 -0.40724975881E+02  0.43137625123E+02  0.41800000000E+01 0.  1.
        -11    1    4    4    0    0  0.10103759685E+02  0.33730602374E+01 -0.35585899928E+02  0.37145925333E+02  0.00000000000E+00 0. -1.
         11    1    4    4    0    0 -0.75969640090E+02  0.54951984285E+02  0.25568638416E+02  0.97184680186E+02  0.00000000000E+00 0.  1.
</event>
<event>
 8    1  0.6849590E-009  0.1815023E+03  0.7561462E-02  0.1166357E+00
         -1   -1    0    0    0  501 -0.00000000000E+00  0.00000000000E+00  0.28630280296E+03  0.28630280296E+03  0.00000000000E+00 0.  1.
          1   -1    0    0  501    0  0.00000000000E+00 -0.00000000000E+00 -0.11803796299E+03  0.11803796299E+03  0.00000000000E+00 0. -1.
         25    2    1    2    0    0 -0.11363038912E+03 -0.89144100036E+02  0.10179800441E+03  0.21648789555E+03  0.12508253002E+03 0.  0.
         23    2    1    2    0    0  0.11363038912E+03  0.89144100036E+02  0.66466835552E+02  0.18785287040E+03  0.10006160495E+03 0.  0.
          5    1    3    3  502    0 -0.44905961834E+02 -0.10848878447E+03  0.47651877867E+02  0.12678539201E+03  0.41800000000E+01 0.  1.
         -5    1    3    3    0  502 -0.68724427285E+02  0.19344684432E+02  0.54146126547E+02  0.89702503541E+02  0.41800000000E+01 0.  1.
        -11    1    4    4    0    0 -0.17460519667E+02  0.16983711077E+02  0.18914777906E+02  0.30839666215E+02  0.00000000000E+00 0.  1.
         11    1    4    4    0    0  0.13109090879E+03  0.72160388959E+02  0.47552057645E+02  0.15701320418E+03  0.00000000000E+00 0. -1.
</event>
<event>
 8    1  0.6849590E-009  0.1417255E+03  0.7561462E-02  0.1211026E+00
         -4   -1    0    0    0  501 -0.00000000000E+00  0.00000000000E+00  0.51077251106E+02  0.51077251106E+02  0.00000000000E+00 0.  1.
          4   -1    0    0  501    0  0.00000000000E+00 -0.00000000000E+00 -0.50816813213E+03  0.50816813213E+03  0.00000000000E+00 0. -1.
         25    2    1    2    0    0 -0.11418249620E+03 -0.36507826160E+01 -0.18454910706E+03  0.25051526596E+03  0.12509418415E+03 0.  0.
         23    2    1    2    0    0  0.11418249620E+03  0.36507826160E+01 -0.27254177397E+03  0.30873011729E+03  0.89354888558E+02 0.  0.
          5    1    3    3  502    0 -0.71018561127E+01  0.33340368188E+02 -0.10899649626E+03  0.11427915431E+03  0.41800000000E+01 0.  1.
         -5    1    3    3    0  502 -0.10708064009E+03 -0.36991150804E+02 -0.75552610796E+02  0.13623611165E+03  0.41800000000E+01 0.  1.
        -11    1    4    4    0    0  0.11788563485E+03  0.19479497522E+02 -0.18885141125E+03  0.22347556748E+03  0.00000000000E+00 0.  1.
         11    1    4    4    0    0 -0.37031386488E+01 -0.15828714906E+02 -0.83690362717E+02  0.85254549809E+02  0.00000000000E+00 0. -1.
</event>
<event>
 8    1  0.6849590E-009  0.1276567E+03  0.7561462E-02  0.1230975E+00
         -1   -1    0    0    0  501 -0.00000000000E+00  0.00000000000E+00  0.37999004306E+02  0.37999004306E+02  0.00000000000E+00 0.  1.
          1   -1    0    0  501    0  0.00000000000E+00 -0.00000000000E+00 -0.66384908340E+03  0.66384908340E+03  0.00000000000E+00 0. -1.
         25    2    1    2    0    0 -0.28538740936E+02  0.61616154520E+02 -0.53742041484E+03  0.55594872288E+03  0.12508904811E+03 0.  0.
         23    2    1    2    0    0  0.28538740936E+02 -0.61616154520E+02 -0.88429664260E+02  0.14589936483E+03  0.94105307521E+02 0.  0.
          5    1    3    3  502    0 -0.57639180669E+02 -0.14107521259E+02 -0.26937497787E+03  0.27586527220E+03  0.41800000000E+01 0. -1.
         -5    1    3    3    0  502  0.29100439734E+02  0.75723675779E+02 -0.26804543697E+03  0.28008345068E+03  0.41800000000E+01 0. -1.
        -11    1    4    4    0    0  0.34636855076E+02  0.14993921947E+02 -0.18671901912E+02  0.42109017395E+02  0.00000000000E+00 0.  1.
         11    1    4    4    0    0 -0.60981141408E+01 -0.76610076467E+02 -0.69757762348E+02  0.10379034743E+03  0.00000000000E+00 0. -1.
</event>
<event>
 8    1  0.6849590E-009  0.9441332E+02  0.7561462E-02  0.1292503E+00
          2   -1    0    0  501    0  0.00000000000E+00  0.00000000000E+00  0.20628978015E+03  0.20628978015E+03  0.00000000000E+00 0. -1.
         -2   -1    0    0    0  501 -0.00000000000E+00 -0.00000000000E+00 -0.60562682162E+02  0.60562682162E+02  0.00000000000E+00 0.  1.
         25    2    1    2    0    0  0.19791832334E+02  0.10047906512E+02  0.79814866263E+02  0.15003580005E+03  0.12509057265E+03 0.  0.
         23    2    1    2    0    0 -0.19791832334E+02 -0.10047906512E+02  0.65912231729E+02  0.11681666227E+03  0.93856450176E+02 0.  0.
          5    1    3    3  502    0 -0.32635399414E+02 -0.23029279699E+02 -0.94687674274E+01  0.41261931305E+02  0.41800000000E+01 0.  1.
         -5    1    3    3    0  502  0.52427231748E+02  0.33077186211E+02  0.89283633691E+02  0.10877386874E+03  0.41800000000E+01 0.  1.
        -11    1    4    4    0    0  0.33023406701E+02 -0.17248610814E+01  0.51907376675E+02  0.61545887670E+02  0.00000000000E+00 0. -1.
         11    1    4    4    0    0 -0.52815239035E+02 -0.83230454302E+01  0.14004855054E+02  0.55270774598E+02  0.00000000000E+00 0.  1.
</event>
<event>
 7    1  0.6849590E-009  0.1178399E+03  0.7561462E-02  0.1246704E+00
          2   -1    0    0  501    0  0.00000000000E+00  0.00000000000E+00  0.62611217235E+03  0.62611217235E+03  0.00000000000E+00 0. -1.
         -2   -1    0    0    0  501 -0.00000000000E+00 -0.00000000000E+00 -0.24740669788E+02  0.24740669788E+02  0.00000000000E+00 0.  1.
         23    2    1    2    0    0  0.46096484420E+02  0.33334151621E+02  0.33523368351E+03  0.35143597496E+03  0.88823253699E+02 0.  0.
          5    1    1    2  502    0  0.18621058435E+02 -0.58176073919E+02  0.79964574627E+02  0.10071248676E+03  0.41800000000E+01 0.  1.
         -5    1    1    2    0  502 -0.64717542855E+02  0.24841922298E+02  0.18617324443E+03  0.19870438042E+03  0.41800000000E+01 0.  1.
        -11    1    3    3    0    0 -0.26358162315E+02  0.14755113201E+02  0.11212447546E+03  0.11612219462E+03  0.00000000000E+00 0. -1.
         11    1    3    3    0    0  0.72454646735E+02  0.18579038420E+02  0.22310920805E+03  0.23531378034E+03  0.00000000000E+00 0.  1.
</event>
<event>
 8    1  0.6849590E-009  0.1259294E+03  0.7561462E-02  0.1233624E+00
          1   -1    0    0  501    0  0.00000000000E+00  0.00000000000E+00  0.18035477570E+03  0.18035477570E+03  0.00000000000E+00 0. -1.
         -1   -1    0    0    0  501 -0.00000000000E+00 -0.00000000000E+00 -0.12246376552E+03  0.12246376552E+03  0.00000000000E+00 0.  1.
         25    2    1    2    0    0 -0.91021645474E+02  0.74706086529E+01 -0.20361112149E+02  0.15621356685E+03  0.12508938261E+03 0.  0.
         23    2    1    2    0    0  0.91021645474E+02 -0.74706086529E+01  0.78252122332E+02  0.14660497437E+03  0.83838379761E+02 0.  0.
          5    1    3    3  502    0 -0.10128639070E+03 -0.20460308958E+02 -0.49236273882E+02  0.11453925200E+03  0.41800000000E+01 0. -1.
         -5    1    3    3    0  502  0.10264745224E+02  0.27930917611E+02  0.28875161732E+02  0.41674314849E+02  0.41800000000E+01 0. -1.
        -11    1    4    4    0    0  0.86851238728E+02 -0.32713095945E+02  0.77659301467E+02  0.12101343487E+03  0.00000000000E+00 0. -1.
         11    1    4    4    0    0  0.41704067454E+01  0.25242487293E+02  0.59282086550E+00  0.25591539495E+02  0.00000000000E+00 0.  1.
</event>
<event>
 8    1  0.6849590E-009  0.9543708E+02  0.7561462E-02  0.1290195E+00
          2   -1    0    0  501    0  0.00000000000E+00  0.00000000000E+00  0.11973316171E+03  0.11973316171E+03  0.00000000000E+00 0. -1.
         -2   -1    0    0    0  501 -0.00000000000E+00 -0.00000000000E+00 -0.11775271727E+03  0.11775271727E+03  0.00000000000E+00 0.  1.
         25    2    1    2    0    0  0.56417271356E+01  0.38134766265E+02  0.30639740073E+02  0.13443297650E+03  0.12508933614E+03 0.  0.
         23    2    1    2    0    0 -0.56417271356E+01 -0.38134766265E+02 -0.28659295631E+02  0.10305290248E+03  0.91172671351E+02 0.  0.
          5    1    3    3  502    0 -0.32727178575E+02 -0.22487937254E+02 -0.21778325031E+02  0.45481242074E+02  0.41800000000E+01 0. -1.
         -5    1    3    3    0  502  0.38368905711E+02  0.60622703520E+02  0.52418065104E+02  0.88951734422E+02  0.41800000000E+01 0. -1.
        -11    1    4    4    0    0 -0.57036563168E+01 -0.58468509683E+02  0.97916312067E+01  0.59556480433E+02  0.00000000000E+00 0. -1.
         11    1    4    4    0    0  0.61929181114E-01  0.20333743418E+02 -0.38450926837E+02  0.43496422051E+02  0.00000000000E+00 0.  1.
</event>
<event>
 8    1  0.6849590E-009  0.2106186E+03  0.7561462E-02  0.1141077E+00
         -1   -1    0    0    0  501 -0.00000000000E+00  0.00000000000E+00  0.13889123729E+03  0.13889123729E+03  0.00000000000E+00 0.  1.
          1   -1    0    0  501    0  0.00000000000E+00 -0.00000000000E+00 -0.36754849707E+03  0.36754849707E+03  0.00000000000E+00 0. -1.
         25    2    1    2    0    0  0.69994889173E+02 -0.18500714760E+03 -0.11013256515E+03  0.25865798611E+03  0.12509133742E+03 0.  0.
         23    2    1    2    0    0 -0.69994889173E+02  0.18500714760E+03 -0.11852469462E+03  0.24778174825E+03  0.90668419855E+02 0.  0.
          5    1    3    3  502    0 -0.13081861175E+02 -0.10950158807E+03 -0.94391496404E+02  0.14522038382E+03  0.41800000000E+01 0. -1.
         -5    1    3    3    0  502  0.83076750348E+02 -0.75505559526E+02 -0.15741068745E+02  0.11343760229E+03  0.41800000000E+01 0. -1.
        -11    1    4    4    0    0 -0.56954649186E+02  0.12868216231E+03 -0.12674379557E+03  0.18938564010E+03  0.00000000000E+00 0. -1.
         11    1    4    4    0    0 -0.13040239987E+02  0.56324985288E+02  0.82191009515E+01  0.58396108150E+02  0.00000000000E+00 0.  1.
</event>
<event>
 8    1  0.6849590E-009  0.9934443E+02  0.7561462E-02  0.1281681E+00
          2   -1    0    0  501    0  0.00000000000E+00  0.00000000000E+00  0.91130584323E+02  0.91130584323E+02  0.00000000000E+00 0. -1.
         -2   -1    0    0    0  501 -0.00000000000E+00 -0.00000000000E+00 -0.13899882371E+03  0.13899882371E+03  0.00000000000E+00 0.  1.
         25    2    1    2    0    0 -0.28794684113E+01 -0.22958566904E+02 -0.48913283341E+02  0.13629134236E+03  0.12508970214E+03 0.  0.
         23    2    1    2    0    0  0.28794684113E+01  0.22958566904E+02  0.10450439526E+01  0.93838065675E+02  0.90934610134E+02 0.  0.
          5    1    3    3  502    0 -0.48384997303E+02  0.24659036938E+02 -0.44166066889E+02  0.70123390756E+02  0.41800000000E+01 0.  1.
         -5    1    3    3    0  502  0.45505528892E+02 -0.47617603842E+02 -0.47472164524E+01  0.66167951603E+02  0.41800000000E+01 0.  1.
        -11    1    4    4    0    0  0.15115841314E+02 -0.24733981487E+02 -0.24873005916E+02  0.38195875722E+02  0.00000000000E+00 0.  1.
         11    1    4    4    0    0 -0.12236372903E+02  0.47692548391E+02  0.25918049869E+02  0.55642189954E+02  0.00000000000E+00 0. -1.
</event>
<event>
 8    1  0.6849590E-009  0.1521752E+03  0.7561462E-02  0.1197825E+00
          1   -1    0    0  501    0  0.00000000000E+00  0.00000000000E+00  0.33235169130E+03  0.33235169130E+03  0.00000000000E+00 0. -1.
         -1   -1    0    0    0  501 -0.00000000000E+00 -0.00000000000E+00 -0.10295180752E+03  0.10295180752E+03  0.00000000000E+00 0.  1.
         25    2    1    2    0    0 -0.14909116031E+03 -0.12421080603E+02  0.12123022324E+03  0.22962237562E+03  0.12508881258E+03 0.  0.
         23    2    1    2    0    0  0.14909116031E+03  0.12421080603E+02  0.10816966054E+03  0.20568112320E+03  0.90672992967E+02 0.  0.
          5    1    3    3  502    0 -0.57325844902E+02 -0.23627869681E+02  0.12217945101E+03  0.13707596203E+03  0.41800000000E+01 0. -1.
         -5    1    3    3    0  502 -0.91765315409E+02  0.11206789078E+02 -0.94922777006E+00  0.92546413582E+02  0.41800000000E+01 0. -1.
        -11    1    4    4    0    0  0.25943509389E+02  0.60443803596E+00 -0.15930652676E+02  0.30450233488E+02  0.00000000000E+00 0.  1.
         11    1    4    4    0    0  0.12314765092E+03  0.11816642567E+02  0.12410031322E+03  0.17523088971E+03  0.00000000000E+00 0. -1.
</event>
<event>
 8    1  0.6849590E-009  0.2186167E+03  0.7561462E-02  0.1134919E+00
          2   -1    0    0  501    0  0.00000000000E+00  0.00000000000E+00  0.80614513151E+03  0.80614513151E+03  0.00000000000E+00 0. -1.
         -2   -1    0    0    0  501 -0.00000000000E+00 -0.00000000000E+00 -0.75722047918E+02  0.75722047918E+02  0.00000000000E+00 0.  1.
         25    2    1    2    0    0  0.18365921775E+03  0.11497897394E+03  0.29363339536E+03  0.38577046209E+03  0.12508959125E+03 0.  0.
         23    2    1    2    0    0 -0.18365921775E+03 -0.11497897394E+03  0.43678968824E+03  0.49609671734E+03  0.91519661798E+02 0.  0.
          5    1    3    3  502    0  0.76353225927E+02  0.55332703639E+02  0.37238592870E+02  0.10146777025E+03  0.41800000000E+01 0.  1.
         -5    1    3    3    0  502  0.10730599182E+03  0.59646270302E+02  0.25639480249E+03  0.28430269183E+03  0.41800000000E+01 0.  1.
        -11    1    4    4    0    0 -0.71408719172E+02 -0.67040610708E+02  0.28474501893E+03  0.30112019936E+03  0.00000000000E+00 0.  1.
         11    1    4    4    0    0 -0.11225049857E+03 -0.47938363233E+02  0.15204466931E+03  0.19497651799E+03  0.00000000000E+00 0. -1.
</event>
<event>
 8    1  0.6849590E-009  0.1933332E+03  0.7561462E-02  0.1155489E+00
         -2   -1    0    0    0  501 -0.00000000000E+00  0.00000000000E+00  0.77059338443E+02  0.77059338443E+02  0.00000000000E+00 0.  1.
          2   -1    0    0  501    0  0.00000000000E+00 -0.00000000000E+00 -0.48829819699E+03  0.48829819699E+03  0.00000000000E+00 0. -1.
         25    2    1    2    0    0  0.14747325975E+03 -0.60425002653E+02 -0.21664495865E+03  0.29661528364E+03  0.12508415206E+03 0.  0.
         23    2    1    2    0    0 -0.14747325975E+03  0.60425002653E+02 -0.19459389990E+03  0.26874225179E+03  0.94636508451E+02 0.  0.
          5    1    3    3  502    0  0.12836472347E+03  0.96198193453E+01 -0.15283520578E+03  0.19986524381E+03  0.41800000000E+01 0.  1.
         -5    1    3    3    0  502  0.19108536274E+02 -0.70044821998E+02 -0.63809752871E+02  0.96750039839E+02  0.41800000000E+01 0.  1.
        -11    1    4    4    0    0 -0.10974083522E+02 -0.22782797823E+02 -0.31062233597E+02  0.40054322386E+02  0.00000000000E+00 0. -1.
         11    1    4    4    0    0 -0.13649917623E+03  0.83207800476E+02 -0.16353166630E+03  0.22868792940E+03  0.00000000000E+00 0.  1.
</event>
<event>
 8    1  0.6849590E-009  0.2821501E+03  0.7561462E-02  0.1094520E+00
          2   -1    0    0  501    0  0.00000000000E+00  0.00000000000E+00  0.43596277871E+03  0.43596277871E+03  0.00000000000E+00 0. -1.
         -2   -1    0    0    0  501 -0.00000000000E+00 -0.00000000000E+00 -0.20262842552E+03  0.20262842552E+03  0.00000000000E+00 0.  1.
         25    2    1    2    0    0 -0.23687985801E+03 -0.11817744904E+03  0.20401621583E+03  0.35686040187E+03  0.12509497796E+03 0.  0.
         23    2    1    2    0    0  0.23687985801E+03  0.11817744904E+03  0.29318137360E+02  0.28173080236E+03  0.91840705719E+02 0.  0.
          5    1    3    3  502    0 -0.62180465219E+02 -0.87303569145E+02  0.11861903626E+03  0.15992583157E+03  0.41800000000E+01 0.  1.
         -5    1    3    3    0  502 -0.17469939279E+03 -0.30873879895E+02  0.85397179571E+02  0.19693457030E+03  0.41800000000E+01 0.  1.
        -11    1    4    4    0    0  0.10283462040E+03  0.10151911737E+03  0.24525730337E+02  0.14656944359E+03  0.00000000000E+00 0.  1.
         11    1    4    4    0    0  0.13404523761E+03  0.16658331667E+02  0.47924070236E+01  0.13516135877E+03  0.00000000000E+00 0. -1.
</event>
<event>
 8    1  0.6849590E-009  0.1012400E+03  0.7561462E-02  0.1277710E+00
         -1   -1    0    0    0  501 -0.00000000000E+00  0.00000000000E+00  0.80319044152E+02  0.80319044152E+02  0.00000000000E+00 0.  1.
          1   -1    0    0  501    0  0.00000000000E+00 -0.00000000000E+00 -0.21019996849E+03  0.21019996849E+03  0.00000000000E+00 0. -1.
         25    2    1    2    0    0  0.36192916796E+02 -0.42061597488E+02 -0.11909946189E+03  0.18141484211E+03  0.12509019908E+03 0.  0.
         23    2    1    2    0    0 -0.36192916796E+02  0.42061597488E+02 -0.10781462441E+02  0.10910417053E+03  0.93318673825E+02 0.  0.
          5    1    3    3  502    0 -0.24111112455E+02  0.93677027414E+01  0.11480544712E+02  0.28607252670E+02  0.41800000000E+01 0. -1.
         -5    1    3    3    0  502  0.60304029251E+02 -0.51429300229E+02 -0.13058000661E+03  0.15280758944E+03  0.41800000000E+01 0. -1.
        -11    1    4    4    0    0 -0.55036730639E+02  0.51904729699E+02 -0.29085850225E+02  0.81050165749E+02  0.00000000000E+00 0. -1.
         11    1    4    4    0    0  0.18843813843E+02 -0.98431322109E+01  0.18304387784E+02  0.28054004777E+02  0.00000000000E+00 0.  1.
</event>
<event>
 8    1  0.6849590E-009  0.1387019E+03  0.7561462E-02  0.1215086E+00
         -1   -1    0    0    0  501 -0.00000000000E+00  0.00000000000E+00  0.21303580540E+03  0.21303580540E+03  0.00000000000E+00 0.  1.
          1   -1    0    0  501    0  0.00000000000E+00 -0.00000000000E+00 -0.13546308950E+03  0.13546308950E+03  0.00000000000E+00 0. -1.
         25    2    1    2    0    0 -0.66573744618E+02 -0.10500776732E+03  0.82469702312E+02  0.19469789569E+03  0.12508926459E+03 0.  0.
         23    2    1    2    0    0  0.66573744618E+02  0.10500776732E+03 -0.48969864116E+01  0.15380099921E+03  0.90399514454E+02 0.  0.
          5    1    3    3  502    0 -0.67576259349E+02 -0.92924528998E+02  0.38492812186E+01  0.11503829051E+03  0.41800000000E+01 0. -1.
         -5    1    3    3    0  502  0.10025147307E+01 -0.12083238321E+02  0.78620421093E+02  0.79659605177E+02  0.41800000000E+01 0. -1.
        -11    1    4    4    0    0 -0.19928647944E+02  0.16870363603E+02 -0.14619036704E+02  0.29924511878E+02  0.00000000000E+00 0. -1.
         11    1    4    4    0    0  0.86502392562E+02  0.88137403717E+02  0.97220502927E+01  0.12387648734E+03  0.00000000000E+00 0.  1.
</event>
<event>
 8    1  0.6849590E-009  0.1449720E+03  0.7561462E-02  0.1206791E+00
          2   -1    0    0  501    0  0.00000000000E+00  0.00000000000E+00  0.29016496713E+03  0.29016496713E+03  0.00000000000E+00 0. -1.
         -2   -1    0    0    0  501 -0.00000000000E+00 -0.00000000000E+00 -0.11083494670E+03  0.11083494670E+03  0.00000000000E+00 0.  1.
         25    2    1    2    0    0 -0.12261962099E+00 -0.12622409774E+03  0.16857878975E+03  0.24495214686E+03  0.12510079140E+03 0.  0.
         23    2    1    2    0    0  0.12261962099E+00  0.12622409774E+03  0.10751230684E+02  0.15604776697E+03  0.91119584775E+02 0.  0.
          5    1    3    3  502    0 -0.22987432608E+02 -0.56506192636E+02  0.15960354247E+03  0.17091557867E+03  0.41800000000E+01 0.  1.
         -5    1    3    3    0  502  0.22864812987E+02 -0.69717905103E+02  0.89752472837E+01  0.74036568186E+02  0.41800000000E+01 0.  1.
        -11    1    4    4    0    0  0.38063778178E+02  0.10532300975E+03  0.12563235665E+02  0.11269260172E+03  0.00000000000E+00 0.  1.
         11    1    4    4    0    0 -0.37941158557E+02  0.20901087988E+02 -0.18120049805E+01  0.43355165249E+02  0.00000000000E+00 0. -1.
</event>
<event>
 8    1  0.6849590E-009  0.1387771E+03  0.7561462E-02  0.1214984E+00
          2   -1    0    0  501    0  0.00000000000E+00  0.00000000000E+00  0.11322091334E+03  0.11322091334E+03  0.00000000000E+00 0.  1.
         -2   -1    0    0    0  501 -0.00000000000E+00 -0.00000000000E+00 -0.43072703120E+03  0.43072703120E+03  0.00000000000E+00 0. -1.
         25    2    1    2    0    0  0.64924466156E+02  0.99193414448E+02 -0.35055290941E+03  0.39062706743E+03  0.12509054216E+03 0.  0.
         23    2    1    2    0    0 -0.64924466156E+02 -0.99193414448E+02  0.33046791558E+02  0.15332087711E+03  0.91436760387E+02 0.  0.
          5    1    3    3  502    0  0.91081928172E+02  0.75443230615E+02 -0.17338609092E+03  0.20992333746E+03  0.41800000000E+01 0.  1.
         -5    1    3    3    0  502 -0.26157462016E+02  0.23750183833E+02 -0.17716681849E+03  0.18070372997E+03  0.41800000000E+01 0.  1.
        -11    1    4    4    0    0 -0.40559320554E+02 -0.87842852137E+02 -0.15346328794E+02  0.97963947260E+02  0.00000000000E+00 0. -1.
         11    1    4    4    0    0 -0.24365145601E+02 -0.11350562311E+02  0.48393120352E+02  0.55356929849E+02  0.00000000000E+00 0.  1.
</event>
<event>
 8    1  0.6849590E-009  0.2059149E+03  0.7561462E-02  0.1144842E+00
          1   -1    0    0  501    0  0.00000000000E+00  0.00000000000E+00  0.14190183672E+04  0.14190183672E+04  0.00000000000E+00 0. -1.
         -1   -1    0    0    0  501 -0.00000000000E+00 -0.00000000000E+00 -0.34950272250E+02  0.34950272250E+02  0.00000000000E+00 0.  1.
         25    2    1    2    0    0 -0.13183348436E+03 -0.13387147645E+03  0.87281147491E+03  0.90152472114E+03  0.12508122270E+03 0.  0.
         23    2    1    2    0    0  0.13183348436E+03  0.13387147645E+03  0.51125662006E+03  0.55244391833E+03  0.92245929686E+02 0.  0.
          5    1    3    3  502    0 -0.16784977253E+02  0.19916970347E+02  0.49417727962E+02  0.56017902550E+02  0.41800000000E+01 0.  1.
         -5    1    3    3    0  502 -0.11504850711E+03 -0.15378844680E+03  0.82339374695E+03  0.84550681859E+03  0.41800000000E+01 0.  1.
        -11    1    4    4    0    0  0.10040369578E+03  0.70737514410E+02  0.41707998439E+03  0.43478777748E+03  0.00000000000E+00 0. -1.
         11    1    4    4    0    0  0.31429788581E+02  0.63133962044E+02  0.94176635667E+02  0.11765614085E+03  0.00000000000E+00 0.  1.
</event>
<event>
 8    1  0.6849590E-009  0.1289766E+03  0.7561462E-02  0.1228982E+00
          2   -1    0    0  501    0  0.00000000000E+00  0.00000000000E+00  0.37294863707E+03  0.37294863707E+03  0.00000000000E+00 0.  1.
         -2   -1    0    0    0  501 -0.00000000000E+00 -0.00000000000E+00 -0.12709246837E+03  0.12709246837E+03  0.00000000000E+00 0. -1.
         25    2    1    2    0    0 -0.10341499235E+03  0.75690926709E+02 -0.30621203655E+02  0.18168142164E+03  0.12508678518E+03 0.  0.
         23    2    1    2    0    0  0.10341499235E+03 -0.75690926709E+02  0.27647737235E+03  0.31835968379E+03  0.92137797948E+02 0.  0.
          5    1    3    3  502    0 -0.23611048702E+02  0.14617666666E+02  0.46920376452E+02  0.54682281645E+02  0.41800000000E+01 0.  1.
         -5    1    3    3    0  502 -0.79803943653E+02  0.61073260043E+02 -0.77541580107E+02  0.12699914000E+03  0.41800000000E+01 0.  1.
        -11    1    4    4    0    0  0.71078501525E+02 -0.41843360603E+02  0.25277146813E+03  0.26588801271E+03  0.00000000000E+00 0.  1.
         11    1    4    4    0    0  0.32336490830E+02 -0.33847566106E+02  0.23705904225E+02  0.52471671077E+02  0.00000000000E+00 0. -1.
</event>
<event>
 8    1  0.6849590E-009  0.6779382E+02  0.7561462E-02  0.1367760E+00
          2   -1    0    0  501    0  0.00000000000E+00  0.00000000000E+00  0.45921963518E+03  0.45921963518E+03  0.00000000000E+00 0.  1.
         -2   -1    0    0    0  501 -0.00000000000E+00 -0.00000000000E+00 -0.29340800135E+02  0.29340800135E+02  0.00000000000E+00 0. -1.
         25    2    1    2    0    0 -0.44629083584E+02 -0.32781157716E+00  0.23597787762E+03  0.27078842798E+03  0.12509576907E+03 0.  0.
         23    2    1    2    0    0  0.44629083584E+02  0.32781157716E+00  0.19390095743E+03  0.21777200734E+03  0.88516683886E+02 0.  0.
          5    1    3    3  502    0 -0.37443589361E+02  0.24118075584E+02  0.13372389799E+02  0.46690439739E+02  0.41800000000E+01 0. -1.
         -5    1    3    3    0  502 -0.71854942232E+01 -0.24445887161E+02  0.22260548782E+03  0.22409798824E+03  0.41800000000E+01 0. -1.
        -11    1    4    4    0    0  0.30009270223E+02  0.23169443624E+02  0.18556744306E+03  0.18940077968E+03  0.00000000000E+00 0.  1.
         11    1    4    4    0    0  0.14619813361E+02 -0.22841632047E+02  0.83335143643E+01  0.28371227660E+02  0.00000000000E+00 0. -1.
</event>
<event>
 8    1  0.6849590E-009  0.1143106E+03  0.7561462E-02  0.1252789E+00
          1   -1    0    0  501    0  0.00000000000E+00  0.00000000000E+00  0.11363383872E+03  0.11363383872E+03  0.00000000000E+00 0. -1.
         -1   -1    0    0    0  501 -0.00000000000E+00 -0.00000000000E+00 -0.12402973143E+03  0.12402973143E+03  0.00000000000E+00 0.  1.
         25    2    1    2    0    0 -0.31689879895E+02  0.33374057775E+02 -0.12806036661E+02  0.13390078413E+03  0.12508936484E+03 0.  0.
         23    2    1    2    0    0  0.31689879895E+02 -0.33374057775E+02  0.24101439468E+01  0.10376278602E+03  0.92966826062E+02 0.  0.
          5    1    3    3  502    0 -0.26708711684E+02  0.77497540870E+02  0.11867179987E+02  0.82930853617E+02  0.41800000000E+01 0.  1.
         -5    1    3    3    0  502 -0.49811682111E+01 -0.44123483096E+02 -0.24673216648E+02  0.50969930518E+02  0.41800000000E+01 0.  1.
        -11    1    4    4    0    0  0.51475206405E+02 -0.53135296878E+02 -0.68726126832E+01  0.74298650417E+02  0.00000000000E+00 0. -1.
         11    1    4    4    0    0 -0.19785326509E+02  0.19761239104E+02  0.92827566300E+01  0.29464135600E+02  0.00000000000E+00 0.  1.
</event>
<event>
 8    1  0.6849590E-009  0.3275309E+03  0.7561462E-02  0.1072235E+00
          2   -1    0    0  501    0  0.00000000000E+00  0.00000000000E+00  0.63167309561E+03  0.63167309561E+03  0.00000000000E+00 0.  1.
         -2   -1    0    0    0  501 -0.00000000000E+00 -0.00000000000E+00 -0.26572419919E+03  0.26572419919E+03  0.00000000000E+00 0. -1.
         25    2    1    2    0    0  0.25347874374E+03  0.20183860442E+03 -0.62110893148E+02  0.35283895174E+03  0.12508903651E+03 0.  0.
         23    2    1    2    0    0 -0.25347874374E+03 -0.20183860442E+03  0.42805978957E+03  0.54455834306E+03  0.91204768447E+02 0.  0.
          5    1    3    3  502    0  0.80100838488E+02  0.63776852591E+02 -0.80632832653E+02  0.13039462165E+03  0.41800000000E+01 0.  1.
         -5    1    3    3    0  502  0.17337790525E+03  0.13806175183E+03  0.18521939504E+02  0.22244433009E+03  0.41800000000E+01 0.  1.
        -11    1    4    4    0    0 -0.10180480283E+03 -0.12398809013E+03  0.25760849831E+03  0.30347883415E+03  0.00000000000E+00 0.  1.
         11    1    4    4    0    0 -0.15167394091E+03 -0.77850514291E+02  0.17045129126E+03  0.24107950891E+03  0.00000000000E+00 0. -1.
</event>
<event>
 8    1  0.6849590E-009  0.2394760E+03  0.7561462E-02  0.1120142E+00
         -2   -1    0    0    0  501 -0.00000000000E+00  0.00000000000E+00  0.10689916439E+03  0.10689916439E+03  0.00000000000E+00 0.  1.
          2   -1    0    0  501    0  0.00000000000E+00 -0.00000000000E+00 -0.64317870801E+03  0.64317870801E+03  0.00000000000E+00 0. -1.
         25    2    1    2    0    0  0.20380623912E+03 -0.10067215118E+03 -0.17298664821E+03  0.31183986343E+03  0.12509138595E+03 0.  0.
         23    2    1    2    0    0 -0.20380623912E+03  0.10067215118E+03 -0.36329289541E+03  0.43823800897E+03  0.91645837455E+02 0.  0.
          5    1    3    3  502    0  0.90276682946E+02 -0.11904890453E+02 -0.61821254851E+01  0.91363542925E+02  0.41800000000E+01 0.  1.
         -5    1    3    3    0  502  0.11352955618E+03 -0.88767260727E+02 -0.16680452272E+03  0.22047632051E+03  0.41800000000E+01 0.  1.
        -11    1    4    4    0    0 -0.90069528558E+02  0.93249219186E+02 -0.21709673864E+03  0.25286148537E+03  0.00000000000E+00 0. -1.
         11    1    4    4    0    0 -0.11373671057E+03  0.74229319946E+01 -0.14619615677E+03  0.18537652361E+03  0.00000000000E+00 0.  1.
</event>
<event>
 8    1  0.6849590E-009  0.1199103E+03  0.7561462E-02  0.1243245E+00
          2   -1    0    0  501    0  0.00000000000E+00  0.00000000000E+00  0.19698226709E+04  0.19698226709E+04  0.00000000000E+00 0. -1.
         -2   -1    0    0    0  501 -0.00000000000E+00 -0.00000000000E+00 -0.16201198229E+02  0.16201198229E+02  0.00000000000E+00 0.  1.
         25    2    1    2    0    0 -0.70277096847E+02 -0.55263728011E+02  0.16409667441E+04  0.16481542565E+04  0.12509055968E+03 0.  0.
         23    2    1    2    0    0  0.70277096847E+02  0.55263728011E+02  0.31265472855E+03  0.33786961258E+03  0.91705756854E+02 0.  0.
          5    1    3    3  502    0  0.17533347290E+02 -0.11007514908E+02  0.51764372387E+02  0.55907122089E+02  0.41800000000E+01 0. -1.
         -5    1    3    3    0  502 -0.87810444138E+02 -0.44256213103E+02  0.15892023717E+04  0.15922471344E+04  0.41800000000E+01 0. -1.
        -11    1    4    4    0    0  0.57278397658E+02 -0.60552131929E+01  0.20848900334E+03  0.21629874007E+03  0.00000000000E+00 0. -1.
         11    1    4    4    0    0  0.12998699189E+02  0.61318941203E+02  0.10416572522E+03  0.12157087250E+03  0.00000000000E+00 0.  1.
</event>
<event>
 8    1  0.6849590E-009  0.1333442E+03  0.7561462E-02  0.1222576E+00
          1   -1    0    0  501    0  0.00000000000E+00  0.00000000000E+00  0.56034254726E+03  0.56034254726E+03  0.00000000000E+00 0. -1.
         -1   -1    0    0    0  501 -0.00000000000E+00 -0.00000000000E+00 -0.38174390521E+02  0.38174390521E+02  0.00000000000E+00 0.  1.
         25    2    1    2    0    0  0.75077365347E+02 -0.29237319657E+02  0.40197931660E+03  0.42863303284E+03  0.12508986459E+03 0.  0.
         23    2    1    2    0    0 -0.75077365347E+02  0.29237319657E+02  0.12018884015E+03  0.16988390494E+03  0.89015460540E+02 0.  0.
          5    1    3    3  502    0 -0.28548724652E+02 -0.31745937382E+02  0.86848973573E+02  0.96866149042E+02  0.41800000000E+01 0. -1.
         -5    1    3    3    0  502  0.10362609000E+03  0.25086177246E+01  0.31513034302E+03  0.33176688380E+03  0.41800000000E+01 0. -1.
        -11    1    4    4    0    0 -0.37756924720E+02  0.60533121972E+02  0.70130229903E+02  0.10004045865E+03  0.00000000000E+00 0.  1.
         11    1    4    4    0    0 -0.37320440627E+02 -0.31295802315E+02  0.50058610243E+02  0.69843446297E+02  0.00000000000E+00 0. -1.
</event>
<event>
 8    1  0.6849590E-009  0.1202764E+03  0.7561462E-02  0.1242642E+00
          1   -1    0    0  501    0  0.00000000000E+00  0.00000000000E+00  0.75684118167E+02  0.75684118167E+02  0.00000000000E+00 0. -1.
         -1   -1    0    0    0  501 -0.00000000000E+00 -0.00000000000E+00 -0.25642198514E+03  0.25642198514E+03  0.00000000000E+00 0.  1.
         25    2    1    2    0    0 -0.53748718586E+02  0.49009797941E+02 -0.15395394232E+03  0.21128284107E+03  0.12509091705E+03 0.  0.
         23    2    1    2    0    0  0.53748718586E+02 -0.49009797941E+02 -0.26783924651E+02  0.12082326224E+03  0.92682236888E+02 0.  0.
          5    1    3    3  502    0 -0.36154069599E+02  0.79527416161E+02 -0.48467434899E+02  0.99991456213E+02  0.41800000000E+01 0. -1.
         -5    1    3    3    0  502 -0.17594648986E+02 -0.30517618220E+02 -0.10548650742E+03  0.11129138486E+03  0.41800000000E+01 0. -1.
        -11    1    4    4    0    0 -0.16240099992E+02 -0.44630983993E+02 -0.73911557769E+01  0.48065525729E+02  0.00000000000E+00 0. -1.
         11    1    4    4    0    0  0.69988818577E+02 -0.43788139485E+01 -0.19392768874E+02  0.72757736510E+02  0.00000000000E+00 0.  1.
</event>
<event>
 8    1  0.6849590E-009  0.3521868E+03  0.7561462E-02  0.1061721E+00
         -1   -1    0    0    0  501 -0.00000000000E+00  0.00000000000E+00  0.66720232208E+03  0.66720232208E+03  0.00000000000E+00 0.  1.
          1   -1    0    0  501    0  0.00000000000E+00 -0.00000000000E+00 -0.19313421068E+03  0.19313421068E+03  0.00000000000E+00 0. -1.
         25    2    1    2    0    0 -0.15381414991E+03 -0.30419902444E+03  0.27899441064E+03  0.45791100998E+03  0.12509505469E+03 0.  0.
         23    2    1    2    0    0  0.15381414991E+03  0.30419902444E+03  0.19507370075E+03  0.40242552278E+03  0.87730915161E+02 0.  0.
          5    1    3    3  502    0 -0.17076094980E+03 -0.26522425776E+03  0.21804470702E+03  0.38348947253E+03  0.41800000000E+01 0. -1.
         -5    1    3    3    0  502  0.16946799893E+02 -0.38974766675E+02  0.60949703628E+02  0.74421537450E+02  0.41800000000E+01 0. -1.
        -11    1    4    4    0    0  0.12897317549E+03  0.19208757770E+03  0.95021515216E+02  0.25012158215E+03  0.00000000000E+00 0. -1.
         11    1    4    4    0    0  0.24840974416E+02  0.11211144674E+03  0.10005218554E+03  0.15230394063E+03  0.00000000000E+00 0.  1.
</event>
<event>
 8    1  0.6849590E-009  0.1080950E+03  0.7561462E-02  0.1264139E+00
         -1   -1    0    0    0  501 -0.00000000000E+00  0.00000000000E+00  0.17874551226E+02  0.17874551226E+02  0.00000000000E+00 0.  1.
          1   -1    0    0  501    0  0.00000000000E+00 -0.00000000000E+00 -0.71929097755E+03  0.71929097755E+03  0.00000000000E+00 0. -1.
         25    2    1    2    0    0  0.12421464091E+02  0.45692257820E+01 -0.48207857528E+03  0.49822717386E+03  0.12512151468E+03 0.  0.
         23    2    1    2    0    0 -0.12421464091E+02 -0.45692257820E+01 -0.21933785105E+03  0.23893835492E+03  0.93847077493E+02 0.  0.
          5    1    3    3  502    0  0.11215315651E+01  0.64091683554E+02 -0.27665026427E+03  0.28401028653E+03  0.41800000000E+01 0. -1.
         -5    1    3    3    0  502  0.11299932526E+02 -0.59522457771E+02 -0.20542831100E+03  0.21421688733E+03  0.41800000000E+01 0. -1.
        -11    1    4    4    0    0 -0.51548753025E+02 -0.69911865095E+01 -0.91838936396E+02  0.10554876061E+03  0.00000000000E+00 0.  1.
         11    1    4    4    0    0  0.39127288933E+02  0.24219607275E+01 -0.12749891465E+03  0.13338959431E+03  0.00000000000E+00 0. -1.
</event>
<event>
 8    1  0.6849590E-009  0.1323584E+03  0.7561462E-02  0.1223998E+00
          1   -1    0    0  501    0  0.00000000000E+00  0.00000000000E+00  0.79466902977E+03  0.79466902977E+03  0.00000000000E+00 0. -1.
         -1   -1    0    0    0  501 -0.00000000000E+00 -0.00000000000E+00 -0.26707433603E+02  0.26707433603E+02  0.00000000000E+00 0.  1.
         25    2    1    2    0    0  0.87246684820E+02 -0.39886161096E+02  0.45579200555E+03  0.48228257402E+03  0.12508892446E+03 0.  0.
         23    2    1    2    0    0 -0.87246684820E+02  0.39886161096E+02  0.31216959062E+03  0.33909388935E+03  0.91279365856E+02 0.  0.
          5    1    3    3  502    0 -0.83173975376E+01  0.18160867576E+02  0.10118818483E+02  0.22778478886E+02  0.41800000000E+01 0.  1.
         -5    1    3    3    0  502  0.95564082358E+02 -0.58047028672E+02  0.44567318707E+03  0.45950409513E+03  0.41800000000E+01 0.  1.
        -11    1    4    4    0    0 -0.16241210762E+02  0.57093253113E+02  0.14005920708E+03  0.15211836828E+03  0.00000000000E+00 0. -1.
         11    1    4    4    0    0 -0.71005474058E+02 -0.17207092017E+02  0.17211038353E+03  0.18697552108E+03  0.00000000000E+00 0.  1.
</event>
<event>
 8    1  0.6849590E-009  0.5452477E+02  0.7561462E-02  0.1422360E+00
          1   -1    0    0  501    0  0.00000000000E+00  0.00000000000E+00  0.34997089382E+03  0.34997089382E+03  0.00000000000E+00 0. -1.
         -1   -1    0    0    0  501 -0.00000000000E+00 -0.00000000000E+00 -0.38877195652E+02  0.38877195652E+02  0.00000000000E+00 0.  1.
         25    2    1    2    0    0  0.27855761929E+02 -0.26670437167E+02  0.21247810410E+03  0.24956429111E+03  0.12509250569E+03 0.  0.
         23    2    1    2    0    0 -0.27855761929E+02  0.26670437167E+02  0.98615594060E+02  0.13928379836E+03  0.90485829846E+02 0.  0.
          5    1    3    3  502    0  0.12434128516E+02 -0.37812544093E+02  0.22358628506E+03  0.22714025471E+03  0.41800000000E+01 0.  1.
         -5    1    3    3    0  502  0.15421633413E+02  0.11142106926E+02 -0.11108180960E+02  0.22424036392E+02  0.41800000000E+01 0.  1.
        -11    1    4    4    0    0 -0.91580637306E+01  0.29270028889E+02 -0.74419887201E+01  0.31559276268E+02  0.00000000000E+00 0.  1.
         11    1    4    4    0    0 -0.18697698198E+02 -0.25995917218E+01  0.10605758278E+03  0.10772452209E+03  0.00000000000E+00 0. -1.
</event>
<event>
 8    1  0.6849590E-009  0.7551615E+02  0.7561462E-02  0.1342280E+00
          1   -1    0    0  501    0  0.00000000000E+00  0.00000000000E+00  0.81046181862E+03  0.81046181862E+03  0.00000000000E+00 0. -1.
         -1   -1    0    0    0  501 -0.00000000000E+00 -0.00000000000E+00 -0.21397807277E+02  0.21397807277E+02  0.00000000000E+00 0.  1.
         25    2    1    2    0    0 -0.44633578472E+02  0.62981785713E+01  0.61740432739E+03  0.63155951885E+03  0.12508996363E+03 0.  0.
         23    2    1    2    0    0  0.44633578472E+02 -0.62981785713E+01  0.17165968395E+03  0.20030010704E+03  0.92850753383E+02 0.  0.
          5    1    3    3  502    0 -0.57332143232E+02  0.38212388101E+01  0.11178525131E+03  0.12575766904E+03  0.41800000000E+01 0. -1.
         -5    1    3    3    0  502  0.12698564760E+02  0.24769397612E+01  0.50561907608E+03  0.50580184981E+03  0.41800000000E+01 0. -1.
        -11    1    4    4    0    0 -0.17437336167E+02 -0.22118954544E-01 -0.22994920897E+00  0.17438866319E+02  0.00000000000E+00 0.  1.
         11    1    4    4    0    0  0.62070914639E+02 -0.62760596168E+01  0.17188963316E+03  0.18286124072E+03  0.00000000000E+00 0. -1.
</event>
<event>
 8    1  0.6849590E-009  0.1150926E+03  0.7561462E-02  0.1251419E+00
          1   -1    0    0  501    0  0.00000000000E+00  0.00000000000E+00  0.31460630567E+03  0.31460630567E+03  0.00000000000E+00 0. -1.
         -1   -1    0    0    0  501 -0.00000000000E+00 -0.00000000000E+00 -0.70449505384E+02  0.70449505384E+02  0.00000000000E+00 0.  1.
         25    2    1    2    0    0  0.60996454360E+02  0.76165286054E+02  0.92439135533E+02  0.18361375458E+03  0.12508916360E+03 0.  0.
         23    2    1    2    0    0 -0.60996454360E+02 -0.76165286054E+02  0.15171766476E+03  0.20144205647E+03  0.89660103018E+02 0.  0.
          5    1    3    3  502    0  0.27658567615E+02  0.77510999940E+01  0.10268508244E+03  0.10670883033E+03  0.41800000000E+01 0.  1.
         -5    1    3    3    0  502  0.33337886745E+02  0.68414186060E+02 -0.10245946908E+02  0.76904924257E+02  0.41800000000E+01 0.  1.
        -11    1    4    4    0    0 -0.23580155123E+02  0.13927250675E+02  0.95101418831E+01  0.28990253977E+02  0.00000000000E+00 0. -1.
         11    1    4    4    0    0 -0.37416299237E+02 -0.90092536729E+02  0.14220752287E+03  0.17245180250E+03  0.00000000000E+00 0.  1.
</event>
<event>
 8    1  0.6849590E-009  0.1299368E+03  0.7561462E-02  0.1227550E+00
         -2   -1    0    0    0  501 -0.00000000000E+00  0.00000000000E+00  0.31298654599E+03  0.31298654599E+03  0.00000000000E+00 0.  1.
          2   -1    0    0  501    0  0.00000000000E+00 -0.00000000000E+00 -0.58339571342E+02  0.58339571342E+02  0.00000000000E+00 0. -1.
         25    2    1    2    0    0  0.54277502451E+02  0.56589044135E+02  0.15586211114E+03  0.21468276676E+03  0.12508926999E+03 0.  0.
         23    2    1    2    0    0 -0.54277502451E+02 -0.56589044135E+02  0.98784863508E+02  0.15664335057E+03  0.92899530845E+02 0.  0.
          5    1    3    3  502    0  0.94099547545E+02  0.51036038643E+02  0.11626474272E+03  0.15809606221E+03  0.41800000000E+01 0. -1.
         -5    1    3    3    0  502 -0.39822045094E+02  0.55530054915E+01  0.39597368422E+02  0.56586704547E+02  0.41800000000E+01 0. -1.
        -11    1    4    4    0    0 -0.72641207155E+02 -0.59279893145E+02  0.54078238233E+02  0.10823726973E+03  0.00000000000E+00 0. -1.
         11    1    4    4    0    0  0.18363704704E+02  0.26908490102E+01  0.44706625275E+02  0.48406080840E+02  0.00000000000E+00 0.  1.
</event>
<event>
 8    1  0.6849590E-009  0.1229326E+03  0.7561462E-02  0.1238336E+00
          1   -1    0    0  501    0  0.00000000000E+00  0.00000000000E+00  0.83902251741E+03  0.83902251741E+03  0.00000000000E+00 0.  1.
         -1   -1    0    0    0  501 -0.00000000000E+00 -0.00000000000E+00 -0.18101568834E+02  0.18101568834E+02  0.00000000000E+00 0. -1.
         25    2    1    2    0    0  0.57007675281E+02  0.24150246070E+02  0.47590951239E+03  0.49595489639E+03  0.12509310867E+03 0.  0.
         23    2    1    2    0    0 -0.57007675281E+02 -0.24150246070E+02  0.34501143619E+03  0.36116918986E+03  0.87047017067E+02 0.  0.
          5    1    3    3  502    0  0.96575808746E+02  0.23676176437E+02  0.35330255823E+03  0.36705260961E+03  0.41800000000E+01 0. -1.
         -5    1    3    3    0  502 -0.39568133466E+02  0.47406963314E+00  0.12260695416E+03  0.12890228678E+03  0.41800000000E+01 0. -1.
        -11    1    4    4    0    0 -0.34065709551E+02 -0.57046998871E+02  0.22732835243E+03  0.23683963449E+03  0.00000000000E+00 0.  1.
         11    1    4    4    0    0 -0.22941965729E+02  0.32896752801E+02  0.11768308376E+03  0.12432955537E+03  0.00000000000E+00 0. -1.
</event>
<event>
 8    1  0.6849590E-009  0.1051211E+03  0.7561462E-02  0.1269881E+00
         -2   -1    0    0    0  501 -0.00000000000E+00  0.00000000000E+00  0.37475583690E+03  0.37475583690E+03  0.00000000000E+00 0.  1.
          2   -1    0    0  501    0  0.00000000000E+00 -0.00000000000E+00 -0.44591024906E+02  0.44591024906E+02  0.00000000000E+00 0. -1.
         25    2    1    2    0    0  0.30129713435E+02  0.52039959618E+02  0.22594781479E+03  0.26517151739E+03  0.12509021385E+03 0.  0.
         23    2    1    2    0    0 -0.30129713435E+02 -0.52039959618E+02  0.10421699721E+03  0.15417534442E+03  0.96399674737E+02 0.  0.
          5    1    3    3  502    0  0.49871227878E+02  0.15968410774E+01  0.23043669798E+02  0.55119618914E+02  0.41800000000E+01 0.  1.
         -5    1    3    3    0  502 -0.19741514444E+02  0.50443118541E+02  0.20290414499E+03  0.21005189848E+03  0.41800000000E+01 0.  1.
        -11    1    4    4    0    0 -0.56124192963E+02 -0.56304220676E+02  0.99591173636E+02  0.12743034241E+03  0.00000000000E+00 0.  1.
         11    1    4    4    0    0  0.25994479528E+02  0.42642610578E+01  0.46258235735E+01  0.26745002001E+02  0.00000000000E+00 0. -1.
</event>
<event>
 8    1  0.6849590E-009  0.8453873E+02  0.7561462E-02  0.1316643E+00
          2   -1    0    0  501    0  0.00000000000E+00  0.00000000000E+00  0.24400028085E+03  0.24400028085E+03  0.00000000000E+00 0. -1.
         -2   -1    0    0    0  501 -0.00000000000E+00 -0.00000000000E+00 -0.46862388182E+02  0.46862388182E+02  0.00000000000E+00 0.  1.
         25    2    1    2    0    0 -0.11345542290E+01  0.84065318326E+01  0.12223871897E+03  0.17510492193E+03  0.12508985681E+03 0.  0.
         23    2    1    2    0    0  0.11345542290E+01 -0.84065318326E+01  0.74899173697E+02  0.11575774711E+03  0.87852221395E+02 0.  0.
          5    1    3    3  502    0 -0.59685618480E+02 -0.98566517103E+00  0.88257953300E+02  0.10663153056E+03  0.41800000000E+01 0.  1.
         -5    1    3    3    0  502  0.58551064251E+02  0.93921970037E+01  0.33980765672E+02  0.68473391365E+02  0.41800000000E+01 0.  1.
        -11    1    4    4    0    0 -0.13574140036E+02 -0.24487179936E+02 -0.87366094884E+01  0.29329296008E+02  0.00000000000E+00 0.  1.
         11    1    4    4    0    0  0.14708694265E+02  0.16080648103E+02  0.83635783185E+02  0.86428451099E+02  0.00000000000E+00 0. -1.
</event>
<event>
 8    1  0.6849590E-009  0.1029614E+03  0.7561462E-02  0.1274189E+00
          2   -1    0    0  501    0  0.00000000000E+00  0.00000000000E+00  0.13391259926E+03  0.13391259926E+03  0.00000000000E+00 0. -1.
         -2   -1    0    0    0  501 -0.00000000000E+00 -0.00000000000E+00 -0.16644168599E+03  0.16644168599E+03  0.00000000000E+00 0.  1.
         25    2    1    2    0    0 -0.62035654690E+02 -0.37740481132E+02 -0.90692950007E+02  0.17072097544E+03  0.12509066274E+03 0.  0.
         23    2    1    2    0    0  0.62035654690E+02  0.37740481132E+02  0.58163863284E+02  0.12963330981E+03  0.90271776607E+02 0.  0.
          5    1    3    3  502    0 -0.91317519662E+02 -0.18849417053E+02 -0.25623026498E+02  0.96789471573E+02  0.41800000000E+01 0. -1.
         -5    1    3    3    0  502  0.29281864972E+02 -0.18891064079E+02 -0.65069923509E+02  0.73931503865E+02  0.41800000000E+01 0. -1.
        -11    1    4    4    0    0  0.38926191676E+02  0.78533124669E+01 -0.18770599984E+02  0.43923323404E+02  0.00000000000E+00 0.  1.
         11    1    4    4    0    0  0.23109463014E+02  0.29887168665E+02  0.76934463268E+02  0.85709986408E+02  0.00000000000E+00 0. -1.
</event>
<event>
 8    1  0.6849590E-009  0.1203204E+03  0.7561462E-02  0.1242569E+00
          2   -1    0    0  501    0  0.00000000000E+00  0.00000000000E+00  0.75069086435E+03  0.75069086435E+03  0.00000000000E+00 0. -1.
         -2   -1    0    0    0  501 -0.00000000000E+00 -0.00000000000E+00 -0.48078069605E+02  0.48078069605E+02  0.00000000000E+00 0.  1.
         25    2    1    2    0    0 -0.10054523800E+02 -0.84128365908E+02  0.96565270668E+02  0.17930653720E+03  0.12508919771E+03 0.  0.
         23    2    1    2    0    0  0.10054523800E+02  0.84128365908E+02  0.60604752408E+03  0.61946239675E+03  0.96236085506E+02 0.  0.
          5    1    3    3  502    0 -0.36068408907E+02 -0.11862418170E+02 -0.17269261095E+02  0.41920721185E+02  0.41800000000E+01 0.  1.
         -5    1    3    3    0  502  0.26013885106E+02 -0.72265947738E+02  0.11383453176E+03  0.13738581602E+03  0.41800000000E+01 0.  1.
        -11    1    4    4    0    0 -0.39820553802E+02  0.54546770210E+02  0.26211263164E+03  0.27067334244E+03  0.00000000000E+00 0.  1.
         11    1    4    4    0    0  0.49875077603E+02  0.29581595698E+02  0.34393489244E+03  0.34878905431E+03  0.00000000000E+00 0. -1.
</event>
<event>
 8    1  0.6849590E-009  0.1048227E+03  0.7561462E-02  0.1270469E+00
          4   -1    0    0  501    0  0.00000000000E+00  0.00000000000E+00  0.20610257775E+02  0.20610257775E+02  0.00000000000E+00 0. -1.
         -4   -1    0    0    0  501 -0.00000000000E+00 -0.00000000000E+00 -0.95308341144E+03  0.95308341144E+03  0.00000000000E+00 0.  1.
         25    2    1    2    0    0  0.81728811956E+02 -0.15162489974E+02 -0.42612234683E+03  0.45181626567E+03  0.12509270023E+03 0.  0.
         23    2    1    2    0    0 -0.81728811956E+02  0.15162489974E+02 -0.50635080684E+03  0.52187740355E+03  0.95159786373E+02 0.  0.
          5    1    3    3  502    0  0.44600878579E+02 -0.39505570887E+02 -0.38966785941E+03  0.39421877373E+03  0.41800000000E+01 0. -1.
         -5    1    3    3    0  502  0.37127933377E+02  0.24343080913E+02 -0.36454487420E+02  0.57597491944E+02  0.41800000000E+01 0. -1.
        -11    1    4    4    0    0  0.57311874216E+01  0.16902029570E+02 -0.16594553627E+02  0.24370152296E+02  0.00000000000E+00 0. -1.
         11    1    4    4    0    0 -0.87459999378E+02 -0.17395395956E+01 -0.48975625321E+03  0.49750725125E+03  0.00000000000E+00 0.  1.
</event>
<event>
 8    1  0.6849590E-009  0.1365347E+03  0.7561462E-02  0.1218069E+00
         -2   -1    0    0    0  501 -0.00000000000E+00  0.00000000000E+00  0.26045093313E+02  0.26045093313E+02  0.00000000000E+00 0.  1.
          2   -1    0    0  501    0  0.00000000000E+00 -0.00000000000E+00 -0.11095571547E+04  0.11095571547E+04  0.00000000000E+00 0. -1.
         25    2    1    2    0    0  0.59021635053E+02  0.10402358472E+03 -0.75579858698E+03  0.77535897066E+03  0.12508225181E+03 0.  0.
         23    2    1    2    0    0 -0.59021635053E+02 -0.10402358472E+03 -0.32771347440E+03  0.36024327734E+03  0.89858989457E+02 0.  0.
          5    1    3    3  502    0 -0.25233111929E+02  0.32344426073E+02 -0.74721286003E+02  0.85344096560E+02  0.41800000000E+01 0.  1.
         -5    1    3    3    0  502  0.84254746983E+02  0.71679158652E+02 -0.68107730098E+03  0.69001487410E+03  0.41800000000E+01 0.  1.
        -11    1    4    4    0    0 -0.36525702272E+02 -0.44923964791E+02 -0.53498510552E+02  0.78831340026E+02  0.00000000000E+00 0.  1.
         11    1    4    4    0    0 -0.22495932781E+02 -0.59099619934E+02 -0.27421496384E+03  0.28141193732E+03  0.00000000000E+00 0. -1.
</event>
<event>
 8    1  0.6849590E-009  0.1240657E+03  0.7561462E-02  0.1236537E+00
         -1   -1    0    0    0  501 -0.00000000000E+00  0.00000000000E+00  0.56455411072E+02  0.56455411072E+02  0.00000000000E+00 0.  1.
          1   -1    0    0  501    0  0.00000000000E+00 -0.00000000000E+00 -0.30156784543E+03  0.30156784543E+03  0.00000000000E+00 0. -1.
         25    2    1    2    0    0 -0.54759662384E+02  0.34640211265E+02 -0.89377861030E+02  0.16683772141E+03  0.12509140011E+03 0.  0.
         23    2    1    2    0    0  0.54759662384E+02 -0.34640211265E+02 -0.15573457333E+03  0.19118553509E+03  0.90000481318E+02 0.  0.
          5    1    3    3  502    0  0.19086624383E+02  0.59293418649E+02 -0.46634723449E+02  0.77924826317E+02  0.41800000000E+01 0.  1.
         -5    1    3    3    0  502 -0.73846286767E+02 -0.24653207384E+02 -0.42743137581E+02  0.88912895093E+02  0.41800000000E+01 0.  1.
        -11    1    4    4    0    0 -0.99498425492E+01 -0.41489364884E+02 -0.40385536657E+02  0.58748262411E+02  0.00000000000E+00 0.  1.
         11    1    4    4    0    0  0.64709504933E+02  0.68491536187E+01 -0.11534903667E+03  0.13243727268E+03  0.00000000000E+00 0. -1.
</event>
<event>
 8    1  0.6849590E-009  0.7619729E+02  0.7561462E-02  0.1340203E+00
          2   -1    0    0  501    0  0.00000000000E+00  0.00000000000E+00  0.15494010389E+04  0.15494010389E+04  0.00000000000E+00 0. -1.
         -2   -1    0    0    0  501 -0.00000000000E+00 -0.00000000000E+00 -0.10524679059E+02  0.10524679059E+02  0.00000000000E+00 0.  1.
         25    2    1    2    0    0 -0.12200970481E+02  0.13410907845E+02  0.12573203840E+04  0.12636578958E+04  0.12509201910E+03 0.  0.
         23    2    1    2    0    0  0.12200970481E+02 -0.13410907845E+02  0.28155597580E+03  0.29626782220E+03  0.90399882942E+02 0.  0.
          5    1    3    3  502    0  0.22592360653E+02  0.26794052349E+02  0.10591022061E+03  0.11163683635E+03  0.41800000000E+01 0.  1.
         -5    1    3    3    0  502 -0.34793331133E+02 -0.13383144504E+02  0.11514101634E+04  0.11520210594E+04  0.41800000000E+01 0.  1.
        -11    1    4    4    0    0  0.14749409125E+02 -0.45276914682E+02  0.23510931785E+03  0.23988317034E+03  0.00000000000E+00 0. -1.
         11    1    4    4    0    0 -0.25484386445E+01  0.31866006837E+02  0.46446657949E+02  0.56384651864E+02  0.00000000000E+00 0.  1.
</event>
<event>
 8    1  0.6849590E-009  0.8395092E+02  0.7561462E-02  0.1318199E+00
          4   -1    0    0  501    0  0.00000000000E+00  0.00000000000E+00  0.35486108872E+02  0.35486108872E+02  0.00000000000E+00 0. -1.
         -4   -1    0    0    0  501 -0.00000000000E+00 -0.00000000000E+00 -0.50736162842E+03  0.50736162842E+03  0.00000000000E+00 0.  1.
         25    2    1    2    0    0 -0.45581143528E+02 -0.23519539293E+02 -0.38195184413E+03  0.40517380540E+03  0.12509113468E+03 0.  0.
         23    2    1    2    0    0  0.45581143528E+02  0.23519539293E+02 -0.89923675412E+02  0.13767393189E+03  0.90758111193E+02 0.  0.
          5    1    3    3  502    0  0.25933354153E+02 -0.43983436747E+00 -0.26368109353E+03  0.26498664834E+03  0.41800000000E+01 0.  1.
         -5    1    3    3    0  502 -0.71514497682E+02 -0.23079704925E+02 -0.11827075060E+03  0.14018715707E+03  0.41800000000E+01 0.  1.
        -11    1    4    4    0    0  0.18638822741E+02  0.32921613316E+02  0.53595488574E+01  0.38209463493E+02  0.00000000000E+00 0. -1.
         11    1    4    4    0    0  0.26942320788E+02 -0.94020740229E+01 -0.95283224270E+02  0.99464468392E+02  0.00000000000E+00 0.  1.
</event>
<event>
 8    1  0.6849590E-009  0.1405689E+03  0.7561462E-02  0.1212565E+00
         -1   -1    0    0    0  501 -0.00000000000E+00  0.00000000000E+00  0.42953786168E+03  0.42953786168E+03  0.00000000000E+00 0.  1.
          1   -1    0    0  501    0  0.00000000000E+00 -0.00000000000E+00 -0.52718263050E+02  0.52718263050E+02  0.00000000000E+00 0. -1.
         25    2    1    2    0    0 -0.21653174732E+01 -0.89487499263E+02  0.11906600721E+03  0.19451741001E+03  0.12509039770E+03 0.  0.
         23    2    1    2    0    0  0.21653174732E+01  0.89487499263E+02  0.25775359141E+03  0.28773871472E+03  0.91345240374E+02 0.  0.
          5    1    3    3  502    0 -0.62730479377E+02 -0.56361155350E+02  0.60195624324E+02  0.10369512266E+03  0.41800000000E+01 0.  1.
         -5    1    3    3    0  502  0.60565161904E+02 -0.33126343913E+02  0.58870382889E+02  0.90822287347E+02  0.41800000000E+01 0.  1.
        -11    1    4    4    0    0 -0.43448406618E+02  0.31003539655E+02  0.97506724400E+02  0.11115999646E+03  0.00000000000E+00 0.  1.
         11    1    4    4    0    0  0.45613724091E+02  0.58483959608E+02  0.16024686701E+03  0.17657871827E+03  0.00000000000E+00 0. -1.
</event>
<event>
 8    1  0.6849590E-009  0.8551317E+02  0.7561462E-02  0.1314096E+00
          3   -1    0    0  501    0  0.00000000000E+00  0.00000000000E+00  0.29128038778E+03  0.29128038778E+03  0.00000000000E+00 0. -1.
         -3   -1    0    0    0  501 -0.00000000000E+00 -0.00000000000E+00 -0.43590958843E+02  0.43590958843E+02  0.00000000000E+00 0.  1.
         25    2    1    2    0    0  0.22101669409E+02 -0.12039748745E+02  0.11851647343E+03  0.17414468362E+03  0.12508707774E+03 0.  0.
         23    2    1    2    0    0 -0.22101669409E+02  0.12039748745E+02  0.12917295551E+03  0.16072666301E+03  0.92271167900E+02 0.  0.
          5    1    3    3  502    0  0.10489979876E+02  0.55802612372E+02  0.39627484153E+02  0.69367003147E+02  0.41800000000E+01 0.  1.
         -5    1    3    3    0  502  0.11611689532E+02 -0.67842361117E+02  0.78888989277E+02  0.10477768047E+03  0.41800000000E+01 0.  1.
        -11    1    4    4    0    0 -0.30307113198E+02 -0.31125904170E+00  0.13943673729E+03  0.14269275279E+03  0.00000000000E+00 0. -1.
         11    1    4    4    0    0  0.82054437895E+01  0.12351007787E+02 -0.10263781783E+02  0.18033910215E+02  0.00000000000E+00 0.  1.
</event>
<event>
 8    1  0.6849590E-009  0.8671300E+02  0.7561462E-02  0.1311013E+00
         -1   -1    0    0    0  501 -0.00000000000E+00  0.00000000000E+00  0.12254958356E+02  0.12254958356E+02  0.00000000000E+00 0.  1.
          1   -1    0    0  501    0  0.00000000000E+00 -0.00000000000E+00 -0.18380783492E+04  0.18380783492E+04  0.00000000000E+00 0. -1.
         25    2    1    2    0    0  0.11580764081E+02  0.33494431610E+02 -0.16001992716E+04  0.16054716842E+04  0.12508248751E+03 0.  0.
         23    2    1    2    0    0 -0.11580764081E+02 -0.33494431610E+02 -0.22562411921E+03  0.24486162338E+03  0.88289186160E+02 0.  0.
          5    1    3    3  502    0  0.21714452610E+02  0.61017800935E+02 -0.14883796939E+04  0.14897940378E+04  0.41800000000E+01 0. -1.
         -5    1    3    3    0  502 -0.10133688528E+02 -0.27523369325E+02 -0.11181957773E+03  0.11567764636E+03  0.41800000000E+01 0. -1.
        -11    1    4    4    0    0  0.19270185762E+02  0.12895553428E+02 -0.16538246309E+02  0.28480676756E+02  0.00000000000E+00 0.  1.
         11    1    4    4    0    0 -0.30850949844E+02 -0.46389985038E+02 -0.20908587290E+03  0.21638094663E+03  0.00000000000E+00 0. -1.
</event>
<event>
 8    1  0.6849590E-009  0.1340750E+03  0.7561462E-02  0.1221532E+00
         -4   -1    0    0    0  501 -0.00000000000E+00  0.00000000000E+00  0.21231109224E+03  0.21231109224E+03  0.00000000000E+00 0.  1.
          4   -1    0    0  501    0  0.00000000000E+00 -0.00000000000E+00 -0.88359683096E+02  0.88359683096E+02  0.00000000000E+00 0. -1.
         25    2    1    2    0    0  0.65017291233E+02  0.48328757458E+02  0.45528880844E+02  0.15582529773E+03  0.12508288238E+03 0.  0.
         23    2    1    2    0    0 -0.65017291233E+02 -0.48328757458E+02  0.78422528299E+02  0.14484547761E+03  0.90924157854E+02 0.  0.
          5    1    3    3  502    0 -0.31025070989E+02 -0.11684695914E+02 -0.72215474727E+00  0.33422762542E+02  0.41800000000E+01 0.  1.
         -5    1    3    3    0  502  0.96042362222E+02  0.60013453371E+02  0.46251035591E+02  0.12240253519E+03  0.41800000000E+01 0.  1.
        -11    1    4    4    0    0 -0.24884252514E+02  0.26588860249E+02  0.28805982808E+02  0.46432511864E+02  0.00000000000E+00 0.  1.
         11    1    4    4    0    0 -0.40133038719E+02 -0.74917617706E+02  0.49616545491E+02  0.98412965742E+02  0.00000000000E+00 0. -1.
</event>
<event>
 8    1  0.6849590E-009  0.1447975E+03  0.7561462E-02  0.1207016E+00
          2   -1    0    0  501    0  0.00000000000E+00  0.00000000000E+00  0.63325868412E+03  0.63325868412E+03  0.00000000000E+00 0. -1.
         -2   -1    0    0    0  501 -0.00000000000E+00 -0.00000000000E+00 -0.74125821980E+02  0.74125821980E+02  0.00000000000E+00 0.  1.
         25    2    1    2    0    0 -0.13026107633E+03 -0.49065228418E+02  0.49448259049E+03  0.52871102208E+03  0.12508784083E+03 0.  0.
         23    2    1    2    0    0  0.13026107633E+03  0.49065228418E+02  0.64650271651E+02  0.17867348402E+03  0.91483395341E+02 0.  0.
          5    1    3    3  502    0 -0.57860777269E+02 -0.50504721348E+02  0.41092690848E+03  0.41806338388E+03  0.41800000000E+01 0. -1.
         -5    1    3    3    0  502 -0.72400299057E+02  0.14394929302E+01  0.83555682004E+02  0.11064763820E+03  0.41800000000E+01 0. -1.
        -11    1    4    4    0    0  0.10481448304E+03  0.46171276269E+02  0.87671819058E+02  0.14423664744E+03  0.00000000000E+00 0. -1.
         11    1    4    4    0    0  0.25446593286E+02  0.28939521481E+01 -0.23021547408E+02  0.34436836585E+02  0.00000000000E+00 0.  1.
</event>
<event>
 8    1  0.6849590E-009  0.9991758E+02  0.7561462E-02  0.1280469E+00
         -2   -1    0    0    0  501 -0.00000000000E+00  0.00000000000E+00  0.72298998285E+02  0.72298998285E+02  0.00000000000E+00 0.  1.
          2   -1    0    0  501    0  0.00000000000E+00 -0.00000000000E+00 -0.28411691347E+03  0.28411691347E+03  0.00000000000E+00 0. -1.
         25    2    1    2    0    0 -0.74924556319E+02 -0.54383170869E+02 -0.13571067116E+03  0.20648341678E+03  0.12508715651E+03 0.  0.
         23    2    1    2    0    0  0.74924556319E+02  0.54383170869E+02 -0.76107244029E+02  0.14993249498E+03  0.90090077389E+02 0.  0.
          5    1    3    3  502    0 -0.14231008135E+02 -0.39115501687E+02 -0.13751133911E+03  0.14373372898E+03  0.41800000000E+01 0.  1.
         -5    1    3    3    0  502 -0.60693548184E+02 -0.15267669181E+02  0.18006679470E+01  0.62749687795E+02  0.41800000000E+01 0.  1.
        -11    1    4    4    0    0  0.60996172476E+02  0.53808136878E+02 -0.95884136494E+02  0.12573629660E+03  0.00000000000E+00 0.  1.
         11    1    4    4    0    0  0.13928383843E+02  0.57503399007E+00  0.19776892465E+02  0.24196198382E+02  0.00000000000E+00 0. -1.
</event>
<event>
 8    1  0.6849590E-009  0.1065514E+03  0.7561462E-02  0.1267093E+00
          3   -1    0    0  501    0  0.00000000000E+00  0.00000000000E+00  0.88995847598E+02  0.88995847598E+02  0.00000000000E+00 0. -1.
         -3   -1    0    0    0  501 -0.00000000000E+00 -0.00000000000E+00 -0.42748260917E+03  0.42748260917E+03  0.00000000000E+00 0.  1.
         25    2    1    2    0    0 -0.69549698824E+01 -0.75800840313E+02  0.99122270933E+01  0.14676332200E+03  0.12508829458E+03 0.  0.
         23    2    1    2    0    0  0.69549698824E+01  0.75800840313E+02 -0.34839898867E+03  0.36971513477E+03  0.97536078337E+02 0.  0.
          5    1    3    3  502    0 -0.17709885155E+02 -0.77634936355E+02  0.57148718511E+02  0.98103373043E+02  0.41800000000E+01 0.  1.
         -5    1    3    3    0  502  0.10754915273E+02  0.18340960419E+01 -0.47236491418E+02  0.48659948955E+02  0.41800000000E+01 0.  1.
        -11    1    4    4    0    0  0.44247890792E+02  0.89692743627E+01 -0.98380258973E+02  0.10824508801E+03  0.00000000000E+00 0.  1.
         11    1    4    4    0    0 -0.37292920910E+02  0.66831565950E+02 -0.25001872970E+03  0.26147004677E+03  0.00000000000E+00 0. -1.
</event>
<event>
 8    1  0.6849590E-009  0.3260538E+03  0.7561462E-02  0.1072896E+00
         -1   -1    0    0    0  501 -0.00000000000E+00  0.00000000000E+00  0.16612650785E+03  0.16612650785E+03  0.00000000000E+00 0.  1.
          1   -1    0    0  501    0  0.00000000000E+00 -0.00000000000E+00 -0.67061672289E+03  0.67061672289E+03  0.00000000000E+00 0. -1.
         25    2    1    2    0    0 -0.21196781547E+03  0.22336119495E+03 -0.34149704214E+03  0.47653737530E+03  0.12508821711E+03 0.  0.
         23    2    1    2    0    0  0.21196781547E+03 -0.22336119495E+03 -0.16299317289E+03  0.36020585544E+03  0.91437988163E+02 0.  0.
          5    1    3    3  502    0 -0.19253492941E+03  0.12195931696E+03 -0.25239287415E+03  0.34009323627E+03  0.41800000000E+01 0. -1.
         -5    1    3    3    0  502 -0.19432886059E+02  0.10140187799E+03 -0.89104167991E+02  0.13644413903E+03  0.41800000000E+01 0. -1.
        -11    1    4    4    0    0  0.14016850487E+03 -0.82301736616E+02 -0.73672429859E+02  0.17846123537E+03  0.00000000000E+00 0. -1.
         11    1    4    4    0    0  0.71799310591E+02 -0.14105945834E+03 -0.89320743036E+02  0.18174462007E+03  0.00000000000E+00 0.  1.
</event>
<event>
 8    1  0.6849590E-009  0.1433703E+03  0.7561462E-02  0.1208865E+00
          2   -1    0    0  501    0  0.00000000000E+00  0.00000000000E+00  0.74632687021E+03  0.74632687021E+03  0.00000000000E+00 0. -1.
         -2   -1    0    0    0  501 -0.00000000000E+00 -0.00000000000E+00 -0.49910036542E+02  0.49910036542E+02  0.00000000000E+00 0.  1.
         25    2    1    2    0    0  0.80042690381E+02  0.58395418809E+02  0.62149296241E+03  0.64165275252E+03  0.12509154756E+03 0.  0.
         23    2    1    2    0    0 -0.80042690381E+02 -0.58395418809E+02  0.74923871254E+02  0.15458415423E+03  0.92009874649E+02 0.  0.
          5    1    3    3  502    0  0.99183845734E+02  0.78772738509E+02  0.55703263925E+03  0.57126649926E+03  0.41800000000E+01 0. -1.
         -5    1    3    3    0  502 -0.19141155352E+02 -0.20377319700E+02  0.64460323160E+02  0.70386253262E+02  0.41800000000E+01 0. -1.
        -11    1    4    4    0    0 -0.69987242472E+02  0.24923899427E+01  0.22344321042E+02  0.73509827910E+02  0.00000000000E+00 0. -1.
         11    1    4    4    0    0 -0.10055447909E+02 -0.60887808752E+02  0.52579550212E+02  0.81074326317E+02  0.00000000000E+00 0.  1.
</event>
<event>
 8    1  0.6849590E-009  0.1075427E+03  0.7561462E-02  0.1265189E+00
         -1   -1    0    0    0  501 -0.00000000000E+00  0.00000000000E+00  0.28061598894E+02  0.28061598894E+02  0.00000000000E+00 0.  1.
          1   -1    0    0  501    0  0.00000000000E+00 -0.00000000000E+00 -0.61116551332E+03  0.61116551332E+03  0.00000000000E+00 0. -1.
         25    2    1    2    0    0  0.60113170625E+02 -0.27004210230E+02 -0.26292525549E+03  0.29852979009E+03  0.12509006732E+03 0.  0.
         23    2    1    2    0    0 -0.60113170625E+02  0.27004210230E+02 -0.32017865893E+03  0.34069732212E+03  0.96007661222E+02 0.  0.
          5    1    3    3  502    0  0.92553529678E+02 -0.30623763351E+02 -0.23806571854E+03  0.25728725091E+03  0.41800000000E+01 0.  1.
         -5    1    3    3    0  502 -0.32440359053E+02  0.36195531211E+01 -0.24859536952E+02  0.41242539177E+02  0.41800000000E+01 0.  1.
        -11    1    4    4    0    0  0.59626563043E+00 -0.12276014357E+02  0.16760272407E+00  0.12291629342E+02  0.00000000000E+00 0.  1.
         11    1    4    4    0    0 -0.60709436255E+02  0.39280224587E+02 -0.32034626165E+03  0.32840569278E+03  0.00000000000E+00 0. -1.
</event>
<event>
 8    1  0.6849590E-009  0.1334117E+03  0.7561462E-02  0.1222479E+00
          2   -1    0    0  501    0  0.00000000000E+00  0.00000000000E+00  0.77883892132E+03  0.77883892132E+03  0.00000000000E+00 0. -1.
         -2   -1    0    0    0  501 -0.00000000000E+00 -0.00000000000E+00 -0.30344224273E+02  0.30344224273E+02  0.00000000000E+00 0.  1.
         25    2    1    2    0    0  0.95265836832E+02 -0.41063429530E+02  0.48993514897E+03  0.51618394883E+03  0.12509050291E+03 0.  0.
         23    2    1    2    0    0 -0.95265836832E+02  0.41063429530E+02  0.25855954807E+03  0.29299919676E+03  0.90739762461E+02 0.  0.
          5    1    3    3  502    0 -0.27851704953E+02 -0.20812956986E+02  0.15044797783E+03  0.15446994232E+03  0.41800000000E+01 0.  1.
         -5    1    3    3    0  502  0.12311754179E+03 -0.20250472544E+02  0.33948717114E+03  0.36171400651E+03  0.41800000000E+01 0.  1.
        -11    1    4    4    0    0 -0.38086781096E+02  0.30548300570E+02  0.30322611676E+02  0.57474014483E+02  0.00000000000E+00 0.  1.
         11    1    4    4    0    0 -0.57179055736E+02  0.10515128961E+02  0.22823693639E+03  0.23552518228E+03  0.00000000000E+00 0. -1.
</event>
<event>
 8    1  0.6849590E-009  0.1197618E+03  0.7561462E-02  0.1243490E+00
          1   -1    0    0  501    0  0.00000000000E+00  0.00000000000E+00  0.81374243507E+02  0.81374243507E+02  0.00000000000E+00 0. -1.
         -1   -1    0    0    0  501 -0.00000000000E+00 -0.00000000000E+00 -0.20129905327E+03  0.20129905327E+03  0.00000000000E+00 0.  1.
         25    2    1    2    0    0 -0.20222439610E+02  0.48192723746E+02 -0.19735241779E+02  0.13699718987E+03  0.12508902661E+03 0.  0.
         23    2    1    2    0    0  0.20222439610E+02 -0.48192723746E+02 -0.10018956798E+03  0.14567610691E+03  0.91935264755E+02 0.  0.
          5    1    3    3  502    0 -0.25508330796E+02  0.88971996389E+02 -0.38921816632E+01  0.92732478451E+02  0.41800000000E+01 0. -1.
         -5    1    3    3    0  502  0.52858911855E+01 -0.40779272643E+02 -0.15843060116E+02  0.44264711416E+02  0.41800000000E+01 0. -1.
        -11    1    4    4    0    0 -0.36353784715E+02 -0.11590830412E+02 -0.31849056535E+02  0.49702187224E+02  0.00000000000E+00 0.  1.
         11    1    4    4    0    0  0.56576224325E+02 -0.36601893334E+02 -0.68340511448E+02  0.95973919684E+02  0.00000000000E+00 0. -1.
</event>
<event>
 8    1  0.6849590E-009  0.1029390E+03  0.7561462E-02  0.1274234E+00
         -1   -1    0    0    0  501 -0.00000000000E+00  0.00000000000E+00  0.14914637197E+03  0.14914637197E+03  0.00000000000E+00 0.  1.
          1   -1    0    0  501    0  0.00000000000E+00 -0.00000000000E+00 -0.93818296267E+02  0.93818296267E+02  0.00000000000E+00 0. -1.
         25    2    1    2    0    0  0.34781157887E+02 -0.80047678467E+01  0.60329513115E+02  0.14339072652E+03  0.12508974797E+03 0.  0.
         23    2    1    2    0    0 -0.34781157887E+02  0.80047678467E+01 -0.50014374115E+01  0.99573941717E+02  0.92823220375E+02 0.  0.
          5    1    3    3  502    0  0.70398043897E+02 -0.61259333399E+00  0.75895247567E+02  0.10360415464E+03  0.41800000000E+01 0. -1.
         -5    1    3    3    0  502 -0.35616886009E+02 -0.73921745127E+01 -0.15565734452E+02  0.39786571881E+02  0.41800000000E+01 0. -1.
        -11    1    4    4    0    0 -0.44413186114E+02 -0.33816417256E+02  0.30668387648E+01  0.55906052238E+02  0.00000000000E+00 0.  1.
         11    1    4    4    0    0  0.96320282270E+01  0.41821185102E+02 -0.80682761763E+01  0.43667889479E+02  0.00000000000E+00 0. -1.
</event>
<event>
 8    1  0.6849590E-009  0.1399183E+03  0.7561462E-02  0.1213439E+00
         -2   -1    0    0    0  501 -0.00000000000E+00  0.00000000000E+00  0.37522084974E+02  0.37522084974E+02  0.00000000000E+00 0. -1.
          2   -1    0    0  501    0  0.00000000000E+00 -0.00000000000E+00 -0.87111991939E+03  0.87111991939E+03  0.00000000000E+00 0.  1.
         25    2    1    2    0    0  0.82817995198E+02  0.45184014495E+02 -0.70939305085E+03  0.72648851790E+03  0.12508657222E+03 0.  0.
         23    2    1    2    0    0 -0.82817995198E+02 -0.45184014495E+02 -0.12420478356E+03  0.18215348646E+03  0.94088516176E+02 0.  0.
          5    1    3    3  502    0  0.10984001684E+03  0.58059673640E+02 -0.61264170450E+03  0.62512645561E+03  0.41800000000E+01 0.  1.
         -5    1    3    3    0  502 -0.27022021642E+02 -0.12875659145E+02 -0.96751346344E+02  0.10136206229E+03  0.41800000000E+01 0.  1.
        -11    1    4    4    0    0 -0.23220369056E+02 -0.59619101013E+02 -0.32307557318E+02  0.71675665359E+02  0.00000000000E+00 0. -1.
         11    1    4    4    0    0 -0.59597626142E+02  0.14435086518E+02 -0.91897226245E+02  0.11047782110E+03  0.00000000000E+00 0.  1.
</event>
<event>
 8    1  0.6849590E-009  0.1282679E+03  0.7561462E-02  0.1230049E+00
          1   -1    0    0  501    0  0.00000000000E+00  0.00000000000E+00  0.47526088074E+03  0.47526088074E+03  0.00000000000E+00 0. -1.
         -1   -1    0    0    0  501 -0.00000000000E+00 -0.00000000000E+00 -0.41931381310E+02  0.41931381310E+02  0.00000000000E+00 0.  1.
         25    2    1    2    0    0 -0.80488434086E+02  0.85901974309E+01  0.16990539432E+03  0.22597587864E+03  0.12508027501E+03 0.  0.
         23    2    1    2    0    0  0.80488434086E+02 -0.85901974309E+01  0.26342410511E+03  0.29121638341E+03  0.94141081884E+02 0.  0.
          5    1    3    3  502    0 -0.11063465237E+03  0.25811724188E+02  0.13616879773E+03  0.17738569640E+03  0.41800000000E+01 0. -1.
         -5    1    3    3    0  502  0.30146218289E+02 -0.17221526757E+02  0.33736596584E+02  0.48590182239E+02  0.41800000000E+01 0. -1.
        -11    1    4    4    0    0  0.61838144213E+02  0.27176723650E+02  0.86481274708E+02  0.10973395675E+03  0.00000000000E+00 0.  1.
         11    1    4    4    0    0  0.18650289873E+02 -0.35766921081E+02  0.17694283041E+03  0.18148242667E+03  0.00000000000E+00 0. -1.
</event>
<event>
 8    1  0.6849590E-009  0.1203296E+03  0.7561462E-02  0.1242554E+00
         -1   -1    0    0    0  501 -0.00000000000E+00  0.00000000000E+00  0.21531611622E+03  0.21531611622E+03  0.00000000000E+00 0.  1.
          1   -1    0    0  501    0  0.00000000000E+00 -0.00000000000E+00 -0.11313146644E+03  0.11313146644E+03  0.00000000000E+00 0. -1.
         25    2    1    2    0    0  0.80322958402E+02  0.62742250838E+00 -0.27613116366E+02  0.15123407336E+03  0.12512829194E+03 0.  0.
         23    2    1    2    0    0 -0.80322958402E+02 -0.62742250838E+00  0.12979776615E+03  0.17721350930E+03  0.90027753918E+02 0.  0.
          5    1    3    3  502    0 -0.27977591179E+02 -0.21707227187E+02 -0.18579981245E+02  0.40207429952E+02  0.41800000000E+01 0.  1.
         -5    1    3    3    0  502  0.10830054958E+03  0.22334649695E+02 -0.90331351217E+01  0.11102664341E+03  0.41800000000E+01 0.  1.
        -11    1    4    4    0    0 -0.74642353964E+02 -0.17392802571E+02  0.13788359346E+03  0.15775257821E+03  0.00000000000E+00 0.  1.
         11    1    4    4    0    0 -0.56806044381E+01  0.16765380063E+02 -0.80858273136E+01  0.19460931087E+02  0.00000000000E+00 0. -1.
</event>
<event>
 8    1  0.6849590E-009  0.1034879E+03  0.7561462E-02  0.1273128E+00
         -1   -1    0    0    0  501 -0.00000000000E+00  0.00000000000E+00  0.15889193329E+03  0.15889193329E+03  0.00000000000E+00 0.  1.
          1   -1    0    0  501    0  0.00000000000E+00 -0.00000000000E+00 -0.95331777804E+02  0.95331777804E+02  0.00000000000E+00 0. -1.
         25    2    1    2    0    0  0.40623197744E+01 -0.35486341148E+02  0.82357576761E+02  0.15396573979E+03  0.12508755226E+03 0.  0.
         23    2    1    2    0    0 -0.40623197744E+01  0.35486341148E+02 -0.18797421272E+02  0.10025797130E+03  0.91774369588E+02 0.  0.
          5    1    3    3  502    0  0.96381713675E+01 -0.72893126810E+02  0.12898475467E+02  0.74767274612E+02  0.41800000000E+01 0.  1.
         -5    1    3    3    0  502 -0.55758515931E+01  0.37406785662E+02  0.69459101294E+02  0.79198465182E+02  0.41800000000E+01 0.  1.
        -11    1    4    4    0    0 -0.33407381958E+02  0.51849705144E+02 -0.24141996335E+02  0.66236553955E+02  0.00000000000E+00 0. -1.
         11    1    4    4    0    0  0.29345062183E+02 -0.16363363996E+02  0.53445750627E+01  0.34021417348E+02  0.00000000000E+00 0.  1.
</event>
<event>
 8    1  0.6849590E-009  0.1193052E+03  0.7561462E-02  0.1244248E+00
          1   -1    0    0  501    0  0.00000000000E+00  0.00000000000E+00  0.64960214586E+02  0.64960214586E+02  0.00000000000E+00 0. -1.
         -1   -1    0    0    0  501 -0.00000000000E+00 -0.00000000000E+00 -0.37978732725E+03  0.37978732725E+03  0.00000000000E+00 0.  1.
         25    2    1    2    0    0 -0.95104355431E+02 -0.83935131664E+01 -0.25985554760E+03  0.30378759566E+03  0.12508680255E+03 0.  0.
         23    2    1    2    0    0  0.95104355431E+02  0.83935131664E+01 -0.54971565060E+02  0.14095994617E+03  0.87934884857E+02 0.  0.
          5    1    3    3  502    0  0.48115097540E+01 -0.36843235080E+02 -0.14100317886E+03  0.14587646639E+03  0.41800000000E+01 0. -1.
         -5    1    3    3    0  502 -0.99915865185E+02  0.28449721914E+02 -0.11885236874E+03  0.15791112927E+03  0.41800000000E+01 0. -1.
        -11    1    4    4    0    0  0.19727350979E+02  0.94279144153E+01 -0.61522047932E+02  0.65291778415E+02  0.00000000000E+00 0.  1.
         11    1    4    4    0    0  0.75377004451E+02 -0.10344012490E+01  0.65504828717E+01  0.75668167758E+02  0.00000000000E+00 0. -1.
</event>
<event>
 8    1  0.6849590E-009  0.1285036E+03  0.7561462E-02  0.1229693E+00
          2   -1    0    0  501    0  0.00000000000E+00  0.00000000000E+00  0.47193777951E+02  0.47193777951E+02  0.00000000000E+00 0. -1.
         -2   -1    0    0    0  501 -0.00000000000E+00 -0.00000000000E+00 -0.63411824464E+03  0.63411824464E+03  0.00000000000E+00 0.  1.
         25    2    1    2    0    0  0.77671540873E+02 -0.40961119729E+02 -0.50340060884E+03  0.52608960225E+03  0.12508962795E+03 0.  0.
         23    2    1    2    0    0 -0.77671540873E+02  0.40961119729E+02 -0.83523857849E+02  0.15522242034E+03  0.96990119889E+02 0.  0.
          5    1    3    3  502    0  0.58028735269E+02 -0.80990997748E+02 -0.41716263509E+03  0.42891609011E+03  0.41800000000E+01 0. -1.
         -5    1    3    3    0  502  0.19642805605E+02  0.40029878019E+02 -0.86237973746E+02  0.97173512142E+02  0.41800000000E+01 0. -1.
        -11    1    4    4    0    0 -0.13556945212E+02 -0.19913541055E+02  0.10395012876E+02  0.26237304997E+02  0.00000000000E+00 0. -1.
         11    1    4    4    0    0 -0.64114595661E+02  0.60874660784E+02 -0.93918870725E+02  0.12898511535E+03  0.00000000000E+00 0.  1.
</event>
<event>
 8    1  0.6849590E-009  0.1139856E+03  0.7561462E-02  0.1253362E+00
         -2   -1    0    0    0  501 -0.00000000000E+00  0.00000000000E+00  0.19596723892E+02  0.19596723892E+02  0.00000000000E+00 0.  1.
          2   -1    0    0  501    0  0.00000000000E+00 -0.00000000000E+00 -0.12631051649E+04  0.12631051649E+04  0.00000000000E+00 0. -1.
         25    2    1    2    0    0  0.96943302459E+02 -0.31991779650E+02 -0.88543230637E+03  0.90003333123E+03  0.12509256695E+03 0.  0.
         23    2    1    2    0    0 -0.96943302459E+02  0.31991779650E+02 -0.35807613463E+03  0.38266855755E+03  0.88290593444E+02 0.  0.
          5    1    3    3  502    0  0.78173273449E+02 -0.30829464373E+02 -0.24012650816E+03  0.25444003002E+03  0.41800000000E+01 0. -1.
         -5    1    3    3    0  502  0.18770029010E+02 -0.11623152761E+01 -0.64530579822E+03  0.64559330122E+03  0.41800000000E+01 0. -1.
        -11    1    4    4    0    0 -0.46910247667E+02  0.52581479010E+02 -0.27217605718E+03  0.28114976324E+03  0.00000000000E+00 0. -1.
         11    1    4    4    0    0 -0.50033054792E+02 -0.20589699361E+02 -0.85900077451E+02  0.10151879431E+03  0.00000000000E+00 0.  1.
</event>
<event>
 8    1  0.6849590E-009  0.1447716E+03  0.7561462E-02  0.1207049E+00
         -4   -1    0    0    0  501 -0.00000000000E+00  0.00000000000E+00  0.24301087636E+03  0.24301087636E+03  0.00000000000E+00 0.  1.
          4   -1    0    0  501    0  0.00000000000E+00 -0.00000000000E+00 -0.14683066808E+03  0.14683066808E+03  0.00000000000E+00 0. -1.
         25    2    1    2    0    0  0.88580864893E+02  0.73914194442E+02 -0.55373740577E+02  0.17895076740E+03  0.12508896131E+03 0.  0.
         23    2    1    2    0    0 -0.88580864893E+02 -0.73914194442E+02  0.15155394885E+03  0.21089077704E+03  0.90534207129E+02 0.  0.
          5    1    3    3  502    0 -0.27754486759E+02  0.29211292327E+02 -0.33023523583E+02  0.52265061413E+02  0.41800000000E+01 0. -1.
         -5    1    3    3    0  502  0.11633535165E+03  0.44702902115E+02 -0.22350216994E+02  0.12668570599E+03  0.41800000000E+01 0. -1.
        -11    1    4    4    0    0 -0.12893651404E+01 -0.23490468402E+02  0.89440607830E+02  0.92482900567E+02  0.00000000000E+00 0.  1.
         11    1    4    4    0    0 -0.87291499752E+02 -0.50423726040E+02  0.62113341023E+02  0.11840787647E+03  0.00000000000E+00 0. -1.
</event>
<event>
 8    1  0.6849590E-009  0.1169125E+03  0.7561462E-02  0.1248279E+00
         -1   -1    0    0    0  501 -0.00000000000E+00  0.00000000000E+00  0.28739120528E+02  0.28739120528E+02  0.00000000000E+00 0.  1.
          1   -1    0    0  501    0  0.00000000000E+00 -0.00000000000E+00 -0.70391265159E+03  0.70391265159E+03  0.00000000000E+00 0. -1.
         25    2    1    2    0    0  0.90077143216E+02 -0.34962982402E+01 -0.45950790362E+03  0.48468637164E+03  0.12508896646E+03 0.  0.
         23    2    1    2    0    0 -0.90077143216E+02  0.34962982402E+01 -0.21566562744E+03  0.24796540048E+03  0.82759054757E+02 0.  0.
          5    1    3    3  502    0  0.25814681118E+02 -0.32374316548E+02 -0.35077164566E+02  0.54427695222E+02  0.41800000000E+01 0. -1.
         -5    1    3    3    0  502  0.64262462097E+02  0.28878018308E+02 -0.42443073906E+03  0.43025867642E+03  0.41800000000E+01 0. -1.
        -11    1    4    4    0    0 -0.33184124790E+02 -0.38566253988E+02 -0.10387417790E+03  0.11566497706E+03  0.00000000000E+00 0. -1.
         11    1    4    4    0    0 -0.56893018425E+02  0.42062552228E+02 -0.11179144954E+03  0.13230042341E+03  0.00000000000E+00 0.  1.
</event>
<event>
 8    1  0.6849590E-009  0.9886742E+02  0.7561462E-02  0.1282696E+00
          1   -1    0    0  501    0  0.00000000000E+00  0.00000000000E+00  0.66203250380E+03  0.66203250380E+03  0.00000000000E+00 0. -1.
         -1   -1    0    0    0  501 -0.00000000000E+00 -0.00000000000E+00 -0.24970755421E+02  0.24970755421E+02  0.00000000000E+00 0.  1.
         25    2    1    2    0    0 -0.82982804535E+02 -0.30918481082E+02  0.37568623413E+03  0.40574494536E+03  0.12508683323E+03 0.  0.
         23    2    1    2    0    0  0.82982804535E+02  0.30918481082E+02  0.26137551425E+03  0.28125831386E+03  0.54286106397E+02 0.  0.
          5    1    3    3  502    0 -0.25091325365E+02  0.10124630991E+02  0.44178147710E+01  0.27732151893E+02  0.41800000000E+01 0. -1.
         -5    1    3    3    0  502 -0.57891479170E+02 -0.41043112072E+02  0.37126841936E+03  0.37801279347E+03  0.41800000000E+01 0. -1.
        -11    1    4    4    0    0  0.66165046014E+02  0.42689563557E+02  0.23496673854E+03  0.24780956473E+03  0.00000000000E+00 0.  1.
         11    1    4    4    0    0  0.16817758521E+02 -0.11771082475E+02  0.26408775712E+02  0.33448749139E+02  0.00000000000E+00 0. -1.
</event>
<event>
 8    1  0.6849590E-009  0.1283333E+03  0.7561462E-02  0.1229950E+00
         -1   -1    0    0    0  501 -0.00000000000E+00  0.00000000000E+00  0.13410607895E+03  0.13410607895E+03  0.00000000000E+00 0.  1.
          1   -1    0    0  501    0  0.00000000000E+00 -0.00000000000E+00 -0.13923781187E+03  0.13923781187E+03  0.00000000000E+00 0. -1.
         25    2    1    2    0    0  0.68979086086E+02 -0.15671907465E+02  0.42365888580E+02  0.14982023048E+03  0.12509000737E+03 0.  0.
         23    2    1    2    0    0 -0.68979086086E+02  0.15671907465E+02 -0.47497621501E+02  0.12352366034E+03  0.89433481506E+02 0.  0.
          5    1    3    3  502    0 -0.14941144106E+02 -0.50425658088E+02  0.14386293246E+02  0.54684756689E+02  0.41800000000E+01 0. -1.
         -5    1    3    3    0  502  0.83920230191E+02  0.34753750624E+02  0.27979595334E+02  0.95135473788E+02  0.41800000000E+01 0. -1.
        -11    1    4    4    0    0  0.20660008566E+02  0.10542231745E+02 -0.16783963282E+02  0.28629984763E+02  0.00000000000E+00 0. -1.
         11    1    4    4    0    0 -0.89639094651E+02  0.51296757194E+01 -0.30713658219E+02  0.94893675575E+02  0.00000000000E+00 0.  1.
</event>
<event>
 7    1  0.6849590E-009  0.8376974E+02  0.7561462E-02  0.1318682E+00
         -2   -1    0    0    0  501 -0.00000000000E+00  0.00000000000E+00  0.50998858562E+02  0.50998858562E+02  0.00000000000E+00 0.  1.
          2   -1    0    0  501    0  0.00000000000E+00 -0.00000000000E+00 -0.36797771599E+03  0.36797771599E+03  0.00000000000E+00 0. -1.
         25    2    1    2    0    0 -0.44678337279E+02  0.27014005886E+02 -0.33169422858E+03  0.35832691110E+03  0.12510477055E+03 0.  0.
          5    1    3    3  502    0 -0.19217337830E+02  0.62571806662E+02 -0.83027617962E+02  0.10580923781E+03  0.41800000000E+01 0.  1.
         -5    1    3    3    0  502 -0.25460999449E+02 -0.35557800776E+02 -0.24866661062E+03  0.25251767329E+03  0.41800000000E+01 0.  1.
        -11    1    1    2    0    0  0.25375974023E+02 -0.70402531653E+00  0.11472372656E+02  0.27857692719E+02  0.00000000000E+00 0.  1.
         11    1    1    2    0    0  0.19302363256E+02 -0.26309980570E+02  0.32429984973E+01  0.32791970726E+02  0.00000000000E+00 0. -1.
</event>
<event>
 8    1  0.6849590E-009  0.1108697E+03  0.7561462E-02  0.1258968E+00
          1   -1    0    0  501    0  0.00000000000E+00  0.00000000000E+00  0.20606940979E+03  0.20606940979E+03  0.00000000000E+00 0. -1.
         -1   -1    0    0    0  501 -0.00000000000E+00 -0.00000000000E+00 -0.74360854134E+02  0.74360854134E+02  0.00000000000E+00 0.  1.
         25    2    1    2    0    0 -0.27255052841E+02  0.18681725451E+01  0.13363692528E+03  0.18507281883E+03  0.12508713962E+03 0.  0.
         23    2    1    2    0    0  0.27255052841E+02 -0.18681725451E+01 -0.19283696151E+01  0.95357445097E+02  0.91340000833E+02 0.  0.
          5    1    3    3  502    0 -0.18086390598E+02 -0.60470403734E+02  0.81603400806E+02  0.10324909044E+03  0.41800000000E+01 0.  1.
         -5    1    3    3    0  502 -0.91686622428E+01  0.62338576279E+02  0.52033524469E+02  0.81823728396E+02  0.41800000000E+01 0.  1.
        -11    1    4    4    0    0 -0.20443943980E+02 -0.32682236847E+02 -0.49682698882E+00  0.38552954334E+02  0.00000000000E+00 0.  1.
         11    1    4    4    0    0  0.47698996821E+02  0.30814064302E+02 -0.14315426262E+01  0.56804490763E+02  0.00000000000E+00 0. -1.
</event>
<event>
 8    1  0.6849590E-009  0.1570626E+03  0.7561462E-02  0.1192054E+00
          1   -1    0    0  501    0  0.00000000000E+00  0.00000000000E+00  0.59677293543E+03  0.59677293543E+03  0.00000000000E+00 0. -1.
         -1   -1    0    0    0  501 -0.00000000000E+00 -0.00000000000E+00 -0.54283707329E+02  0.54283707329E+02  0.00000000000E+00 0.  1.
         25    2    1    2    0    0  0.11576255249E+03 -0.70379805645E+02  0.20801570830E+03  0.27798106859E+03  0.12509458020E+03 0.  0.
         23    2    1    2    0    0 -0.11576255249E+03  0.70379805645E+02  0.33447351980E+03  0.37307557416E+03  0.94649685627E+02 0.  0.
          5    1    3    3  502    0  0.13314618565E+03 -0.68281386271E+02  0.21202076941E+03  0.25953907900E+03  0.41800000000E+01 0. -1.
         -5    1    3    3    0  502 -0.17383633159E+02 -0.20984193739E+01 -0.40050611136E+01  0.18441989595E+02  0.41800000000E+01 0. -1.
        -11    1    4    4    0    0 -0.39395257014E+02  0.56397698710E+02  0.72949950702E+02  0.10027154134E+03  0.00000000000E+00 0.  1.
         11    1    4    4    0    0 -0.76367295478E+02  0.13982106935E+02  0.26152356909E+03  0.27280403282E+03  0.00000000000E+00 0. -1.
</event>
<event>
 8    1  0.6849590E-009  0.1842557E+03  0.7561462E-02  0.1163747E+00
         -2   -1    0    0    0  501 -0.00000000000E+00  0.00000000000E+00  0.51505607701E+02  0.51505607701E+02  0.00000000000E+00 0.  1.
          2   -1    0    0  501    0  0.00000000000E+00 -0.00000000000E+00 -0.67732821411E+03  0.67732821411E+03  0.00000000000E+00 0. -1.
         25    2    1    2    0    0 -0.52876917352E+02  0.14187850860E+03 -0.35172413661E+03  0.40284346199E+03  0.12508999562E+03 0.  0.
         23    2    1    2    0    0  0.52876917352E+02 -0.14187850860E+03 -0.27409846980E+03  0.32599035982E+03  0.90632576682E+02 0.  0.
          5    1    3    3  502    0  0.21128759385E+02  0.11014533703E+03 -0.16608495580E+03  0.20044975602E+03  0.41800000000E+01 0. -1.
         -5    1    3    3    0  502 -0.74005676737E+02  0.31733171570E+02 -0.18563918080E+03  0.20239370597E+03  0.41800000000E+01 0. -1.
        -11    1    4    4    0    0  0.16787142310E+02 -0.13837535824E+03 -0.20407546497E+03  0.24713628490E+03  0.00000000000E+00 0.  1.
         11    1    4    4    0    0  0.36089775042E+02 -0.35031503678E+01 -0.70023004832E+02  0.78854074916E+02  0.00000000000E+00 0. -1.
</event>
<event>
 8    1  0.6849590E-009  0.2092354E+03  0.7561462E-02  0.1142173E+00
         -2   -1    0    0    0  501 -0.00000000000E+00  0.00000000000E+00  0.11799099997E+03  0.11799099997E+03  0.00000000000E+00 0.  1.
          2   -1    0    0  501    0  0.00000000000E+00 -0.00000000000E+00 -0.47332105002E+03  0.47332105002E+03  0.00000000000E+00 0. -1.
         25    2    1    2    0    0 -0.80478584093E+02  0.17137011744E+03 -0.68960583548E+02  0.23716726556E+03  0.12509288597E+03 0.  0.
         23    2    1    2    0    0  0.80478584093E+02 -0.17137011744E+03 -0.28636946650E+03  0.35414478443E+03  0.86985845669E+02 0.  0.
          5    1    3    3  502    0 -0.30426739269E+02  0.17125065969E+03 -0.68378684532E+02  0.18693766824E+03  0.41800000000E+01 0.  1.
         -5    1    3    3    0  502 -0.50051844824E+02  0.11945774640E+00 -0.58189901572E+00  0.50229597320E+02  0.41800000000E+01 0.  1.
        -11    1    4    4    0    0 -0.22910422979E+01 -0.32612276909E+02 -0.10309384143E+02  0.34279627790E+02  0.00000000000E+00 0.  1.
         11    1    4    4    0    0  0.82769626391E+02 -0.13875784053E+03 -0.27606008236E+03  0.31986515664E+03  0.00000000000E+00 0. -1.
</event>
<event>
 8    1  0.6849590E-009  0.9545690E+02  0.7561462E-02  0.1290150E+00
          3   -1    0    0  501    0  0.00000000000E+00  0.00000000000E+00  0.39598205119E+03  0.39598205119E+03  0.00000000000E+00 0. -1.
         -3   -1    0    0    0  501 -0.00000000000E+00 -0.00000000000E+00 -0.57184049494E+02  0.57184049494E+02  0.00000000000E+00 0.  1.
         25    2    1    2    0    0 -0.42138819128E+02 -0.84922350426E+02  0.23653803791E+03  0.28387239267E+03  0.12508319737E+03 0.  0.
         23    2    1    2    0    0  0.42138819128E+02  0.84922350426E+02  0.10225996379E+03  0.16929370802E+03  0.95998821347E+02 0.  0.
          5    1    3    3  502    0 -0.27853558680E+02 -0.45239338639E+02  0.11035089816E+02  0.54421173259E+02  0.41800000000E+01 0. -1.
         -5    1    3    3    0  502 -0.14285260447E+02 -0.39683011787E+02  0.22550294809E+03  0.22945121941E+03  0.41800000000E+01 0. -1.
        -11    1    4    4    0    0  0.90374943975E+01  0.27663366770E+02 -0.16430329745E+02  0.33419962621E+02  0.00000000000E+00 0.  1.
         11    1    4    4    0    0  0.33101324731E+02  0.57258983656E+02  0.11869029354E+03  0.13587374540E+03  0.00000000000E+00 0. -1.
</event>
<event>
 8    1  0.6849590E-009  0.1109558E+03  0.7561462E-02  0.1258810E+00
          2   -1    0    0  501    0  0.00000000000E+00  0.00000000000E+00  0.16187269269E+03  0.16187269269E+03  0.00000000000E+00 0. -1.
         -2   -1    0    0    0  501 -0.00000000000E+00 -0.00000000000E+00 -0.11856098480E+03  0.11856098480E+03  0.00000000000E+00 0.  1.
         25    2    1    2    0    0  0.17432198859E+02  0.72334935821E+02 -0.18627249649E+02  0.14673515855E+03  0.12509199746E+03 0.  0.
         23    2    1    2    0    0 -0.17432198859E+02 -0.72334935821E+02  0.61938957544E+02  0.13369851894E+03  0.92209733804E+02 0.  0.
          5    1    3    3  502    0 -0.46906764885E+02  0.25072573682E+02 -0.36726159248E+02  0.64770068057E+02  0.41800000000E+01 0.  1.
         -5    1    3    3    0  502  0.64338963744E+02  0.47262362138E+02  0.18098909599E+02  0.81965090491E+02  0.41800000000E+01 0.  1.
        -11    1    4    4    0    0  0.15128845516E+02 -0.95457602577E+01  0.60355841185E+02  0.62951021205E+02  0.00000000000E+00 0. -1.
         11    1    4    4    0    0 -0.32561044374E+02 -0.62789175563E+02  0.15831163590E+01  0.70747497737E+02  0.00000000000E+00 0.  1.
</event>
<event>
 8    1  0.6849590E-009  0.1139355E+03  0.7561462E-02  0.1253451E+00
          2   -1    0    0  501    0  0.00000000000E+00  0.00000000000E+00  0.20476052248E+04  0.20476052248E+04  0.00000000000E+00 0. -1.
         -2   -1    0    0    0  501 -0.00000000000E+00 -0.00000000000E+00 -0.79049802152E+01  0.79049802152E+01  0.00000000000E+00 0.  1.
         25    2    1    2    0    0 -0.32533234710E+02  0.11066294416E+02  0.15826255388E+04  0.15879334908E+04  0.12509316958E+03 0.  0.
         23    2    1    2    0    0  0.32533234710E+02 -0.11066294416E+02  0.45707470585E+03  0.46757671423E+03  0.92357039406E+02 0.  0.
          5    1    3    3  502    0  0.46131603093E+02 -0.11527040689E+02  0.56311042879E+03  0.56512991859E+03  0.41800000000E+01 0.  1.
         -5    1    3    3    0  502 -0.78664837803E+02  0.22593335106E+02  0.10195151100E+04  0.10228035722E+04  0.41800000000E+01 0.  1.
        -11    1    4    4    0    0  0.28652220845E+01 -0.49528301033E+02  0.25081029109E+03  0.25566983439E+03  0.00000000000E+00 0.  1.
         11    1    4    4    0    0  0.29668012625E+02  0.38462006617E+02  0.20626441476E+03  0.21190687984E+03  0.00000000000E+00 0. -1.
</event>
<event>
 8    1  0.6849590E-009  0.9914032E+02  0.7561462E-02  0.1282114E+00
          1   -1    0    0  501    0  0.00000000000E+00  0.00000000000E+00  0.28054360705E+02  0.28054360705E+02  0.00000000000E+00 0. -1.
         -1   -1    0    0    0  501 -0.00000000000E+00 -0.00000000000E+00 -0.58115280773E+03  0.58115280773E+03  0.00000000000E+00 0.  1.
         25    2    1    2    0    0 -0.64068550205E+02 -0.19171407995E+02 -0.33020770795E+03  0.35938483248E+03  0.12509198783E+03 0.  0.
         23    2    1    2    0    0  0.64068550205E+02  0.19171407995E+02 -0.22289073908E+03  0.24982233595E+03  0.90876817536E+02 0.  0.
          5    1    3    3  502    0  0.18520548934E+02 -0.33545940843E+02 -0.20535462451E+03  0.20894098470E+03  0.41800000000E+01 0.  1.
         -5    1    3    3    0  502 -0.82589099139E+02  0.14374532848E+02 -0.12485308345E+03  0.15044384779E+03  0.41800000000E+01 0.  1.
        -11    1    4    4    0    0  0.54966390932E+02  0.29212561390E+02 -0.22722235243E+03  0.23559430239E+03  0.00000000000E+00 0.  1.
         11    1    4    4    0    0  0.91021592724E+01 -0.10041153395E+02  0.43316133508E+01  0.14228033566E+02  0.00000000000E+00 0. -1.
</event>
<event>
 8    1  0.6849590E-009  0.2467651E+03  0.7561462E-02  0.1115366E+00
          2   -1    0    0  501    0  0.00000000000E+00  0.00000000000E+00  0.59381899852E+03  0.59381899852E+03  0.00000000000E+00 0. -1.
         -2   -1    0    0    0  501 -0.00000000000E+00 -0.00000000000E+00 -0.11525401176E+03  0.11525401176E+03  0.00000000000E+00 0.  1.
         25    2    1    2    0    0  0.81784230420E+01 -0.23726840737E+03  0.25103069619E+03  0.36746090175E+03  0.12509164698E+03 0.  0.
         23    2    1    2    0    0 -0.81784230420E+01  0.23726840737E+03  0.22753429058E+03  0.34161210853E+03  0.92540777859E+02 0.  0.
          5    1    3    3  502    0  0.23560521922E+02 -0.17537983556E+03  0.99614144264E+02  0.20310990880E+03  0.41800000000E+01 0. -1.
         -5    1    3    3    0  502 -0.15382098880E+02 -0.61888571812E+02  0.15141655192E+03  0.16435099295E+03  0.41800000000E+01 0. -1.
        -11    1    4    4    0    0 -0.47163723515E+02  0.14407130124E+03  0.15805639565E+03  0.21900406586E+03  0.00000000000E+00 0. -1.
         11    1    4    4    0    0  0.38985300473E+02  0.93197106133E+02  0.69477894924E+02  0.12260804267E+03  0.00000000000E+00 0.  1.
</event>
<event>
 8    1  0.6849590E-009  0.8769433E+02  0.7561462E-02  0.1308533E+00
          1   -1    0    0  501    0  0.00000000000E+00  0.00000000000E+00  0.74137305752E+03  0.74137305752E+03  0.00000000000E+00 0. -1.
         -1   -1    0    0    0  501 -0.00000000000E+00 -0.00000000000E+00 -0.17176549367E+02  0.17176549367E+02  0.00000000000E+00 0.  1.
         25    2    1    2    0    0  0.26611261552E+02 -0.97255291115E+01  0.45392702702E+03  0.47169824279E+03  0.12508693472E+03 0.  0.
         23    2    1    2    0    0 -0.26611261552E+02  0.97255291115E+01  0.27026948114E+03  0.28685136410E+03  0.91844256716E+02 0.  0.
          5    1    3    3  502    0  0.28554256131E+02 -0.45130904518E+02  0.81282223404E+02  0.97346886583E+02  0.41800000000E+01 0.  1.
         -5    1    3    3    0  502 -0.19429945793E+01  0.35405375407E+02  0.37264480361E+03  0.37435135621E+03  0.41800000000E+01 0.  1.
        -11    1    4    4    0    0 -0.54587189620E+02 -0.44219235271E+01  0.10285240344E+03  0.11652438188E+03  0.00000000000E+00 0.  1.
         11    1    4    4    0    0  0.27975928068E+02  0.14147452639E+02  0.16741707770E+03  0.17032698222E+03  0.00000000000E+00 0. -1.
</event>
<event>
 8    1  0.6849590E-009  0.1007826E+03  0.7561462E-02  0.1278659E+00
          3   -1    0    0  501    0  0.00000000000E+00  0.00000000000E+00  0.64219472715E+03  0.64219472715E+03  0.00000000000E+00 0. -1.
         -3   -1    0    0    0  501 -0.00000000000E+00 -0.00000000000E+00 -0.24308518258E+02  0.24308518258E+02  0.00000000000E+00 0.  1.
         25    2    1    2    0    0 -0.28468506290E+01  0.32310573376E+02  0.47736522600E+03  0.49454192779E+03  0.12506830789E+03 0.  0.
         23    2    1    2    0    0  0.28468506290E+01 -0.32310573376E+02  0.14052098289E+03  0.17196131762E+03  0.93661467069E+02 0.  0.
          5    1    3    3  502    0 -0.56773818705E+02 -0.47514124867E+01  0.30121932593E+03  0.30658831864E+03  0.41800000000E+01 0.  1.
         -5    1    3    3    0  502  0.53926968076E+02  0.37061985863E+02  0.17614590007E+03  0.18795360915E+03  0.41800000000E+01 0.  1.
        -11    1    4    4    0    0 -0.16711730879E+02  0.18198740726E+02  0.10336751517E+03  0.10627943971E+03  0.00000000000E+00 0. -1.
         11    1    4    4    0    0  0.19558581508E+02 -0.50509314102E+02  0.37153467725E+02  0.65681877909E+02  0.00000000000E+00 0.  1.
</event>
<event>
 8    1  0.6849590E-009  0.1133153E+03  0.7561462E-02  0.1254551E+00
          2   -1    0    0  501    0  0.00000000000E+00  0.00000000000E+00  0.12447032492E+03  0.12447032492E+03  0.00000000000E+00 0.  1.
         -2   -1    0    0    0  501 -0.00000000000E+00 -0.00000000000E+00 -0.11634547825E+03  0.11634547825E+03  0.00000000000E+00 0. -1.
         25    2    1    2    0    0  0.51628806341E+02 -0.15289270217E+01  0.75314242920E+01  0.13554331783E+03  0.12508955750E+03 0.  0.
         23    2    1    2    0    0 -0.51628806341E+02  0.15289270217E+01  0.59342238352E+00  0.10527248534E+03  0.91728254952E+02 0.  0.
          5    1    3    3  502    0  0.27955248996E+02 -0.60694941871E+02 -0.13508954208E+02  0.68303266093E+02  0.41800000000E+01 0. -1.
         -5    1    3    3    0  502  0.23673557345E+02  0.59166014849E+02  0.21040378500E+02  0.67240051740E+02  0.41800000000E+01 0. -1.
        -11    1    4    4    0    0 -0.62328373529E+02 -0.25040493133E+02 -0.19896654285E+02  0.70055187494E+02  0.00000000000E+00 0. -1.
         11    1    4    4    0    0  0.10699567188E+02  0.26569420154E+02  0.20490076669E+02  0.35217297841E+02  0.00000000000E+00 0.  1.
</event>
<event>
 8    1  0.6849590E-009  0.9957583E+02  0.7561462E-02  0.1281190E+00
         -1   -1    0    0    0  501 -0.00000000000E+00  0.00000000000E+00  0.15875708396E+04  0.15875708396E+04  0.00000000000E+00 0.  1.
          1   -1    0    0  501    0  0.00000000000E+00 -0.00000000000E+00 -0.11256124234E+02  0.11256124234E+02  0.00000000000E+00 0. -1.
         25    2    1    2    0    0 -0.37544559943E+02  0.29728363308E+02  0.12400628774E+04  0.12472756064E+04  0.12508848334E+03 0.  0.
         23    2    1    2    0    0  0.37544559943E+02 -0.29728363308E+02  0.33625183790E+03  0.35155135744E+03  0.90717632588E+02 0.  0.
          5    1    3    3  502    0  0.80227810299E+01  0.48743724238E+02  0.10395178911E+04  0.10406993965E+04  0.41800000000E+01 0.  1.
         -5    1    3    3    0  502 -0.45567340973E+02 -0.19015360930E+02  0.20054498635E+03  0.20657620983E+03  0.41800000000E+01 0.  1.
        -11    1    4    4    0    0  0.35368859271E+02  0.26222990386E+02  0.18775504114E+03  0.19284853358E+03  0.00000000000E+00 0.  1.
         11    1    4    4    0    0  0.21757006725E+01 -0.55951353695E+02  0.14849679676E+03  0.15870282386E+03  0.00000000000E+00 0. -1.
</event>
<event>
 8    1  0.6849590E-009  0.1491445E+03  0.7561462E-02  0.1201528E+00
         -1   -1    0    0    0  501 -0.00000000000E+00  0.00000000000E+00  0.45209861437E+02  0.45209861437E+02  0.00000000000E+00 0.  1.
          1   -1    0    0  501    0  0.00000000000E+00 -0.00000000000E+00 -0.54207915645E+03  0.54207915645E+03  0.00000000000E+00 0. -1.
         25    2    1    2    0    0  0.73595776058E+02  0.84582787055E+02 -0.24807571623E+03  0.29959749531E+03  0.12508601877E+03 0.  0.
         23    2    1    2    0    0 -0.73595776058E+02 -0.84582787055E+02 -0.24879357878E+03  0.28769152258E+03  0.91091059938E+02 0.  0.
          5    1    3    3  502    0 -0.20285529455E+02  0.61148848605E+02 -0.60426637627E+02  0.88428136506E+02  0.41800000000E+01 0.  1.
         -5    1    3    3    0  502  0.93881305514E+02  0.23433938450E+02 -0.18764907860E+03  0.21116935880E+03  0.41800000000E+01 0.  1.
        -11    1    4    4    0    0 -0.83587262416E+02 -0.42786353351E+02 -0.12291160158E+03  0.15467632099E+03  0.00000000000E+00 0. -1.
         11    1    4    4    0    0  0.99914863580E+01 -0.41796433703E+02 -0.12588197720E+03  0.13301520159E+03  0.00000000000E+00 0.  1.
</event>
<event>
 8    1  0.6849590E-009  0.1255602E+03  0.7561462E-02  0.1234196E+00
          2   -1    0    0  501    0  0.00000000000E+00  0.00000000000E+00  0.46801060597E+02  0.46801060597E+02  0.00000000000E+00 0. -1.
         -2   -1    0    0    0  501 -0.00000000000E+00 -0.00000000000E+00 -0.49975122963E+03  0.49975122963E+03  0.00000000000E+00 0.  1.
         25    2    1    2    0    0  0.97081750982E+02 -0.99613659527E-01 -0.32713540539E+03  0.36343967504E+03  0.12508376248E+03 0.  0.
         23    2    1    2    0    0 -0.97081750982E+02  0.99613659527E-01 -0.12581476365E+03  0.18311261520E+03  0.90972516698E+02 0.  0.
          5    1    3    3  502    0  0.87886615062E+00  0.43700903981E+02 -0.48631509326E+02  0.65521275276E+02  0.41800000000E+01 0.  1.
         -5    1    3    3    0  502  0.96202884831E+02 -0.43800517641E+02 -0.27850389606E+03  0.29791839976E+03  0.41800000000E+01 0.  1.
        -11    1    4    4    0    0 -0.49951394227E+02  0.14724802029E+02 -0.12313281986E+03  0.13369238164E+03  0.00000000000E+00 0.  1.
         11    1    4    4    0    0 -0.47130356755E+02 -0.14625188370E+02 -0.26819437898E+01  0.49420233561E+02  0.00000000000E+00 0. -1.
</event>
<event>
 8    1  0.6849590E-009  0.8904416E+02  0.7561462E-02  0.1305183E+00
          1   -1    0    0  501    0  0.00000000000E+00  0.00000000000E+00  0.12137638732E+03  0.12137638732E+03  0.00000000000E+00 0. -1.
         -1   -1    0    0    0  501 -0.00000000000E+00 -0.00000000000E+00 -0.10149247945E+03  0.10149247945E+03  0.00000000000E+00 0.  1.
         25    2    1    2    0    0  0.22445486611E+02 -0.91339597365E+01  0.21239193408E+02  0.12917490814E+03  0.12509126455E+03 0.  0.
         23    2    1    2    0    0 -0.22445486611E+02  0.91339597365E+01 -0.13552855416E+01  0.93693958637E+02  0.90495812038E+02 0.  0.
          5    1    3    3  502    0 -0.33143539552E+02 -0.43949762410E+02  0.30064296723E+02  0.62860243138E+02  0.41800000000E+01 0.  1.
         -5    1    3    3    0  502  0.55589026163E+02  0.34815802674E+02 -0.88251033144E+01  0.66314665000E+02  0.41800000000E+01 0.  1.
        -11    1    4    4    0    0 -0.24612669202E+02  0.28508677520E+02 -0.37170353334E+02  0.52916569675E+02  0.00000000000E+00 0.  1.
         11    1    4    4    0    0  0.21671825909E+01 -0.19374717783E+02  0.35815067793E+02  0.40777388962E+02  0.00000000000E+00 0. -1.
</event>
<event>
 8    1  0.6849590E-009  0.1106237E+03  0.7561462E-02  0.1259419E+00
          2   -1    0    0  501    0  0.00000000000E+00  0.00000000000E+00  0.24742691619E+03  0.24742691619E+03  0.00000000000E+00 0. -1.
         -2   -1    0    0    0  501 -0.00000000000E+00 -0.00000000000E+00 -0.54512844382E+02  0.54512844382E+02  0.00000000000E+00 0.  1.
         25    2    1    2    0    0  0.25767441581E+02 -0.31017004279E+02  0.13021455778E+03  0.18501148685E+03  0.12508958233E+03 0.  0.
         23    2    1    2    0    0 -0.25767441581E+02  0.31017004279E+02  0.62699514026E+02  0.11692827372E+03  0.90083164558E+02 0.  0.
          5    1    3    3  502    0 -0.37170155712E+02  0.22974619486E+02  0.23467555739E+02  0.49776020216E+02  0.41800000000E+01 0. -1.
         -5    1    3    3    0  502  0.62937597293E+02 -0.53991623765E+02  0.10674700205E+03  0.13523546663E+03  0.41800000000E+01 0. -1.
        -11    1    4    4    0    0  0.46288680240E+01  0.55253005370E+02  0.19412104106E+02  0.58746496129E+02  0.00000000000E+00 0.  1.
         11    1    4    4    0    0 -0.30396309605E+02 -0.24236001091E+02  0.43287409919E+02  0.58181777594E+02  0.00000000000E+00 0. -1.
</event>
<event>
 8    1  0.6849590E-009  0.1146239E+03  0.7561462E-02  0.1252239E+00
          3   -1    0    0  501    0  0.00000000000E+00  0.00000000000E+00  0.20436405202E+03  0.20436405202E+03  0.00000000000E+00 0. -1.
         -3   -1    0    0    0  501 -0.00000000000E+00 -0.00000000000E+00 -0.11025994410E+03  0.11025994410E+03  0.00000000000E+00 0.  1.
         25    2    1    2    0    0 -0.54265298201E+02 -0.59849402734E+01  0.14215187305E+03  0.19707237112E+03  0.12509924999E+03 0.  0.
         23    2    1    2    0    0  0.54265298201E+02  0.59849402734E+01 -0.48047765129E+02  0.11755162500E+03  0.92353964225E+02 0.  0.
          5    1    3    3  502    0  0.39869006526E+02 -0.10461862369E+02  0.34296050522E+02  0.53783638098E+02  0.41800000000E+01 0.  1.
         -5    1    3    3    0  502 -0.94134304727E+02  0.44769220958E+01  0.10785582253E+03  0.14328873302E+03  0.41800000000E+01 0.  1.
        -11    1    4    4    0    0  0.66769152217E+02  0.24517259740E+02 -0.59225047565E+02  0.92557128154E+02  0.00000000000E+00 0.  1.
         11    1    4    4    0    0 -0.12503854016E+02 -0.18532319467E+02  0.11177282436E+02  0.24994496849E+02  0.00000000000E+00 0. -1.
</event>
<event>
 8    1  0.6849590E-009  0.1614651E+03  0.7561462E-02  0.1187053E+00
          1   -1    0    0  501    0  0.00000000000E+00  0.00000000000E+00  0.17210604399E+03  0.17210604399E+03  0.00000000000E+00 0. -1.
         -1   -1    0    0    0  501 -0.00000000000E+00 -0.00000000000E+00 -0.22416963570E+03  0.22416963570E+03  0.00000000000E+00 0.  1.
         25    2    1    2    0    0  0.50507829803E+02 -0.15183733471E+03  0.72983739927E+01  0.20323882573E+03  0.12508851641E+03 0.  0.
         23    2    1    2    0    0 -0.50507829803E+02  0.15183733471E+03 -0.59361965701E+02  0.19303685396E+03  0.90187398975E+02 0.  0.
          5    1    3    3  502    0  0.29418851480E+02 -0.62610626439E+02  0.64844620249E+02  0.94909728378E+02  0.41800000000E+01 0.  1.
         -5    1    3    3    0  502  0.21088978322E+02 -0.89226708269E+02 -0.57546246256E+02  0.10832909735E+03  0.41800000000E+01 0.  1.
        -11    1    4    4    0    0 -0.40481413063E+02  0.83706699592E+02 -0.78363119893E+02  0.12159907450E+03  0.00000000000E+00 0.  1.
         11    1    4    4    0    0 -0.10026416740E+02  0.68130635116E+02  0.19001154193E+02  0.71437779463E+02  0.00000000000E+00 0. -1.
</event>
<event>
 8    1  0.6849590E-009  0.1066283E+03  0.7561462E-02  0.1266944E+00
          1   -1    0    0  501    0  0.00000000000E+00  0.00000000000E+00  0.36614824029E+03  0.36614824029E+03  0.00000000000E+00 0. -1.
         -1   -1    0    0    0  501 -0.00000000000E+00 -0.00000000000E+00 -0.41303280769E+02  0.41303280769E+02  0.00000000000E+00 0.  1.
         25    2    1    2    0    0 -0.12061620559E+02  0.46380274219E+02  0.22498571544E+03  0.26184591971E+03  0.12509236982E+03 0.  0.
         23    2    1    2    0    0  0.12061620559E+02 -0.46380274219E+02  0.99859244076E+02  0.14560560135E+03  0.94511956858E+02 0.  0.
          5    1    3    3  502    0 -0.57876442692E+02  0.83867034899E+01  0.17315480229E+03  0.18281158981E+03  0.41800000000E+01 0. -1.
         -5    1    3    3    0  502  0.45814822133E+02  0.37993570729E+02  0.51830913152E+02  0.79034329895E+02  0.41800000000E+01 0. -1.
        -11    1    4    4    0    0 -0.33947617938E+02 -0.75993532469E+01  0.70579094420E+02  0.78686717447E+02  0.00000000000E+00 0. -1.
         11    1    4    4    0    0  0.46009238498E+02 -0.38780920972E+02  0.29280149656E+02  0.66918883901E+02  0.00000000000E+00 0.  1.
</event>
<event>
 8    1  0.6849590E-009  0.1500878E+03  0.7561462E-02  0.1200365E+00
          2   -1    0    0  501    0  0.00000000000E+00  0.00000000000E+00  0.71178977621E+02  0.71178977621E+02  0.00000000000E+00 0. -1.
         -2   -1    0    0    0  501 -0.00000000000E+00 -0.00000000000E+00 -0.43647104187E+03  0.43647104187E+03  0.00000000000E+00 0.  1.
         25    2    1    2    0    0 -0.97478375601E+02  0.56843161703E+02 -0.30785113106E+03  0.35093225749E+03  0.12509177316E+03 0.  0.
         23    2    1    2    0    0  0.97478375601E+02 -0.56843161703E+02 -0.57440933195E+02  0.15671776200E+03  0.92346182263E+02 0.  0.
          5    1    3    3  502    0 -0.87956073575E+02 -0.20477468518E+02 -0.16929178616E+03  0.19191867772E+03  0.41800000000E+01 0. -1.
         -5    1    3    3    0  502 -0.95223020259E+01  0.77320630222E+02 -0.13855934489E+03  0.15901357977E+03  0.41800000000E+01 0. -1.
        -11    1    4    4    0    0  0.80542103294E+02 -0.90505073901E+01 -0.12872327745E+01  0.81059231770E+02  0.00000000000E+00 0. -1.
         11    1    4    4    0    0  0.16936272307E+02 -0.47792654313E+02 -0.56153700420E+02  0.75658530232E+02  0.00000000000E+00 0.  1.
</event>
<event>
 8    1  0.6849590E-009  0.1082818E+03  0.7561462E-02  0.1263785E+00
          4   -1    0    0  501    0  0.00000000000E+00  0.00000000000E+00  0.35148157229E+03  0.35148157229E+03  0.00000000000E+00 0.  1.
         -4   -1    0    0    0  501 -0.00000000000E+00 -0.00000000000E+00 -0.47295649661E+02  0.47295649661E+02  0.00000000000E+00 0. -1.
         25    2    1    2    0    0  0.55962958672E+02  0.23109808947E+02  0.12771297146E+03  0.18873917399E+03  0.12508379873E+03 0.  0.
         23    2    1    2    0    0 -0.55962958672E+02 -0.23109808947E+02  0.17647295117E+03  0.21003804797E+03  0.96474675879E+02 0.  0.
          5    1    3    3  502    0  0.36706709704E+02 -0.31795644923E+02  0.45088463184E+00  0.48744448610E+02  0.41800000000E+01 0. -1.
         -5    1    3    3    0  502  0.19256248968E+02  0.54905453870E+02  0.12726208683E+03  0.13999472538E+03  0.41800000000E+01 0. -1.
        -11    1    4    4    0    0  0.25268569680E+02 -0.94647805002E+00  0.19588316190E+02  0.31985911985E+02  0.00000000000E+00 0.  1.
         11    1    4    4    0    0 -0.81231528352E+02 -0.22163330897E+02  0.15688463498E+03  0.17805213598E+03  0.00000000000E+00 0. -1.
</event>
<event>
 8    1  0.6849590E-009  0.2078007E+03  0.7561462E-02  0.1143320E+00
          2   -1    0    0  501    0  0.00000000000E+00  0.00000000000E+00  0.14107511208E+04  0.14107511208E+04  0.00000000000E+00 0. -1.
         -2   -1    0    0    0  501 -0.00000000000E+00 -0.00000000000E+00 -0.35611054278E+02  0.35611054278E+02  0.00000000000E+00 0.  1.
         25    2    1    2    0    0  0.78655805733E+02 -0.17164733498E+03  0.55800100855E+03  0.60221375312E+03  0.12508691191E+03 0.  0.
         23    2    1    2    0    0 -0.78655805733E+02  0.17164733498E+03  0.81713905796E+03  0.84414842194E+03  0.96024865703E+02 0.  0.
          5    1    3    3  502    0  0.53661789631E+02 -0.17131670498E+03  0.35697799424E+03  0.39959950181E+03  0.41800000000E+01 0.  1.
         -5    1    3    3    0  502  0.24994016102E+02 -0.33063000084E+00  0.20102301430E+03  0.20261425131E+03  0.41800000000E+01 0.  1.
        -11    1    4    4    0    0 -0.56522278757E+02  0.24031051049E+02  0.20023182548E+03  0.20943983228E+03  0.00000000000E+00 0. -1.
         11    1    4    4    0    0 -0.22133526976E+02  0.14761628393E+03  0.61690723248E+03  0.63470858966E+03  0.00000000000E+00 0.  1.
</event>
<event>
 8    1  0.6849590E-009  0.1473663E+03  0.7561462E-02  0.1203747E+00
         -2   -1    0    0    0  501 -0.00000000000E+00  0.00000000000E+00  0.17643514784E+02  0.17643514784E+02  0.00000000000E+00 0.  1.
          2   -1    0    0  501    0  0.00000000000E+00 -0.00000000000E+00 -0.13513745093E+04  0.13513745093E+04  0.00000000000E+00 0. -1.
         25    2    1    2    0    0 -0.23463128639E+02  0.10177245883E+03 -0.86378335326E+03  0.87902895086E+03  0.12514816544E+03 0.  0.
         23    2    1    2    0    0  0.23463128639E+02 -0.10177245883E+03 -0.46994764128E+03  0.48998907324E+03  0.91270776094E+02 0.  0.
          5    1    3    3  502    0 -0.37366418069E+02 -0.13451779294E+02 -0.35070293394E+03  0.35296914857E+03  0.41800000000E+01 0.  1.
         -5    1    3    3    0  502  0.13903289430E+02  0.11522423812E+03 -0.51308041931E+03  0.52605980229E+03  0.41800000000E+01 0.  1.
        -11    1    4    4    0    0 -0.30020454823E+02 -0.70699225982E+02 -0.26607887661E+03  0.27694327369E+03  0.00000000000E+00 0. -1.
         11    1    4    4    0    0  0.53483583462E+02 -0.31073232846E+02 -0.20386876467E+03  0.21304579956E+03  0.00000000000E+00 0.  1.
</event>
<event>
 8    1  0.6849590E-009  0.1563120E+03  0.7561462E-02  0.1192925E+00
          2   -1    0    0  501    0  0.00000000000E+00  0.00000000000E+00  0.99302300513E+03  0.99302300513E+03  0.00000000000E+00 0. -1.
         -2   -1    0    0    0  501 -0.00000000000E+00 -0.00000000000E+00 -0.28372831698E+02  0.28372831698E+02  0.00000000000E+00 0.  1.
         25    2    1    2    0    0  0.64171849561E+02  0.11143985637E+03  0.58318681143E+03  0.61015625180E+03  0.12508767610E+03 0.  0.
         23    2    1    2    0    0 -0.64171849561E+02 -0.11143985637E+03  0.38146336200E+03  0.41123958503E+03  0.84064450798E+02 0.  0.
          5    1    3    3  502    0  0.19869278850E+02 -0.27010161550E+02  0.99566949881E+02  0.10514460033E+03  0.41800000000E+01 0.  1.
         -5    1    3    3    0  502  0.44302570712E+02  0.13845001792E+03  0.48361986155E+03  0.50501165147E+03  0.41800000000E+01 0.  1.
        -11    1    4    4    0    0 -0.22161202013E+02 -0.73613338731E+02  0.11158261822E+03  0.13550174612E+03  0.00000000000E+00 0.  1.
         11    1    4    4    0    0 -0.42010647548E+02 -0.37826517636E+02  0.26988074378E+03  0.27573783891E+03  0.00000000000E+00 0. -1.
</event>
<event>
 8    1  0.6849590E-009  0.1327858E+03  0.7561462E-02  0.1223380E+00
          1   -1    0    0  501    0  0.00000000000E+00  0.00000000000E+00  0.13687584257E+03  0.13687584257E+03  0.00000000000E+00 0. -1.
         -1   -1    0    0    0  501 -0.00000000000E+00 -0.00000000000E+00 -0.17627570660E+03  0.17627570660E+03  0.00000000000E+00 0.  1.
         25    2    1    2    0    0 -0.93578424257E+02 -0.23846673707E+02 -0.74614302466E+02  0.17476232442E+03  0.12509592547E+03 0.  0.
         23    2    1    2    0    0  0.93578424257E+02  0.23846673707E+02  0.35214438432E+02  0.13838922475E+03  0.92660323328E+02 0.  0.
          5    1    3    3  502    0  0.24479352617E+02 -0.27300566078E+02 -0.32878827731E+02  0.49427212400E+02  0.41800000000E+01 0.  1.
         -5    1    3    3    0  502 -0.11805777687E+03  0.34538923706E+01 -0.41735474735E+02  0.12533511202E+03  0.41800000000E+01 0.  1.
        -11    1    4    4    0    0  0.91167181845E+02  0.48090274119E+01  0.58336907241E+02  0.10834101964E+03  0.00000000000E+00 0. -1.
         11    1    4    4    0    0  0.24112424124E+01  0.19037646295E+02 -0.23122468809E+02  0.30048205109E+02  0.00000000000E+00 0.  1.
</event>
<event>
 8    1  0.6849590E-009  0.1407129E+03  0.7561462E-02  0.1212373E+00
         -2   -1    0    0    0  501 -0.00000000000E+00  0.00000000000E+00  0.65574747589E+02  0.65574747589E+02  0.00000000000E+00 0.  1.
          2   -1    0    0  501    0  0.00000000000E+00 -0.00000000000E+00 -0.75958843787E+03  0.75958843787E+03  0.00000000000E+00 0. -1.
         25    2    1    2    0    0 -0.32042807838E+02  0.11261031659E+03 -0.71873561074E+02  0.18579919803E+03  0.12509080009E+03 0.  0.
         23    2    1    2    0    0  0.32042807838E+02 -0.11261031659E+03 -0.62214012920E+03  0.63936398743E+03  0.89555251773E+02 0.  0.
          5    1    3    3  502    0  0.24623192654E+01  0.10028020971E+03 -0.98238138773E+02  0.14046489876E+03  0.41800000000E+01 0.  1.
         -5    1    3    3    0  502 -0.34505127103E+02  0.12330106884E+02  0.26364577699E+02  0.45334299260E+02  0.41800000000E+01 0.  1.
        -11    1    4    4    0    0  0.60542002945E+02 -0.85885219789E+02 -0.50703555348E+03  0.51780948001E+03  0.00000000000E+00 0.  1.
         11    1    4    4    0    0 -0.28499195107E+02 -0.26725096804E+02 -0.11510457573E+03  0.12155450742E+03  0.00000000000E+00 0. -1.
</event>
<event>
 8    1  0.6849590E-009  0.1076237E+03  0.7561462E-02  0.1265035E+00
         -2   -1    0    0    0  501 -0.00000000000E+00  0.00000000000E+00  0.16736994239E+02  0.16736994239E+02  0.00000000000E+00 0.  1.
          2   -1    0    0  501    0  0.00000000000E+00 -0.00000000000E+00 -0.17792382883E+04  0.17792382883E+04  0.00000000000E+00 0. -1.
         25    2    1    2    0    0  0.10231250531E+03 -0.51899589641E+01 -0.13843536781E+04  0.13937635526E+04  0.12508777017E+03 0.  0.
         23    2    1    2    0    0 -0.10231250531E+03  0.51899589641E+01 -0.37814761595E+03  0.40221172986E+03  0.91015777616E+02 0.  0.
          5    1    3    3  502    0  0.99101665442E+02 -0.20450997540E+01 -0.13840679586E+04  0.13876191513E+04  0.41800000000E+01 0. -1.
         -5    1    3    3    0  502  0.32108398666E+01 -0.31448592101E+01 -0.28571942792E+00  0.61444013290E+01  0.41800000000E+01 0. -1.
        -11    1    4    4    0    0 -0.11620961774E+02  0.14667641931E+02 -0.69242823590E+01  0.19953249323E+02  0.00000000000E+00 0.  1.
         11    1    4    4    0    0 -0.90691543534E+02 -0.94776829664E+01 -0.37122333359E+03  0.38225848054E+03  0.00000000000E+00 0. -1.
</event>
<event>
 8    1  0.6849590E-009  0.8471797E+02  0.7561462E-02  0.1316172E+00
         -1   -1    0    0    0  501 -0.00000000000E+00  0.00000000000E+00  0.21356203733E+03  0.21356203733E+03  0.00000000000E+00 0.  1.
          1   -1    0    0  501    0  0.00000000000E+00 -0.00000000000E+00 -0.72493440587E+02  0.72493440587E+02  0.00000000000E+00 0. -1.
         25    2    1    2    0    0 -0.20656395248E+02  0.14825644482E+02  0.14305800425E+03  0.19172908819E+03  0.12509182338E+03 0.  0.
         23    2    1    2    0    0  0.20656395248E+02 -0.14825644482E+02 -0.19894075024E+01  0.94326389735E+02  0.90813124929E+02 0.  0.
          5    1    3    3  502    0 -0.27928447372E+02 -0.28826001348E+02  0.14161848353E+03  0.14725557308E+03  0.41800000000E+01 0.  1.
         -5    1    3    3    0  502  0.72720521244E+01  0.43651645831E+02  0.14395207200E+01  0.44473515104E+02  0.41800000000E+01 0.  1.
        -11    1    4    4    0    0  0.19240894552E+01 -0.47194530028E+02  0.19605424224E+02  0.51140966395E+02  0.00000000000E+00 0.  1.
         11    1    4    4    0    0  0.18732305793E+02  0.32368885546E+02 -0.21594831726E+02  0.43185423340E+02  0.00000000000E+00 0. -1.
</event>
<event>
 8    1  0.6849590E-009  0.8590272E+02  0.7561462E-02  0.1313089E+00
         -2   -1    0    0    0  501 -0.00000000000E+00  0.00000000000E+00  0.84185825899E+03  0.84185825899E+03  0.00000000000E+00 0.  1.
          2   -1    0    0  501    0  0.00000000000E+00 -0.00000000000E+00 -0.17645409898E+02  0.17645409898E+02  0.00000000000E+00 0. -1.
         25    2    1    2    0    0 -0.51540481609E+02 -0.32470230284E+02  0.51770772118E+03  0.53607790215E+03  0.12508994965E+03 0.  0.
         23    2    1    2    0    0  0.51540481609E+02  0.32470230284E+02  0.30650512791E+03  0.32342576674E+03  0.83355240117E+02 0.  0.
          5    1    3    3  502    0 -0.49444068731E+02 -0.51287764983E+02  0.13346044039E+03  0.15134170714E+03  0.41800000000E+01 0.  1.
         -5    1    3    3    0  502 -0.20964128775E+01  0.18817534699E+02  0.38424728079E+03  0.38473619501E+03  0.41800000000E+01 0.  1.
        -11    1    4    4    0    0  0.36474283646E+01  0.32956215203E+02  0.36938972300E+02  0.49637722840E+02  0.00000000000E+00 0. -1.
         11    1    4    4    0    0  0.47893053244E+02 -0.48598491865E+00  0.26956615561E+03  0.27378804390E+03  0.00000000000E+00 0.  1.
</event>
<event>
 8    1  0.6849590E-009  0.1052903E+03  0.7561462E-02  0.1269549E+00
          1   -1    0    0  501    0  0.00000000000E+00  0.00000000000E+00  0.19869253216E+02  0.19869253216E+02  0.00000000000E+00 0. -1.
         -1   -1    0    0    0  501 -0.00000000000E+00 -0.00000000000E+00 -0.69607454879E+03  0.69607454879E+03  0.00000000000E+00 0.  1.
         25    2    1    2    0    0 -0.17520430593E+02  0.38105072129E+01 -0.37825347162E+03  0.39880213516E+03  0.12508384694E+03 0.  0.
         23    2    1    2    0    0  0.17520430593E+02 -0.38105072129E+01 -0.29795182396E+03  0.31714166685E+03  0.10715438394E+03 0.  0.
          5    1    3    3  502    0 -0.20341145642E+02 -0.47450775903E+02 -0.74645028553E+02  0.90855330210E+02  0.41800000000E+01 0. -1.
         -5    1    3    3    0  502  0.28207150490E+01  0.51261283116E+02 -0.30360844306E+03  0.30794680495E+03  0.41800000000E+01 0. -1.
        -11    1    4    4    0    0 -0.90753264412E+01 -0.51703532955E+02 -0.12079813040E+03  0.13171106703E+03  0.00000000000E+00 0. -1.
         11    1    4    4    0    0  0.26595757035E+02  0.47893025742E+02 -0.17715369356E+03  0.18543059982E+03  0.00000000000E+00 0.  1.
</event>
<event>
 8    1  0.6849590E-009  0.1077023E+03  0.7561462E-02  0.1264885E+00
         -1   -1    0    0    0  501 -0.00000000000E+00  0.00000000000E+00  0.61322096319E+02  0.61322096319E+02  0.00000000000E+00 0.  1.
          1   -1    0    0  501    0  0.00000000000E+00 -0.00000000000E+00 -0.23467443163E+03  0.23467443163E+03  0.00000000000E+00 0. -1.
         25    2    1    2    0    0  0.10171774508E+02 -0.28091385119E+02 -0.53955468600E+02  0.13945215845E+03  0.12507246296E+03 0.  0.
         23    2    1    2    0    0 -0.10171774508E+02  0.28091385119E+02 -0.11939686671E+03  0.15654436950E+03  0.96736430197E+02 0.  0.
          5    1    3    3  502    0 -0.39558835927E+02  0.28913972055E+02 -0.54200737926E+01  0.49474931832E+02  0.41800000000E+01 0.  1.
         -5    1    3    3    0  502  0.49730610435E+02 -0.57005357174E+02 -0.48535394807E+02  0.89977226618E+02  0.41800000000E+01 0.  1.
        -11    1    4    4    0    0  0.37671724411E+02  0.76744693047E+01 -0.87378239462E+02  0.95462102589E+02  0.00000000000E+00 0. -1.
         11    1    4    4    0    0 -0.47843498919E+02  0.20416915814E+02 -0.32018627251E+02  0.61082266913E+02  0.00000000000E+00 0.  1.
</event>
<event>
 8    1  0.6849590E-009  0.9621901E+02  0.7561462E-02  0.1288454E+00
          2   -1    0    0  501    0  0.00000000000E+00  0.00000000000E+00  0.20149561311E+03  0.20149561311E+03  0.00000000000E+00 0. -1.
         -2   -1    0    0    0  501 -0.00000000000E+00 -0.00000000000E+00 -0.72224628278E+02  0.72224628278E+02  0.00000000000E+00 0.  1.
         25    2    1    2    0    0 -0.84597727011E+01 -0.48707847870E+02  0.88848584687E+02  0.16120062039E+03  0.12509015475E+03 0.  0.
         23    2    1    2    0    0  0.84597727011E+01  0.48707847870E+02  0.40422400149E+02  0.11251962100E+03  0.92642714106E+02 0.  0.
          5    1    3    3  502    0  0.57217881788E+02 -0.23234808660E+02  0.55557886123E+02  0.83173874746E+02  0.41800000000E+01 0. -1.
         -5    1    3    3    0  502 -0.65677654489E+02 -0.25473039210E+02  0.33290698563E+02  0.78026745649E+02  0.41800000000E+01 0. -1.
        -11    1    4    4    0    0 -0.13260228546E+02  0.19145069711E+02  0.64543010819E+02  0.68616088499E+02  0.00000000000E+00 0. -1.
         11    1    4    4    0    0  0.21720001247E+02  0.29562778159E+02 -0.24120610670E+02  0.43903532497E+02  0.00000000000E+00 0.  1.
</event>
<event>
 8    1  0.6849590E-009  0.9799700E+02  0.7561462E-02  0.1284565E+00
          1   -1    0    0  501    0  0.00000000000E+00  0.00000000000E+00  0.19537370080E+03  0.19537370080E+03  0.00000000000E+00 0. -1.
         -1   -1    0    0    0  501 -0.00000000000E+00 -0.00000000000E+00 -0.75807206596E+02  0.75807206596E+02  0.00000000000E+00 0.  1.
         25    2    1    2    0    0 -0.19764509535E+01  0.35364671281E+02  0.84759207161E+02  0.15519985112E+03  0.12509318230E+03 0.  0.
         23    2    1    2    0    0  0.19764509535E+01 -0.35364671281E+02  0.34807287041E+02  0.11598105627E+03  0.10481169710E+03 0.  0.
          5    1    3    3  502    0 -0.50434346047E+02  0.54422048370E+02  0.31867320607E+02  0.80860256817E+02  0.41800000000E+01 0.  1.
         -5    1    3    3    0  502  0.48457895093E+02 -0.19057377089E+02  0.52891886554E+02  0.74339594306E+02  0.41800000000E+01 0.  1.
        -11    1    4    4    0    0 -0.20102871699E+01 -0.52149459835E+02  0.63688414646E+02  0.82339671943E+02  0.00000000000E+00 0. -1.
         11    1    4    4    0    0  0.39867381234E+01  0.16784788554E+02 -0.28881127605E+02  0.33641384327E+02  0.00000000000E+00 0.  1.
</event>
<event>
 8    1  0.6849590E-009  0.1514953E+03  0.7561462E-02  0.1198648E+00
         -2   -1    0    0    0  501 -0.00000000000E+00  0.00000000000E+00  0.52696087606E+02  0.52696087606E+02  0.00000000000E+00 0.  1.
          2   -1    0    0  501    0  0.00000000000E+00 -0.00000000000E+00 -0.57307758280E+03  0.57307758280E+03  0.00000000000E+00 0. -1.
         25    2    1    2    0    0  0.36244738085E+02  0.12643346690E+03 -0.28402984758E+03  0.33707585096E+03  0.12509225552E+03 0.  0.
         23    2    1    2    0    0 -0.36244738085E+02 -0.12643346690E+03 -0.23635164761E+03  0.28869781944E+03  0.10092188580E+03 0.  0.
          5    1    3    3  502    0  0.56720434055E+02  0.29692009192E+02 -0.19006774408E+03  0.20060419434E+03  0.41800000000E+01 0. -1.
         -5    1    3    3    0  502 -0.20475695971E+02  0.96741457707E+02 -0.93962103506E+02  0.13647165662E+03  0.41800000000E+01 0. -1.
        -11    1    4    4    0    0 -0.47906098953E+02 -0.96567179011E+02 -0.94773980370E+02  0.14353508886E+03  0.00000000000E+00 0.  1.
         11    1    4    4    0    0  0.11661360868E+02 -0.29866287887E+02 -0.14157766724E+03  0.14516273058E+03  0.00000000000E+00 0. -1.
</event>
<event>
 8    1  0.6849590E-009  0.8899072E+02  0.7561462E-02  0.1305314E+00
          4   -1    0    0  501    0  0.00000000000E+00  0.00000000000E+00  0.12586836008E+03  0.12586836008E+03  0.00000000000E+00 0. -1.
         -4   -1    0    0    0  501 -0.00000000000E+00 -0.00000000000E+00 -0.10935735370E+03  0.10935735370E+03  0.00000000000E+00 0.  1.
         25    2    1    2    0    0 -0.18719932542E+02  0.18665466848E+02 -0.26679667735E+02  0.13060816396E+03  0.12509137579E+03 0.  0.
         23    2    1    2    0    0  0.18719932542E+02 -0.18665466848E+02  0.43190674115E+02  0.10461754981E+03  0.91545408793E+02 0.  0.
          5    1    3    3  502    0  0.20102165141E+02 -0.20060920597E+02 -0.59854877137E+02  0.66382349278E+02  0.41800000000E+01 0.  1.
         -5    1    3    3    0  502 -0.38822097682E+02  0.38726387445E+02  0.33175209402E+02  0.64225814684E+02  0.41800000000E+01 0.  1.
        -11    1    4    4    0    0  0.21348084637E+02  0.34759710137E+02  0.11241172397E+02  0.42312434618E+02  0.00000000000E+00 0.  1.
         11    1    4    4    0    0 -0.26281520947E+01 -0.53425176985E+02  0.31949501718E+02  0.62305115194E+02  0.00000000000E+00 0. -1.
</event>
<event>
 8    1  0.6849590E-009  0.9613026E+02  0.7561462E-02  0.1288651E+00
         -1   -1    0    0    0  501 -0.00000000000E+00  0.00000000000E+00  0.39144066860E+02  0.39144066860E+02  0.00000000000E+00 0.  1.
          1   -1    0    0  501    0  0.00000000000E+00 -0.00000000000E+00 -0.45586575554E+03  0.45586575554E+03  0.00000000000E+00 0. -1.
         25    2    1    2    0    0  0.14143544625E+02  0.60003518756E+02 -0.31239830536E+03  0.34211196214E+03  0.12508969316E+03 0.  0.
         23    2    1    2    0    0 -0.14143544625E+02 -0.60003518756E+02 -0.10432338332E+03  0.15289786025E+03  0.93241220740E+02 0.  0.
          5    1    3    3  502    0 -0.40261184223E+01 -0.33530643431E+02 -0.14970771564E+03  0.15352649999E+03  0.41800000000E+01 0. -1.
         -5    1    3    3    0  502  0.18169663048E+02  0.93534162188E+02 -0.16269058972E+03  0.18858546215E+03  0.41800000000E+01 0. -1.
        -11    1    4    4    0    0 -0.95139919628E+01 -0.16031510388E+02 -0.10699049409E+03  0.10860244562E+03  0.00000000000E+00 0. -1.
         11    1    4    4    0    0 -0.46295526624E+01 -0.43972008368E+02  0.26671107728E+01  0.44295414635E+02  0.00000000000E+00 0.  1.
</event>
<event>
 8    1  0.6849590E-009  0.6139904E+02  0.7561462E-02  0.1392053E+00
         -1   -1    0    0    0  501 -0.00000000000E+00  0.00000000000E+00  0.51585058517E+03  0.51585058517E+03  0.00000000000E+00 0.  1.
          1   -1    0    0  501    0  0.00000000000E+00 -0.00000000000E+00 -0.27750678820E+02  0.27750678820E+02  0.00000000000E+00 0. -1.
         25    2    1    2    0    0  0.20725218164E+02  0.13578613823E+02  0.36894940831E+03  0.39036557561E+03  0.12509078029E+03 0.  0.
         23    2    1    2    0    0 -0.20725218164E+02 -0.13578613823E+02  0.11915049805E+03  0.15323568838E+03  0.93115098598E+02 0.  0.
          5    1    3    3  502    0  0.13084084891E+02  0.28549396726E+02  0.37150899083E+03  0.37285743119E+03  0.41800000000E+01 0. -1.
         -5    1    3    3    0  502  0.76411332733E+01 -0.14970782902E+02 -0.25595825202E+01  0.17508144422E+02  0.41800000000E+01 0. -1.
        -11    1    4    4    0    0 -0.74993642756E+01 -0.41885749787E+02  0.16005749460E+02  0.45462517699E+02  0.00000000000E+00 0. -1.
         11    1    4    4    0    0 -0.13225853889E+02  0.28307135963E+02  0.10314474859E+03  0.10777317068E+03  0.00000000000E+00 0.  1.
</event>
<event>
 8    1  0.6849590E-009  0.1413711E+03  0.7561462E-02  0.1211496E+00
          1   -1    0    0  501    0  0.00000000000E+00  0.00000000000E+00  0.17074029872E+03  0.17074029872E+03  0.00000000000E+00 0. -1.
         -1   -1    0    0    0  501 -0.00000000000E+00 -0.00000000000E+00 -0.15595368273E+03  0.15595368273E+03  0.00000000000E+00 0.  1.
         25    2    1    2    0    0 -0.10110245708E+03  0.56993446679E+02 -0.28674215512E+02  0.17303315386E+03  0.12509317291E+03 0.  0.
         23    2    1    2    0    0  0.10110245708E+03 -0.56993446679E+02  0.43460831508E+02  0.15366082759E+03  0.90845177460E+02 0.  0.
          5    1    3    3  502    0 -0.11013768171E+03  0.39056026060E+01  0.31698724536E+01  0.11033169606E+03  0.41800000000E+01 0. -1.
         -5    1    3    3    0  502  0.90352246278E+01  0.53087844073E+02 -0.31844087966E+02  0.62701457804E+02  0.41800000000E+01 0. -1.
        -11    1    4    4    0    0  0.89273025137E+02 -0.58174106330E+02  0.67992982937E+02  0.12639994222E+03  0.00000000000E+00 0. -1.
         11    1    4    4    0    0  0.11829431942E+02  0.11806596512E+01 -0.24532151429E+02  0.27260885368E+02  0.00000000000E+00 0.  1.
</event>
<event>
 7    1  0.6849590E-009  0.1037202E+03  0.7561462E-02  0.1272662E+00
          1   -1    0    0  501    0  0.00000000000E+00  0.00000000000E+00  0.18752853036E+03  0.18752853036E+03  0.00000000000E+00 0. -1.
         -1   -1    0    0    0  501 -0.00000000000E+00 -0.00000000000E+00 -0.14607918673E+03  0.14607918673E+03  0.00000000000E+00 0.  1.
         23    2    1    2    0    0  0.52095165939E+02 -0.57912773341E+02  0.11759307618E+03  0.16804022472E+03  0.91332304949E+02 0.  0.
          5    1    1    2  502    0 -0.47164100570E+01  0.34011319927E+02  0.30667216182E+02  0.46227318280E+02  0.41800000000E+01 0.  1.
         -5    1    1    2    0  502 -0.47378755882E+02  0.23901453414E+02 -0.10681094873E+03  0.11934017410E+03  0.41800000000E+01 0.  1.
        -11    1    3    3    0    0 -0.17960893950E+02 -0.44907999167E+02  0.40734979627E+02  0.63234963951E+02  0.00000000000E+00 0. -1.
         11    1    3    3    0    0  0.70056059889E+02 -0.13004774174E+02  0.76858096551E+02  0.10480526076E+03  0.00000000000E+00 0.  1.
</event>
<event>
 8    1  0.6849590E-009  0.1176191E+03  0.7561462E-02  0.1247077E+00
         -1   -1    0    0    0  501 -0.00000000000E+00  0.00000000000E+00  0.49679600334E+02  0.49679600334E+02  0.00000000000E+00 0.  1.
          1   -1    0    0  501    0  0.00000000000E+00 -0.00000000000E+00 -0.32791676492E+03  0.32791676492E+03  0.00000000000E+00 0. -1.
         25    2    1    2    0    0 -0.33187137508E+02 -0.48442984620E+02 -0.20130157815E+03  0.24416728352E+03  0.12508888090E+03 0.  0.
         23    2    1    2    0    0  0.33187137508E+02  0.48442984620E+02 -0.76935586438E+02  0.13342908173E+03  0.91848388856E+02 0.  0.
          5    1    3    3  502    0 -0.20802665517E+02  0.37694603978E+02 -0.10886276977E+03  0.11714183328E+03  0.41800000000E+01 0. -1.
         -5    1    3    3    0  502 -0.12384471992E+02 -0.86137588598E+02 -0.92438808376E+02  0.12702545025E+03  0.41800000000E+01 0. -1.
        -11    1    4    4    0    0  0.95518514068E+01 -0.25499646383E+02 -0.51821819553E+01  0.27718673142E+02  0.00000000000E+00 0.  1.
         11    1    4    4    0    0  0.23635286102E+02  0.73942631003E+02 -0.71753404483E+02  0.10571040859E+03  0.00000000000E+00 0. -1.
</event>
<event>
 8    1  0.6849590E-009  0.8490133E+02  0.7561462E-02  0.1315691E+00
          1   -1    0    0  501    0  0.00000000000E+00  0.00000000000E+00  0.92823403957E+03  0.92823403957E+03  0.00000000000E+00 0. -1.
         -1   -1    0    0    0  501 -0.00000000000E+00 -0.00000000000E+00 -0.23076972296E+02  0.23076972296E+02  0.00000000000E+00 0.  1.
         25    2    1    2    0    0  0.28034119424E+01 -0.24322806598E+02  0.80046748918E+03  0.81055215498E+03  0.12508851532E+03 0.  0.
         23    2    1    2    0    0 -0.28034119424E+01  0.24322806598E+02  0.10468957809E+03  0.14075885689E+03  0.90849821086E+02 0.  0.
          5    1    3    3  502    0  0.18340446489E+02 -0.45683022347E+02  0.12291564350E+03  0.13247278334E+03  0.41800000000E+01 0.  1.
         -5    1    3    3    0  502 -0.15537034546E+02  0.21360215749E+02  0.67755184568E+03  0.67807937164E+03  0.41800000000E+01 0.  1.
        -11    1    4    4    0    0 -0.12801574422E+01 -0.34645161193E+02  0.32350268220E+02  0.47417990795E+02  0.00000000000E+00 0.  1.
         11    1    4    4    0    0 -0.15232545003E+01  0.58967967791E+02  0.72339309873E+02  0.93340866091E+02  0.00000000000E+00 0. -1.
</event>
<event>
 8    1  0.6849590E-009  0.1364082E+03  0.7561462E-02  0.1218245E+00
         -2   -1    0    0    0  501 -0.00000000000E+00  0.00000000000E+00  0.40091835964E+02  0.40091835964E+02  0.00000000000E+00 0.  1.
          2   -1    0    0  501    0  0.00000000000E+00 -0.00000000000E+00 -0.54532605567E+03  0.54532605567E+03  0.00000000000E+00 0. -1.
         25    2    1    2    0    0  0.21434876765E+01  0.10077319480E+03 -0.28966097567E+03  0.33122718084E+03  0.12509249847E+03 0.  0.
         23    2    1    2    0    0 -0.21434876765E+01 -0.10077319480E+03 -0.21557324404E+03  0.25419071079E+03  0.89337912314E+02 0.  0.
          5    1    3    3  502    0  0.15578082610E+02  0.12756517787E+03 -0.25205645791E+03  0.28295844507E+03  0.41800000000E+01 0. -1.
         -5    1    3    3    0  502 -0.13434594934E+02 -0.26791983063E+02 -0.37604517757E+02  0.48268735774E+02  0.41800000000E+01 0. -1.
        -11    1    4    4    0    0  0.25530703411E+02 -0.50510995941E+02 -0.17498134942E+03  0.18390663439E+03  0.00000000000E+00 0. -1.
         11    1    4    4    0    0 -0.27674191088E+02 -0.50262198863E+02 -0.40591894618E+02  0.70284076401E+02  0.00000000000E+00 0.  1.
</event>
<event>
 8    1  0.6849590E-009  0.7607333E+02  0.7561462E-02  0.1340579E+00
         -2   -1    0    0    0  501 -0.00000000000E+00  0.00000000000E+00  0.67052314300E+02  0.67052314300E+02  0.00000000000E+00 0.  1.
          2   -1    0    0  501    0  0.00000000000E+00 -0.00000000000E+00 -0.22811951935E+03  0.22811951935E+03  0.00000000000E+00 0. -1.
         25    2    1    2    0    0 -0.29954714373E+01 -0.46110776761E+02 -0.13557673351E+03  0.19016947250E+03  0.12509276966E+03 0.  0.
         23    2    1    2    0    0  0.29954714373E+01  0.46110776761E+02 -0.25490471539E+02  0.10500236114E+03  0.90777503401E+02 0.  0.
          5    1    3    3  502    0 -0.17559310274E+02 -0.59744218763E+02 -0.10312249659E+02  0.63257536673E+02  0.41800000000E+01 0. -1.
         -5    1    3    3    0  502  0.14563838836E+02  0.13633442002E+02 -0.12526448385E+03  0.12691193583E+03  0.41800000000E+01 0. -1.
        -11    1    4    4    0    0  0.23515854688E+02  0.42421507754E+02 -0.52109729016E+02  0.71189912206E+02  0.00000000000E+00 0. -1.
         11    1    4    4    0    0 -0.20520383250E+02  0.36892690075E+01  0.26619257476E+02  0.33812448937E+02  0.00000000000E+00 0.  1.
</event>
<event>
 8    1  0.6849590E-009  0.1295098E+03  0.7561462E-02  0.1228185E+00
         -1   -1    0    0    0  501 -0.00000000000E+00  0.00000000000E+00  0.44912177776E+02  0.44912177776E+02  0.00000000000E+00 0.  1.
          1   -1    0    0  501    0  0.00000000000E+00 -0.00000000000E+00 -0.48613476096E+03  0.48613476096E+03  0.00000000000E+00 0. -1.
         25    2    1    2    0    0 -0.96806388631E+02 -0.23393583787E+02 -0.23655832157E+03  0.28552671828E+03  0.12508769207E+03 0.  0.
         23    2    1    2    0    0  0.96806388631E+02  0.23393583787E+02 -0.20466426161E+03  0.24552022045E+03  0.92054234158E+02 0.  0.
          5    1    3    3  502    0  0.63351478370E+01 -0.44476406550E+02 -0.12105501114E+03  0.12919006525E+03  0.41800000000E+01 0. -1.
         -5    1    3    3    0  502 -0.10314153647E+03  0.21082822762E+02 -0.11550331043E+03  0.15633665303E+03  0.41800000000E+01 0. -1.
        -11    1    4    4    0    0  0.81624191803E+02  0.35612349166E+02 -0.20752218286E+03  0.22582339223E+03  0.00000000000E+00 0. -1.
         11    1    4    4    0    0  0.15182196828E+02 -0.12218765379E+02  0.28579212491E+01  0.19696828216E+02  0.00000000000E+00 0.  1.
</event>
<event>
 8    1  0.6849590E-009  0.1770148E+03  0.7561462E-02  0.1170724E+00
          2   -1    0    0  501    0  0.00000000000E+00  0.00000000000E+00  0.47471934453E+02  0.47471934453E+02  0.00000000000E+00 0. -1.
         -2   -1    0    0    0  501 -0.00000000000E+00 -0.00000000000E+00 -0.11301180834E+04  0.11301180834E+04  0.00000000000E+00 0.  1.
         25    2    1    2    0    0  0.10674067161E+03  0.96635155021E+02 -0.93459000905E+03  0.95385385438E+03  0.12508703503E+03 0.  0.
         23    2    1    2    0    0 -0.10674067161E+03 -0.96635155021E+02 -0.14805613986E+03  0.22373616344E+03  0.86054204547E+02 0.  0.
          5    1    3    3  502    0  0.16671460521E+02 -0.27822141086E+02 -0.99404664024E+02  0.10464592090E+03  0.41800000000E+01 0.  1.
         -5    1    3    3    0  502  0.90069211085E+02  0.12445729611E+03 -0.83518534503E+03  0.84920793348E+03  0.41800000000E+01 0.  1.
        -11    1    4    4    0    0 -0.84745462952E+01 -0.63313309062E+02 -0.52656622401E+02  0.82783530499E+02  0.00000000000E+00 0. -1.
         11    1    4    4    0    0 -0.98266125311E+02 -0.33321845960E+02 -0.95399517463E+02  0.14095263295E+03  0.00000000000E+00 0.  1.
</event>
<event>
 7    1  0.6849590E-009  0.8732898E+02  0.7561462E-02  0.1309452E+00
         -2   -1    0    0    0  501 -0.00000000000E+00  0.00000000000E+00  0.15392530954E+02  0.15392530954E+02  0.00000000000E+00 0. -1.
          2   -1    0    0  501    0  0.00000000000E+00 -0.00000000000E+00 -0.10333560648E+04  0.10333560648E+04  0.00000000000E+00 0.  1.
         23    2    1    2    0    0  0.90827533696E+01  0.63566704820E+02 -0.37352177891E+03  0.38917095461E+03  0.88387160926E+02 0.  0.
          5    1    1    2  502    0 -0.13937924460E+02 -0.26661314715E+02 -0.60281243520E+03  0.60357716646E+03  0.41800000000E+01 0. -1.
         -5    1    1    2    0  502  0.48551710902E+01 -0.36905390105E+02 -0.41629319781E+02  0.56000474735E+02  0.41800000000E+01 0. -1.
        -11    1    3    3    0    0 -0.37695459527E+02  0.18982394127E+02 -0.10940411527E+03  0.11726269395E+03  0.00000000000E+00 0. -1.
         11    1    3    3    0    0  0.46778212897E+02  0.44584310694E+02 -0.26411766364E+03  0.27190826065E+03  0.00000000000E+00 0.  1.
</event>
<event>
 8    1  0.6849590E-009  0.1156217E+03  0.7561462E-02  0.1250500E+00
         -2   -1    0    0    0  501 -0.00000000000E+00  0.00000000000E+00  0.95039092346E+02  0.95039092346E+02  0.00000000000E+00 0.  1.
          2   -1    0    0  501    0  0.00000000000E+00 -0.00000000000E+00 -0.17804988253E+03  0.17804988253E+03  0.00000000000E+00 0. -1.
         25    2    1    2    0    0  0.51978631434E+02 -0.39236454877E+02 -0.15501582321E+02  0.14187614065E+03  0.12508901916E+03 0.  0.
         23    2    1    2    0    0 -0.51978631434E+02  0.39236454877E+02 -0.67509207864E+02  0.13121283423E+03  0.91749862139E+02 0.  0.
          5    1    3    3  502    0 -0.28483663978E+02  0.24097192665E+02  0.32810931795E+01  0.37685962644E+02  0.41800000000E+01 0. -1.
         -5    1    3    3    0  502  0.80462295412E+02 -0.63333647543E+02 -0.18782675501E+02  0.10419017801E+03  0.41800000000E+01 0. -1.
        -11    1    4    4    0    0  0.86917762289E+01  0.28254257443E+02  0.10863844470E+02  0.31494017755E+02  0.00000000000E+00 0.  1.
         11    1    4    4    0    0 -0.60670407663E+02  0.10982197434E+02 -0.78373052334E+02  0.99718816472E+02  0.00000000000E+00 0. -1.
</event>
<event>
 8    1  0.6849590E-009  0.1185044E+03  0.7561462E-02  0.1245585E+00
         -2   -1    0    0    0  501 -0.00000000000E+00  0.00000000000E+00  0.14060165670E+03  0.14060165670E+03  0.00000000000E+00 0.  1.
          2   -1    0    0  501    0  0.00000000000E+00 -0.00000000000E+00 -0.17589947530E+03  0.17589947530E+03  0.00000000000E+00 0. -1.
         25    2    1    2    0    0 -0.55773424091E+02 -0.73264025587E+02  0.43312703753E+02  0.16125070729E+03  0.12508999967E+03 0.  0.
         23    2    1    2    0    0  0.55773424091E+02  0.73264025587E+02 -0.78610522350E+02  0.15525042471E+03  0.97184298468E+02 0.  0.
          5    1    3    3  502    0 -0.64880820830E+02 -0.95145142316E+02  0.61929713373E+02  0.13082385416E+03  0.41800000000E+01 0. -1.
         -5    1    3    3    0  502  0.91073967388E+01  0.21881116729E+02 -0.18617009620E+02  0.30426853138E+02  0.41800000000E+01 0. -1.
        -11    1    4    4    0    0  0.40027808144E+02  0.71393263081E+02 -0.72722716887E+01  0.82171219862E+02  0.00000000000E+00 0.  1.
         11    1    4    4    0    0  0.15745615947E+02  0.18707625058E+01 -0.71338250661E+02  0.73079204849E+02  0.00000000000E+00 0. -1.
</event>
<event>
 7    1  0.6849590E-009  0.8233364E+02  0.7561462E-02  0.1322556E+00
          3   -1    0    0  501    0  0.00000000000E+00  0.00000000000E+00  0.15397948820E+04  0.15397948820E+04  0.00000000000E+00 0. -1.
         -3   -1    0    0    0  501 -0.00000000000E+00 -0.00000000000E+00 -0.11480192442E+02  0.11480192442E+02  0.00000000000E+00 0.  1.
         23    2    1    2    0    0 -0.26359810683E+02  0.26227366823E+02  0.29268502573E+03  0.30876314308E+03  0.91035376905E+02 0.  0.
          5    1    1    2  502    0  0.44676499413E+02 -0.26725888789E+02  0.19984941930E+03  0.20656119076E+03  0.41800000000E+01 0.  1.
         -5    1    1    2    0  502 -0.18316688730E+02  0.49852196581E+00  0.10357802445E+04  0.10359507406E+04  0.41800000000E+01 0.  1.
        -11    1    3    3    0    0 -0.32637841984E+02  0.55131095521E+02  0.23934393161E+03  0.24777042604E+03  0.00000000000E+00 0.  1.
         11    1    3    3    0    0  0.62780313013E+01 -0.28903728698E+02  0.53341094121E+02  0.60992717038E+02  0.00000000000E+00 0. -1.
</event>
<event>
 8    1  0.6849590E-009  0.2026901E+03  0.7561462E-02  0.1147489E+00
         -2   -1    0    0    0  501 -0.00000000000E+00  0.00000000000E+00  0.51392026134E+03  0.51392026134E+03  0.00000000000E+00 0.  1.
          2   -1    0    0  501    0  0.00000000000E+00 -0.00000000000E+00 -0.14008659722E+03  0.14008659722E+03  0.00000000000E+00 0. -1.
         25    2    1    2    0    0  0.18728526891E+03  0.61052434336E+02  0.36983417742E+03  0.43728812240E+03  0.12506163087E+03 0.  0.
         23    2    1    2    0    0 -0.18728526891E+03 -0.61052434336E+02  0.39994867007E+01  0.21671873617E+03  0.90265403250E+02 0.  0.
          5    1    3    3  502    0  0.18899062949E+03  0.67161497161E+02  0.26596260230E+03  0.33313916455E+03  0.41800000000E+01 0. -1.
         -5    1    3    3    0  502 -0.17053605781E+01 -0.61090628252E+01  0.10387157512E+03  0.10414895785E+03  0.41800000000E+01 0. -1.
        -11    1    4    4    0    0 -0.68069310491E+02 -0.17878547065E+02  0.44913339229E+02  0.83488211842E+02  0.00000000000E+00 0.  1.
         11    1    4    4    0    0 -0.11921595842E+03 -0.43173887271E+02 -0.40913852528E+02  0.13323052433E+03  0.00000000000E+00 0. -1.
</event>
<event>
 8    1  0.6849590E-009  0.1948751E+03  0.7561462E-02  0.1154136E+00
         -2   -1    0    0    0  501 -0.00000000000E+00  0.00000000000E+00  0.12201117000E+03  0.12201117000E+03  0.00000000000E+00 0. -1.
          2   -1    0    0  501    0  0.00000000000E+00 -0.00000000000E+00 -0.62461358858E+03  0.62461358858E+03  0.00000000000E+00 0.  1.
         25    2    1    2    0    0  0.66993090370E+01 -0.17612979204E+03 -0.50386372092E+03  0.54826443008E+03  0.12509457080E+03 0.  0.
         23    2    1    2    0    0 -0.66993090370E+01  0.17612979204E+03  0.12613023406E+01  0.19836032849E+03  0.90987057609E+02 0.  0.
          5    1    3    3  502    0 -0.49411471610E+02 -0.11910660681E+03 -0.37454674097E+03  0.39614468428E+03  0.41800000000E+01 0. -1.
         -5    1    3    3    0  502  0.56110780647E+02 -0.57023185222E+02 -0.12931697995E+03  0.15211974580E+03  0.41800000000E+01 0. -1.
        -11    1    4    4    0    0 -0.23341550613E+02  0.10750761059E+03  0.40917472261E+02  0.11737526935E+03  0.00000000000E+00 0.  1.
         11    1    4    4    0    0  0.16642241575E+02  0.68622181446E+02 -0.39656169920E+02  0.80985059139E+02  0.00000000000E+00 0. -1.
</event>
<event>
 8    1  0.6849590E-009  0.7794216E+02  0.7561462E-02  0.1334995E+00
          2   -1    0    0  501    0  0.00000000000E+00  0.00000000000E+00  0.15414614425E+03  0.15414614425E+03  0.00000000000E+00 0. -1.
         -2   -1    0    0    0  501 -0.00000000000E+00 -0.00000000000E+00 -0.92967647245E+02  0.92967647245E+02  0.00000000000E+00 0.  1.
         25    2    1    2    0    0 -0.36296158988E+00  0.48828819826E+02  0.34868747045E+02  0.13873543448E+03  0.12508919168E+03 0.  0.
         23    2    1    2    0    0  0.36296158988E+00 -0.48828819826E+02  0.26309749960E+02  0.10837835701E+03  0.93108968090E+02 0.  0.
          5    1    3    3  502    0  0.24573622763E+02  0.95674618913E+00 -0.39518386697E+02  0.46732789197E+02  0.41800000000E+01 0. -1.
         -5    1    3    3    0  502 -0.24936584353E+02  0.47872073637E+02  0.74387133742E+02  0.92002645287E+02  0.41800000000E+01 0. -1.
        -11    1    4    4    0    0  0.27958921682E+02 -0.11158260588E+02 -0.24905449593E+02  0.39070314824E+02  0.00000000000E+00 0.  1.
         11    1    4    4    0    0 -0.27595960092E+02 -0.37670559238E+02  0.51215199552E+02  0.69308042188E+02  0.00000000000E+00 0. -1.
</event>
<event>
 8    1  0.6849590E-009  0.6482997E+02  0.7561462E-02  0.1378612E+00
          1   -1    0    0  501    0  0.00000000000E+00  0.00000000000E+00  0.75223742492E+02  0.75223742492E+02  0.00000000000E+00 0. -1.
         -1   -1    0    0    0  501 -0.00000000000E+00 -0.00000000000E+00 -0.16206843559E+03  0.16206843559E+03  0.00000000000E+00 0.  1.
         25    2    1    2    0    0 -0.13589394390E+02 -0.61736449100E+01 -0.34364429032E+02  0.13057792633E+03  0.12508755067E+03 0.  0.
         23    2    1    2    0    0  0.13589394390E+02  0.61736449100E+01 -0.52480264066E+02  0.10671425175E+03  0.91711329060E+02 0.  0.
          5    1    3    3  502    0 -0.18483982425E+02  0.24186993430E+02 -0.74065184502E+02  0.80185985139E+02  0.41800000000E+01 0.  1.
         -5    1    3    3    0  502  0.48945880353E+01 -0.30360638340E+02  0.39700755470E+02  0.50391941195E+02  0.41800000000E+01 0.  1.
        -11    1    4    4    0    0 -0.29727589493E+01 -0.28930384176E+02  0.11993163164E+02  0.31458550301E+02  0.00000000000E+00 0. -1.
         11    1    4    4    0    0  0.16562153339E+02  0.35104029086E+02 -0.64473427230E+02  0.75255701446E+02  0.00000000000E+00 0.  1.
</event>
<event>
 8    1  0.6849590E-009  0.1355008E+03  0.7561462E-02  0.1219514E+00
          2   -1    0    0  501    0  0.00000000000E+00  0.00000000000E+00  0.87239800258E+03  0.87239800258E+03  0.00000000000E+00 0. -1.
         -2   -1    0    0    0  501 -0.00000000000E+00 -0.00000000000E+00 -0.57110588661E+02  0.57110588661E+02  0.00000000000E+00 0.  1.
         25    2    1    2    0    0  0.47696087699E+02  0.12050518183E+03  0.72521251973E+03  0.74724673234E+03  0.12509222432E+03 0.  0.
         23    2    1    2    0    0 -0.47696087699E+02 -0.12050518183E+03  0.90074894188E+02  0.18226185890E+03  0.91156365756E+02 0.  0.
          5    1    3    3  502    0  0.42300001480E+02  0.98847414149E+02  0.71374063549E+03  0.72180556146E+03  0.41800000000E+01 0. -1.
         -5    1    3    3    0  502  0.53960862191E+01  0.21657767680E+02  0.11471884238E+02  0.25441170872E+02  0.41800000000E+01 0. -1.
        -11    1    4    4    0    0 -0.41319929179E+02 -0.32794573713E+02 -0.47118574020E+01  0.52962460409E+02  0.00000000000E+00 0.  1.
         11    1    4    4    0    0 -0.63761585196E+01 -0.87710608116E+02  0.94786751590E+02  0.12929939849E+03  0.00000000000E+00 0. -1.
</event>
<event>
 8    1  0.6849590E-009  0.1210804E+03  0.7561462E-02  0.1241325E+00
          1   -1    0    0  501    0  0.00000000000E+00  0.00000000000E+00  0.38221381560E+03  0.38221381560E+03  0.00000000000E+00 0. -1.
         -1   -1    0    0    0  501 -0.00000000000E+00 -0.00000000000E+00 -0.54078491543E+02  0.54078491543E+02  0.00000000000E+00 0.  1.
         25    2    1    2    0    0 -0.43349496250E+02 -0.86892066105E+02  0.24788249282E+03  0.29414696178E+03  0.12508914782E+03 0.  0.
         23    2    1    2    0    0  0.43349496250E+02  0.86892066105E+02  0.80252831241E+02  0.14214534536E+03  0.65843544172E+02 0.  0.
          5    1    3    3  502    0  0.53740671016E+01  0.23003128562E+02  0.71435328297E+01  0.25030521012E+02  0.41800000000E+01 0. -1.
         -5    1    3    3    0  502 -0.48723563352E+02 -0.10989519467E+03  0.24073895999E+03  0.26911644077E+03  0.41800000000E+01 0. -1.
        -11    1    4    4    0    0  0.18709173724E+02  0.51234380522E+02  0.43216480657E+01  0.54714454863E+02  0.00000000000E+00 0.  1.
         11    1    4    4    0    0  0.24640322526E+02  0.35657685582E+02  0.75931183176E+02  0.87430890501E+02  0.00000000000E+00 0. -1.
</event>
<event>
 8    1  0.6849590E-009  0.1262495E+03  0.7561462E-02  0.1233129E+00
          1   -1    0    0  501    0  0.00000000000E+00  0.00000000000E+00  0.84876690773E+03  0.84876690773E+03  0.00000000000E+00 0. -1.
         -1   -1    0    0    0  501 -0.00000000000E+00 -0.00000000000E+00 -0.18947107181E+02  0.18947107181E+02  0.00000000000E+00 0.  1.
         25    2    1    2    0    0 -0.65347109397E+02  0.12360786277E+02  0.50558756396E+03  0.52506130109E+03  0.12509017279E+03 0.  0.
         23    2    1    2    0    0  0.65347109397E+02 -0.12360786277E+02  0.32423223659E+03  0.34265271382E+03  0.88664002286E+02 0.  0.
          5    1    3    3  502    0  0.34071390988E+02 -0.16465164967E+02  0.13702671395E+03  0.14221727770E+03  0.41800000000E+01 0. -1.
         -5    1    3    3    0  502 -0.99418500386E+02  0.28825951243E+02  0.36856085001E+03  0.38284402339E+03  0.41800000000E+01 0. -1.
        -11    1    4    4    0    0  0.35907708525E+02 -0.50926098233E+02  0.18072226715E+03  0.19116319954E+03  0.00000000000E+00 0. -1.
         11    1    4    4    0    0  0.29439400872E+02  0.38565311957E+02  0.14350996944E+03  0.15148951428E+03  0.00000000000E+00 0.  1.
</event>
<event>
 8    1  0.6849590E-009  0.7279555E+02  0.7561462E-02  0.1350837E+00
          2   -1    0    0  501    0  0.00000000000E+00  0.00000000000E+00  0.36487506559E+03  0.36487506559E+03  0.00000000000E+00 0. -1.
         -2   -1    0    0    0  501 -0.00000000000E+00 -0.00000000000E+00 -0.43922438212E+02  0.43922438212E+02  0.00000000000E+00 0.  1.
         25    2    1    2    0    0  0.63609047728E+02  0.18774402799E+02  0.19231361216E+03  0.23881003232E+03  0.12508843656E+03 0.  0.
         23    2    1    2    0    0 -0.63609047728E+02 -0.18774402799E+02  0.12863901521E+03  0.16998747148E+03  0.89158034246E+02 0.  0.
          5    1    3    3  502    0  0.13468476976E+02 -0.62353332915E+01  0.18079835987E+03  0.18145467364E+03  0.41800000000E+01 0.  1.
         -5    1    3    3    0  502  0.50140570752E+02  0.25009736091E+02  0.11515252293E+02  0.57355358686E+02  0.41800000000E+01 0.  1.
        -11    1    4    4    0    0 -0.32277036133E+02 -0.26445078509E+02  0.47836135409E+01  0.42000383301E+02  0.00000000000E+00 0.  1.
         11    1    4    4    0    0 -0.31332011595E+02  0.76706757101E+01  0.12385540167E+03  0.12798708818E+03  0.00000000000E+00 0. -1.
</event>
<event>
 8    1  0.6849590E-009  0.9080587E+02  0.7561462E-02  0.1300912E+00
         -1   -1    0    0    0  501 -0.00000000000E+00  0.00000000000E+00  0.28341014702E+03  0.28341014702E+03  0.00000000000E+00 0.  1.
          1   -1    0    0  501    0  0.00000000000E+00 -0.00000000000E+00 -0.41940274305E+02  0.41940274305E+02  0.00000000000E+00 0. -1.
         25    2    1    2    0    0  0.16653806004E+02 -0.51246292569E+01  0.12841017845E+03  0.18010719664E+03  0.12508324137E+03 0.  0.
         23    2    1    2    0    0 -0.16653806004E+02  0.51246292569E+01  0.11305969426E+03  0.14524322468E+03  0.89495747219E+02 0.  0.
          5    1    3    3  502    0  0.12739089937E+02 -0.50183281299E+02  0.12403926824E+03  0.13447623805E+03  0.41800000000E+01 0. -1.
         -5    1    3    3    0  502  0.39147160662E+01  0.45058652042E+02  0.43709102108E+01  0.45630958589E+02  0.41800000000E+01 0. -1.
        -11    1    4    4    0    0  0.28836245176E+02  0.21425538002E+02  0.76938593706E+02  0.84912483865E+02  0.00000000000E+00 0.  1.
         11    1    4    4    0    0 -0.45490051180E+02 -0.16300908745E+02  0.36121100552E+02  0.60330740816E+02  0.00000000000E+00 0. -1.
</event>
<event>
 7    1  0.6849590E-009  0.8381043E+02  0.7561462E-02  0.1318573E+00
          2   -1    0    0  501    0  0.00000000000E+00  0.00000000000E+00  0.15677754748E+03  0.15677754748E+03  0.00000000000E+00 0. -1.
         -2   -1    0    0    0  501 -0.00000000000E+00 -0.00000000000E+00 -0.83451282146E+02  0.83451282146E+02  0.00000000000E+00 0.  1.
         23    2    1    2    0    0 -0.17166162626E+02  0.31109981027E+02  0.18573825052E+02  0.99247729471E+02  0.90788858179E+02 0.  0.
          5    1    1    2  502    0  0.46155287580E+02 -0.22764251253E+02 -0.23708978392E+02  0.56816456798E+02  0.41800000000E+01 0.  1.
         -5    1    1    2    0  502 -0.28989124954E+02 -0.83457297738E+01  0.78461418673E+02  0.84164643356E+02  0.41800000000E+01 0.  1.
        -11    1    3    3    0    0  0.27938229349E+02  0.29163709234E+02  0.32676265861E+02  0.51950023542E+02  0.00000000000E+00 0. -1.
         11    1    3    3    0    0 -0.45104391975E+02  0.19462717929E+01 -0.14102440809E+02  0.47297705929E+02  0.00000000000E+00 0.  1.
</event>
<event>
 8    1  0.6849590E-009  0.7819224E+02  0.7561462E-02  0.1334261E+00
          2   -1    0    0  501    0  0.00000000000E+00  0.00000000000E+00  0.15801971882E+03  0.15801971882E+03  0.00000000000E+00 0. -1.
         -2   -1    0    0    0  501 -0.00000000000E+00 -0.00000000000E+00 -0.98600291601E+02  0.98600291601E+02  0.00000000000E+00 0.  1.
         25    2    1    2    0    0 -0.40600268132E+02 -0.39555068009E+02  0.51363193244E+02  0.14662354500E+03  0.12508917279E+03 0.  0.
         23    2    1    2    0    0  0.40600268132E+02  0.39555068009E+02  0.80562339761E+01  0.10999646543E+03  0.93921958682E+02 0.  0.
          5    1    3    3  502    0 -0.46017236159E+02 -0.39218231366E+02  0.89382270966E+02  0.10799221480E+03  0.41800000000E+01 0.  1.
         -5    1    3    3    0  502  0.54169680270E+01 -0.33683664301E+00 -0.38019077722E+02  0.38631330192E+02  0.41800000000E+01 0.  1.
        -11    1    4    4    0    0 -0.15618423108E+01  0.46216192621E+02  0.36321297164E+02  0.58801466304E+02  0.00000000000E+00 0. -1.
         11    1    4    4    0    0  0.42162110443E+02 -0.66611246115E+01 -0.28265063188E+02  0.51194999122E+02  0.00000000000E+00 0.  1.
</event>
<event>
 8    1  0.6849590E-009  0.1046357E+03  0.7561462E-02  0.1270839E+00
         -1   -1    0    0    0  501 -0.00000000000E+00  0.00000000000E+00  0.20406494646E+02  0.20406494646E+02  0.00000000000E+00 0.  1.
          1   -1    0    0  501    0  0.00000000000E+00 -0.00000000000E+00 -0.68433976695E+03  0.68433976695E+03  0.00000000000E+00 0. -1.
         25    2    1    2    0    0 -0.11972756236E+02 -0.40230776731E+02 -0.29313719815E+03  0.32146818591E+03  0.12510201968E+03 0.  0.
         23    2    1    2    0    0  0.11972756236E+02  0.40230776731E+02 -0.37079607416E+03  0.38327807568E+03  0.87467093248E+02 0.  0.
          5    1    3    3  502    0 -0.19010113281E+02 -0.74604416149E+02 -0.26590389878E+03  0.27685656775E+03  0.41800000000E+01 0.  1.
         -5    1    3    3    0  502  0.70373570451E+01  0.34373639418E+02 -0.27233299361E+02  0.44611618163E+02  0.41800000000E+01 0.  1.
        -11    1    4    4    0    0 -0.35953897353E+02  0.32149883697E+02 -0.17294244039E+03  0.17954215506E+03  0.00000000000E+00 0.  1.
         11    1    4    4    0    0  0.47926653589E+02  0.80808930345E+01 -0.19785363377E+03  0.20373592062E+03  0.00000000000E+00 0. -1.
</event>
<event>
 8    1  0.6849590E-009  0.8088688E+02  0.7561462E-02  0.1326553E+00
         -1   -1    0    0    0  501 -0.00000000000E+00  0.00000000000E+00  0.80395850309E+03  0.80395850309E+03  0.00000000000E+00 0.  1.
          1   -1    0    0  501    0  0.00000000000E+00 -0.00000000000E+00 -0.17058255106E+02  0.17058255106E+02  0.00000000000E+00 0. -1.
         25    2    1    2    0    0 -0.26959207946E+02 -0.27634209968E+02  0.51627411820E+03  0.53261316041E+03  0.12508942827E+03 0.  0.
         23    2    1    2    0    0  0.26959207946E+02  0.27634209968E+02  0.27062612978E+03  0.28840359778E+03  0.91911286796E+02 0.  0.
          5    1    3    3  502    0 -0.34063337928E+02 -0.11323464353E+01  0.30144662714E+02  0.45692081255E+02  0.41800000000E+01 0. -1.
         -5    1    3    3    0  502  0.71041299825E+01 -0.26501863533E+02  0.48612945549E+03  0.48692107915E+03  0.41800000000E+01 0. -1.
        -11    1    4    4    0    0 -0.15082007128E+02 -0.26890664096E+02  0.85405584954E+02  0.90800268149E+02  0.00000000000E+00 0.  1.
         11    1    4    4    0    0  0.42041215074E+02  0.54524874065E+02  0.18522054483E+03  0.19760332963E+03  0.00000000000E+00 0. -1.
</event>
<event>
 8    1  0.6849590E-009  0.1308886E+03  0.7561462E-02  0.1226143E+00
         -4   -1    0    0    0  501 -0.00000000000E+00  0.00000000000E+00  0.14192068997E+04  0.14192068997E+04  0.00000000000E+00 0.  1.
          4   -1    0    0  501    0  0.00000000000E+00 -0.00000000000E+00 -0.13847129923E+02  0.13847129923E+02  0.00000000000E+00 0. -1.
         25    2    1    2    0    0 -0.26472867168E+02 -0.88129199648E+02  0.89414189874E+03  0.90752686068E+03  0.12509076402E+03 0.  0.
         23    2    1    2    0    0  0.26472867168E+02  0.88129199648E+02  0.51121787100E+03  0.52552716891E+03  0.79796773776E+02 0.  0.
          5    1    3    3  502    0  0.58795334329E+01 -0.10596093854E+03  0.47446538408E+03  0.48620691326E+03  0.41800000000E+01 0.  1.
         -5    1    3    3    0  502 -0.32352400601E+02  0.17831738891E+02  0.41967651467E+03  0.42131994742E+03  0.41800000000E+01 0.  1.
        -11    1    4    4    0    0 -0.26206080165E+02  0.33047110151E+02  0.24540771546E+03  0.24900565643E+03  0.00000000000E+00 0.  1.
         11    1    4    4    0    0  0.52678947332E+02  0.55082089498E+02  0.26581015554E+03  0.27652151248E+03  0.00000000000E+00 0. -1.
</event>
<event>
 8    1  0.6849590E-009  0.9449700E+02  0.7561462E-02  0.1292313E+00
          2   -1    0    0  501    0  0.00000000000E+00  0.00000000000E+00  0.66111060763E+03  0.66111060763E+03  0.00000000000E+00 0. -1.
         -2   -1    0    0    0  501 -0.00000000000E+00 -0.00000000000E+00 -0.24707693539E+02  0.24707693539E+02  0.00000000000E+00 0.  1.
         25    2    1    2    0    0  0.12278522502E+02 -0.15511537002E+02  0.50343199979E+03  0.51911778171E+03  0.12509245773E+03 0.  0.
         23    2    1    2    0    0 -0.12278522502E+02  0.15511537002E+02  0.13297091431E+03  0.16670051946E+03  0.98571949571E+02 0.  0.
          5    1    3    3  502    0  0.63475113152E+01 -0.59264480507E+02  0.42360311151E+03  0.42779625762E+03  0.41800000000E+01 0. -1.
         -5    1    3    3    0  502  0.59310111866E+01  0.43752943505E+02  0.79828888274E+02  0.91321524090E+02  0.41800000000E+01 0. -1.
        -11    1    4    4    0    0  0.41440971262E+00  0.49040642431E+02  0.29585213752E+02  0.57275136126E+02  0.00000000000E+00 0.  1.
         11    1    4    4    0    0 -0.12692932214E+02 -0.33529105429E+02  0.10338570055E+03  0.10942538334E+03  0.00000000000E+00 0. -1.
</event>
<event>
 8    1  0.6849590E-009  0.2937081E+03  0.7561462E-02  0.1088429E+00
          2   -1    0    0  501    0  0.00000000000E+00  0.00000000000E+00  0.96284624321E+03  0.96284624321E+03  0.00000000000E+00 0. -1.
         -2   -1    0    0    0  501 -0.00000000000E+00 -0.00000000000E+00 -0.11578220160E+03  0.11578220160E+03  0.00000000000E+00 0.  1.
         25    2    1    2    0    0 -0.25800077857E+03  0.11650332503E+03  0.65398674049E+03  0.72352267478E+03  0.12509587400E+03 0.  0.
         23    2    1    2    0    0  0.25800077857E+03 -0.11650332503E+03  0.19307730112E+03  0.35510577003E+03  0.93187108658E+02 0.  0.
          5    1    3    3  502    0 -0.13318223974E+03  0.95931448751E+02  0.48736406467E+03  0.51427770297E+03  0.41800000000E+01 0.  1.
         -5    1    3    3    0  502 -0.12481853882E+03  0.20571876274E+02  0.16662267582E+03  0.20924497180E+03  0.41800000000E+01 0.  1.
        -11    1    4    4    0    0  0.18918380840E+03 -0.39278646667E+02  0.10925639740E+03  0.22196911005E+03  0.00000000000E+00 0.  1.
         11    1    4    4    0    0  0.68816970167E+02 -0.77224678359E+02  0.83820903715E+02  0.13313665998E+03  0.00000000000E+00 0. -1.
</event>
<event>
 8    1  0.6849590E-009  0.1926264E+03  0.7561462E-02  0.1156114E+00
          1   -1    0    0  501    0  0.00000000000E+00  0.00000000000E+00  0.40882786703E+03  0.40882786703E+03  0.00000000000E+00 0. -1.
         -1   -1    0    0    0  501 -0.00000000000E+00 -0.00000000000E+00 -0.10029805845E+03  0.10029805845E+03  0.00000000000E+00 0.  1.
         25    2    1    2    0    0 -0.11597496718E+03 -0.12554710798E+03  0.16975554472E+03  0.27143442326E+03  0.12508969516E+03 0.  0.
         23    2    1    2    0    0  0.11597496718E+03  0.12554710798E+03  0.13877426386E+03  0.23769150222E+03  0.89591766262E+02 0.  0.
          5    1    3    3  502    0  0.13824106639E+02  0.55692381323E+01  0.47773942885E+02  0.50218964113E+02  0.41800000000E+01 0.  1.
         -5    1    3    3    0  502 -0.12979907382E+03 -0.13111634611E+03  0.12198160184E+03  0.22121545915E+03  0.41800000000E+01 0.  1.
        -11    1    4    4    0    0  0.37109208021E+02  0.16934033473E+00  0.38093926989E+01  0.37304603855E+02  0.00000000000E+00 0.  1.
         11    1    4    4    0    0  0.78865759156E+02  0.12537776764E+03  0.13496487116E+03  0.20038689836E+03  0.00000000000E+00 0. -1.
</event>
<event>
 8    1  0.6849590E-009  0.1098892E+03  0.7561462E-02  0.1260775E+00
         -1   -1    0    0    0  501 -0.00000000000E+00  0.00000000000E+00  0.21324559998E+02  0.21324559998E+02  0.00000000000E+00 0.  1.
          1   -1    0    0  501    0  0.00000000000E+00 -0.00000000000E+00 -0.76256271328E+03  0.76256271328E+03  0.00000000000E+00 0. -1.
         25    2    1    2    0    0  0.41408505395E+02  0.49339424318E+02 -0.46984342252E+03  0.49045901926E+03  0.12509262478E+03 0.  0.
         23    2    1    2    0    0 -0.41408505395E+02 -0.49339424318E+02 -0.27139473076E+03  0.29342825402E+03  0.91082365264E+02 0.  0.
          5    1    3    3  502    0 -0.98141673616E+01  0.57317471848E+02 -0.39523731531E+03  0.39951422787E+03  0.41800000000E+01 0.  1.
         -5    1    3    3    0  502  0.51222672756E+02 -0.79780475297E+01 -0.74606107212E+02  0.90944791385E+02  0.41800000000E+01 0.  1.
        -11    1    4    4    0    0  0.48088168579E+01 -0.61492147718E+02 -0.18031842946E+03  0.19057582468E+03  0.00000000000E+00 0. -1.
         11    1    4    4    0    0 -0.46217322253E+02  0.12152723400E+02 -0.91076301305E+02  0.10285242934E+03  0.00000000000E+00 0.  1.
</event>
<event>
 8    1  0.6849590E-009  0.6961619E+02  0.7561462E-02  0.1361403E+00
          4   -1    0    0  501    0  0.00000000000E+00  0.00000000000E+00  0.13899819763E+03  0.13899819763E+03  0.00000000000E+00 0. -1.
         -4   -1    0    0    0  501 -0.00000000000E+00 -0.00000000000E+00 -0.98359740702E+02  0.98359740702E+02  0.00000000000E+00 0.  1.
         25    2    1    2    0    0  0.68926486934E+01 -0.79969570850E+01  0.66585187096E+02  0.14209999717E+03  0.12508941652E+03 0.  0.
         23    2    1    2    0    0 -0.68926486934E+01  0.79969570850E+01 -0.25946730170E+02  0.95257941162E+02  0.91046046697E+02 0.  0.
          5    1    3    3  502    0 -0.13691987245E+01 -0.28400478559E+02 -0.30826251849E+02  0.42144894004E+02  0.41800000000E+01 0. -1.
         -5    1    3    3    0  502  0.82618474179E+01  0.20403521474E+02  0.97411438945E+02  0.99955103165E+02  0.41800000000E+01 0. -1.
        -11    1    4    4    0    0  0.25897133701E+02 -0.28846467120E+02 -0.24611352163E+02  0.45918393423E+02  0.00000000000E+00 0.  1.
         11    1    4    4    0    0 -0.32789782395E+02  0.36843424205E+02 -0.13353780073E+01  0.49339547739E+02  0.00000000000E+00 0. -1.
</event>
<event>
 8    1  0.6849590E-009  0.1548677E+03  0.7561462E-02  0.1194616E+00
         -1   -1    0    0    0  501 -0.00000000000E+00  0.00000000000E+00  0.30265078943E+02  0.30265078943E+02  0.00000000000E+00 0.  1.
          1   -1    0    0  501    0  0.00000000000E+00 -0.00000000000E+00 -0.88596422687E+03  0.88596422687E+03  0.00000000000E+00 0. -1.
         25    2    1    2    0    0 -0.56037848485E+02  0.10855389891E+03 -0.41935428098E+03  0.45434589474E+03  0.12509192484E+03 0.  0.
         23    2    1    2    0    0  0.56037848485E+02 -0.10855389891E+03 -0.43634486695E+03  0.46188341108E+03  0.89527945812E+02 0.  0.
          5    1    3    3  502    0  0.69520651596E+01  0.93125948415E+02 -0.33537308286E+03  0.34815707746E+03  0.41800000000E+01 0. -1.
         -5    1    3    3    0  502 -0.62989913645E+02  0.15427950498E+02 -0.83981198112E+02  0.10618881727E+03  0.41800000000E+01 0. -1.
        -11    1    4    4    0    0  0.79366014099E+01 -0.10248045068E+03 -0.30701686487E+03  0.32376625477E+03  0.00000000000E+00 0.  1.
         11    1    4    4    0    0  0.48101247075E+02 -0.60734482301E+01 -0.12932800208E+03  0.13811715631E+03  0.00000000000E+00 0. -1.
</event>
<event>
 8    1  0.6849590E-009  0.3654027E+03  0.7561462E-02  0.1056465E+00
          1   -1    0    0  501    0  0.00000000000E+00  0.00000000000E+00  0.73854750565E+03  0.73854750565E+03  0.00000000000E+00 0. -1.
         -1   -1    0    0    0  501 -0.00000000000E+00 -0.00000000000E+00 -0.18797885903E+03  0.18797885903E+03  0.00000000000E+00 0.  1.
         25    2    1    2    0    0  0.31085084692E+03  0.17369584910E+03  0.29101478479E+03  0.47658790265E+03  0.12509167424E+03 0.  0.
         23    2    1    2    0    0 -0.31085084692E+03 -0.17369584910E+03  0.25955386183E+03  0.44993846203E+03  0.90983050065E+02 0.  0.
          5    1    3    3  502    0  0.26659690914E+03  0.18919854687E+03  0.27386373306E+03  0.42648425386E+03  0.41800000000E+01 0. -1.
         -5    1    3    3    0  502  0.44253937780E+02 -0.15502697770E+02  0.17151051721E+02  0.50103648793E+02  0.41800000000E+01 0. -1.
        -11    1    4    4    0    0 -0.28959710125E+02 -0.90524614117E+01 -0.37004981818E+01  0.30566412202E+02  0.00000000000E+00 0.  1.
         11    1    4    4    0    0 -0.28189113680E+03 -0.16464338768E+03  0.26325436001E+03  0.41937204983E+03  0.00000000000E+00 0. -1.
</event>
<event>
 7    1  0.6849590E-009  0.1868160E+03  0.7561462E-02  0.1161365E+00
          2   -1    0    0  501    0  0.00000000000E+00  0.00000000000E+00  0.27232752388E+03  0.27232752388E+03  0.00000000000E+00 0. -1.
         -2   -1    0    0    0  501 -0.00000000000E+00 -0.00000000000E+00 -0.16787290449E+03  0.16787290449E+03  0.00000000000E+00 0.  1.
         23    2    1    2    0    0  0.49468545769E+01 -0.17183867527E+03  0.11518334283E+03  0.22756878097E+03  0.94696071311E+02 0.  0.
          5    1    1    2  502    0 -0.25950175796E+02  0.80971252213E+00 -0.29181401650E+02  0.39282233395E+02  0.41800000000E+01 0. -1.
         -5    1    1    2    0  502  0.21003321219E+02  0.17102896274E+03  0.18452678216E+02  0.17334941400E+03  0.41800000000E+01 0. -1.
        -11    1    3    3    0    0 -0.10443280263E+02 -0.12951462854E+03  0.33325971419E+02  0.13414067795E+03  0.00000000000E+00 0.  1.
         11    1    3    3    0    0  0.15390134840E+02 -0.42324046725E+02  0.81857371407E+02  0.93428103027E+02  0.00000000000E+00 0. -1.
</event>
<event>
 8    1  0.6849590E-009  0.7390798E+02  0.7561462E-02  0.1347286E+00
         -3   -1    0    0    0  501 -0.00000000000E+00  0.00000000000E+00  0.17495390766E+03  0.17495390766E+03  0.00000000000E+00 0.  1.
          3   -1    0    0  501    0  0.00000000000E+00 -0.00000000000E+00 -0.14539224112E+03  0.14539224112E+03  0.00000000000E+00 0. -1.
         25    2    1    2    0    0 -0.27654710129E+02  0.64563274146E+01 -0.97658559677E+02  0.16122058694E+03  0.12509362981E+03 0.  0.
         23    2    1    2    0    0  0.27654710129E+02 -0.64563274146E+01  0.12722022621E+03  0.15912556184E+03  0.91266046902E+02 0.  0.
          5    1    3    3  502    0 -0.98359278450E+01  0.35842624867E+02  0.17265866816E+02  0.41194924334E+02  0.41800000000E+01 0.  1.
         -5    1    3    3    0  502 -0.17818782284E+02 -0.29386297453E+02 -0.11492442649E+03  0.12002566261E+03  0.41800000000E+01 0.  1.
        -11    1    4    4    0    0  0.76364195309E+01 -0.37821712549E+02  0.11280535262E+03  0.11922182863E+03  0.00000000000E+00 0.  1.
         11    1    4    4    0    0  0.20018290598E+02  0.31365385134E+02  0.14414873594E+02  0.39903733206E+02  0.00000000000E+00 0. -1.
</event>
<event>
 8    1  0.6849590E-009  0.9128288E+02  0.7561462E-02  0.1299774E+00
         -3   -1    0    0    0  501 -0.00000000000E+00  0.00000000000E+00  0.55578407116E+03  0.55578407116E+03  0.00000000000E+00 0. -1.
          3   -1    0    0  501    0  0.00000000000E+00 -0.00000000000E+00 -0.25243199570E+02  0.25243199570E+02  0.00000000000E+00 0.  1.
         25    2    1    2    0    0 -0.27462598377E+02  0.18990869832E+01  0.32348650920E+03  0.34791959274E+03  0.12508685197E+03 0.  0.
         23    2    1    2    0    0  0.27462598377E+02 -0.18990869832E+01  0.20705436239E+03  0.23310767799E+03  0.10348854871E+03 0.  0.
          5    1    3    3  502    0  0.23520259047E+02 -0.42695905159E+01  0.43544622642E+01  0.24654933187E+02  0.41800000000E+01 0.  1.
         -5    1    3    3    0  502 -0.50982857424E+02  0.61686774991E+01  0.31913204693E+03  0.32326465955E+03  0.41800000000E+01 0.  1.
        -11    1    4    4    0    0 -0.28385032448E+02  0.30939031023E+02  0.90256358115E+02  0.99544682871E+02  0.00000000000E+00 0. -1.
         11    1    4    4    0    0  0.55847630825E+02 -0.32838118007E+02  0.11679800427E+03  0.13356299512E+03  0.00000000000E+00 0.  1.
</event>
<event>
 8    1  0.6849590E-009  0.2285587E+03  0.7561462E-02  0.1127658E+00
         -1   -1    0    0    0  501 -0.00000000000E+00  0.00000000000E+00  0.63011121452E+02  0.63011121452E+02  0.00000000000E+00 0.  1.
          1   -1    0    0  501    0  0.00000000000E+00 -0.00000000000E+00 -0.95294224365E+03  0.95294224365E+03  0.00000000000E+00 0. -1.
         25    2    1    2    0    0  0.16412060308E+03  0.14261957508E+03 -0.51908724829E+03  0.57651941316E+03  0.12508855608E+03 0.  0.
         23    2    1    2    0    0 -0.16412060308E+03 -0.14261957508E+03 -0.37084387390E+03  0.43943395193E+03  0.91110393211E+02 0.  0.
          5    1    3    3  502    0  0.10438179199E+03  0.12413146857E+03 -0.23475822967E+03  0.28536481701E+03  0.41800000000E+01 0. -1.
         -5    1    3    3    0  502  0.59738811087E+02  0.18488106518E+02 -0.28432901862E+03  0.29115459615E+03  0.41800000000E+01 0. -1.
        -11    1    4    4    0    0 -0.13242353021E+03 -0.14955551041E+03 -0.28829922999E+03  0.35074105557E+03  0.00000000000E+00 0.  1.
         11    1    4    4    0    0 -0.31697072864E+02  0.69359353311E+01 -0.82544643910E+02  0.88692896363E+02  0.00000000000E+00 0. -1.
</event>
<event>
 8    1  0.6849590E-009  0.1076901E+03  0.7561462E-02  0.1264908E+00
         -4   -1    0    0    0  501 -0.00000000000E+00  0.00000000000E+00  0.12851788736E+03  0.12851788736E+03  0.00000000000E+00 0.  1.
          4   -1    0    0  501    0  0.00000000000E+00 -0.00000000000E+00 -0.37809474221E+03  0.37809474221E+03  0.00000000000E+00 0. -1.
         25    2    1    2    0    0  0.66677030962E+01 -0.65568603079E+02  0.75832880553E+02  0.16044254565E+03  0.12508990650E+03 0.  0.
         23    2    1    2    0    0 -0.66677030962E+01  0.65568603079E+02 -0.32540973541E+03  0.34617008392E+03  0.97972093609E+02 0.  0.
          5    1    3    3  502    0  0.36733158136E+02 -0.18569245022E+02 -0.22657659452E+02  0.47169732872E+02  0.41800000000E+01 0.  1.
         -5    1    3    3    0  502 -0.30065455040E+02 -0.46999358057E+02  0.98490540006E+02  0.11327281278E+03  0.41800000000E+01 0.  1.
        -11    1    4    4    0    0 -0.44034849168E+02  0.17062769096E+01 -0.12441087549E+03  0.13198501909E+03  0.00000000000E+00 0. -1.
         11    1    4    4    0    0  0.37367146072E+02  0.63862326169E+02 -0.20099885992E+03  0.21418506483E+03  0.00000000000E+00 0.  1.
</event>
<event>
 8    1  0.6849590E-009  0.1194023E+03  0.7561462E-02  0.1244086E+00
          1   -1    0    0  501    0  0.00000000000E+00  0.00000000000E+00  0.27304520899E+03  0.27304520899E+03  0.00000000000E+00 0. -1.
         -1   -1    0    0    0  501 -0.00000000000E+00 -0.00000000000E+00 -0.82616266349E+02  0.82616266349E+02  0.00000000000E+00 0.  1.
         25    2    1    2    0    0 -0.32648862598E+02 -0.47556462777E+02  0.14362417153E+01  0.13775104889E+03  0.12508286573E+03 0.  0.
         23    2    1    2    0    0  0.32648862598E+02  0.47556462777E+02  0.18899270093E+03  0.21791042645E+03  0.91864833150E+02 0.  0.
          5    1    3    3  502    0  0.32818871222E+02  0.20026711864E+02  0.17076137566E+02  0.42275458253E+02  0.41800000000E+01 0.  1.
         -5    1    3    3    0  502 -0.65467733820E+02 -0.67583174641E+02 -0.15639895851E+02  0.95475590641E+02  0.41800000000E+01 0.  1.
        -11    1    4    4    0    0  0.62770196921E+02  0.41422565631E+02  0.15366411875E+03  0.17108064752E+03  0.00000000000E+00 0. -1.
         11    1    4    4    0    0 -0.30121334323E+02  0.61338971464E+01  0.35328582180E+02  0.46829778928E+02  0.00000000000E+00 0.  1.
</event>
<event>
 8    1  0.6849590E-009  0.1074291E+03  0.7561462E-02  0.1265406E+00
         -1   -1    0    0    0  501 -0.00000000000E+00  0.00000000000E+00  0.14047388063E+03  0.14047388063E+03  0.00000000000E+00 0.  1.
          1   -1    0    0  501    0  0.00000000000E+00 -0.00000000000E+00 -0.18545342209E+03  0.18545342209E+03  0.00000000000E+00 0. -1.
         25    2    1    2    0    0 -0.17554433451E+02 -0.63627377944E+02 -0.12263969032E+03  0.18720240870E+03  0.12509055450E+03 0.  0.
         23    2    1    2    0    0  0.17554433451E+02  0.63627377944E+02  0.77660148864E+02  0.13872489401E+03  0.94111084042E+02 0.  0.
          5    1    3    3  502    0 -0.91517767598E+01 -0.80226159269E+02 -0.20655971535E+02  0.83451382308E+02  0.41800000000E+01 0.  1.
         -5    1    3    3    0  502 -0.84026566909E+01  0.16598781326E+02 -0.10198371879E+03  0.10375102640E+03  0.41800000000E+01 0.  1.
        -11    1    4    4    0    0 -0.25712539438E+02  0.66774722063E+02  0.49414513830E+02  0.86958566961E+02  0.00000000000E+00 0.  1.
         11    1    4    4    0    0  0.43266972889E+02 -0.31473441187E+01  0.28245635034E+02  0.51766327052E+02  0.00000000000E+00 0. -1.
</event>
<event>
 8    1  0.6849590E-009  0.1302200E+03  0.7561462E-02  0.1227130E+00
         -1   -1    0    0    0  501 -0.00000000000E+00  0.00000000000E+00  0.84509884547E+02  0.84509884547E+02  0.00000000000E+00 0.  1.
          1   -1    0    0  501    0  0.00000000000E+00 -0.00000000000E+00 -0.25795060040E+03  0.25795060040E+03  0.00000000000E+00 0. -1.
         25    2    1    2    0    0  0.19050902157E+02  0.73234734609E+02 -0.16472310656E+03  0.22024564859E+03  0.12509268828E+03 0.  0.
         23    2    1    2    0    0 -0.19050902157E+02 -0.73234734609E+02 -0.87176092916E+01  0.12221483636E+03  0.95573041641E+02 0.  0.
          5    1    3    3  502    0  0.14905176150E+02  0.10625583956E+03 -0.14776872614E+03  0.18266235666E+03  0.41800000000E+01 0. -1.
         -5    1    3    3    0  502  0.41457260067E+01 -0.33021104952E+02 -0.16954380423E+02  0.37583291925E+02  0.41800000000E+01 0. -1.
        -11    1    4    4    0    0 -0.76317724777E+01  0.22163921546E+02  0.78431488706E+01  0.24718380887E+02  0.00000000000E+00 0.  1.
         11    1    4    4    0    0 -0.11419129679E+02 -0.95398656155E+02 -0.16560758162E+02  0.97496455473E+02  0.00000000000E+00 0. -1.
</event>
<event>
 8    1  0.6849590E-009  0.4948380E+02  0.7561462E-02  0.1448146E+00
          2   -1    0    0  501    0  0.00000000000E+00  0.00000000000E+00  0.61807803338E+02  0.61807803338E+02  0.00000000000E+00 0. -1.
         -2   -1    0    0    0  501 -0.00000000000E+00 -0.00000000000E+00 -0.23489995778E+03  0.23489995778E+03  0.00000000000E+00 0.  1.
         25    2    1    2    0    0 -0.25456137299E+02 -0.14154180269E+02 -0.14589008768E+03  0.19437091852E+03  0.12509108896E+03 0.  0.
         23    2    1    2    0    0  0.25456137299E+02  0.14154180269E+02 -0.27202066766E+02  0.10233684260E+03  0.94257737994E+02 0.  0.
          5    1    3    3  502    0  0.15767476503E+02 -0.76735062503E+01  0.17835745419E+02  0.25359065994E+02  0.41800000000E+01 0.  1.
         -5    1    3    3    0  502 -0.41223613802E+02 -0.64806740187E+01 -0.16372583310E+03  0.16901185253E+03  0.41800000000E+01 0.  1.
        -11    1    4    4    0    0  0.15861582112E+02 -0.57776689769E+01  0.33618282700E+02  0.37618614775E+02  0.00000000000E+00 0. -1.
         11    1    4    4    0    0  0.95945551866E+01  0.19931849246E+02 -0.60820349466E+02  0.64718227824E+02  0.00000000000E+00 0.  1.
</event>
<event>
 8    1  0.6849590E-009  0.1181274E+03  0.7561462E-02  0.1246219E+00
         -2   -1    0    0    0  501 -0.00000000000E+00  0.00000000000E+00  0.23915324212E+02  0.23915324212E+02  0.00000000000E+00 0.  1.
          2   -1    0    0  501    0  0.00000000000E+00 -0.00000000000E+00 -0.99316063709E+03  0.99316063709E+03  0.00000000000E+00 0. -1.
         25    2    1    2    0    0  0.93067975145E+02 -0.58127894620E+01 -0.33645217978E+03  0.37086848548E+03  0.12509167727E+03 0.  0.
         23    2    1    2    0    0 -0.93067975145E+02  0.58127894620E+01 -0.63279313310E+03  0.64620747583E+03  0.91986499002E+02 0.  0.
          5    1    3    3  502    0 -0.35309382931E+01 -0.11538898517E+02  0.66207722054E+01  0.14384739442E+02  0.41800000000E+01 0.  1.
         -5    1    3    3    0  502  0.96598913438E+02  0.57261090554E+01 -0.34307295199E+03  0.35648374603E+03  0.41800000000E+01 0.  1.
        -11    1    4    4    0    0 -0.90766978282E+02 -0.26245084523E+02 -0.53467715652E+03  0.54296142635E+03  0.00000000000E+00 0. -1.
         11    1    4    4    0    0 -0.23009968632E+01  0.32057873985E+02 -0.98115976583E+02  0.10324604947E+03  0.00000000000E+00 0.  1.
</event>
<event>
 8    1  0.6849590E-009  0.1869360E+03  0.7561462E-02  0.1161254E+00
          2   -1    0    0  501    0  0.00000000000E+00  0.00000000000E+00  0.12627663365E+04  0.12627663365E+04  0.00000000000E+00 0.  1.
         -2   -1    0    0    0  501 -0.00000000000E+00 -0.00000000000E+00 -0.31480651913E+02  0.31480651913E+02  0.00000000000E+00 0. -1.
         25    2    1    2    0    0 -0.94912478026E+02  0.13359375220E+03  0.76796241242E+03  0.79515409078E+03  0.12509233425E+03 0.  0.
         23    2    1    2    0    0  0.94912478026E+02 -0.13359375220E+03  0.46332327219E+03  0.49909289765E+03  0.87003429949E+02 0.  0.
          5    1    3    3  502    0  0.26103026444E+02  0.37178770785E+02  0.26551876873E+03  0.26940920166E+03  0.41800000000E+01 0. -1.
         -5    1    3    3    0  502 -0.12101550447E+03  0.96414981413E+02  0.50244364368E+03  0.52574488913E+03  0.41800000000E+01 0. -1.
        -11    1    4    4    0    0  0.36368866190E+02 -0.11631751193E+02  0.19375922048E+03  0.19748576553E+03  0.00000000000E+00 0.  1.
         11    1    4    4    0    0  0.58543611836E+02 -0.12196200100E+03  0.26956405171E+03  0.30160713213E+03  0.00000000000E+00 0. -1.
</event>
<event>
 8    1  0.6849590E-009  0.1480075E+03  0.7561462E-02  0.1202943E+00
          1   -1    0    0  501    0  0.00000000000E+00  0.00000000000E+00  0.35392347224E+03  0.35392347224E+03  0.00000000000E+00 0. -1.
         -1   -1    0    0    0  501 -0.00000000000E+00 -0.00000000000E+00 -0.75698424876E+02  0.75698424876E+02  0.00000000000E+00 0.  1.
         25    2    1    2    0    0 -0.11721246681E+03  0.22260557839E+02  0.18216404875E+03  0.25114460480E+03  0.12512224843E+03 0.  0.
         23    2    1    2    0    0  0.11721246681E+03 -0.22260557839E+02  0.96060998618E+02  0.17847729232E+03  0.91608589157E+02 0.  0.
          5    1    3    3  502    0  0.22422052087E+02 -0.87622859539E+01  0.79519979443E+01  0.25694994576E+02  0.41800000000E+01 0.  1.
         -5    1    3    3    0  502 -0.13963451890E+03  0.31022843793E+02  0.17421205080E+03  0.22544961022E+03  0.41800000000E+01 0.  1.
        -11    1    4    4    0    0  0.40939632887E+02  0.14990589502E+02  0.81395455362E+02  0.92336295508E+02  0.00000000000E+00 0. -1.
         11    1    4    4    0    0  0.76272833922E+02 -0.37251147341E+02  0.14665543256E+02  0.86140996811E+02  0.00000000000E+00 0.  1.
</event>
<event>
 8    1  0.6849590E-009  0.9844074E+02  0.7561462E-02  0.1283609E+00
         -2   -1    0    0    0  501 -0.00000000000E+00  0.00000000000E+00  0.52230096046E+02  0.52230096046E+02  0.00000000000E+00 0. -1.
          2   -1    0    0  501    0  0.00000000000E+00 -0.00000000000E+00 -0.40906732189E+03  0.40906732189E+03  0.00000000000E+00 0.  1.
         25    2    1    2    0    0 -0.30023102334E+02  0.78404918879E+02 -0.11456206341E+03  0.18926514736E+03  0.12509241245E+03 0.  0.
         23    2    1    2    0    0  0.30023102334E+02 -0.78404918879E+02 -0.24227516244E+03  0.27203227058E+03  0.90860243927E+02 0.  0.
          5    1    3    3  502    0 -0.76570315174E+01  0.33955815272E+01  0.26380573415E+02  0.27992269634E+02  0.41800000000E+01 0.  1.
         -5    1    3    3    0  502 -0.22366070817E+02  0.75009337351E+02 -0.14094263682E+03  0.16127287772E+03  0.41800000000E+01 0.  1.
        -11    1    4    4    0    0 -0.22945292695E+02 -0.23274363776E+02 -0.23420556620E+02  0.40208269528E+02  0.00000000000E+00 0. -1.
         11    1    4    4    0    0  0.52968395029E+02 -0.55130555102E+02 -0.21885460582E+03  0.23182400105E+03  0.00000000000E+00 0.  1.
</event>
<event>
 8    1  0.6849590E-009  0.2254164E+03  0.7561462E-02  0.1129908E+00
         -1   -1    0    0    0  501 -0.00000000000E+00  0.00000000000E+00  0.20690284492E+03  0.20690284492E+03  0.00000000000E+00 0.  1.
          1   -1    0    0  501    0  0.00000000000E+00 -0.00000000000E+00 -0.31257785089E+03  0.31257785089E+03  0.00000000000E+00 0. -1.
         25    2    1    2    0    0 -0.79935403167E+02 -0.19191196734E+03  0.44968581910E+02  0.24675833736E+03  0.12509049449E+03 0.  0.
         23    2    1    2    0    0  0.79935403167E+02  0.19191196734E+03 -0.15064358788E+03  0.27272235844E+03  0.92000664864E+02 0.  0.
          5    1    3    3  502    0  0.27172108414E+02 -0.35328163624E+02  0.34850252468E+02  0.56731077178E+02  0.41800000000E+01 0. -1.
         -5    1    3    3    0  502 -0.10710751158E+03 -0.15658380372E+03  0.10118329442E+02  0.19002726019E+03  0.41800000000E+01 0. -1.
        -11    1    4    4    0    0  0.22279864031E+02  0.81626951398E+01  0.60037204893E+01  0.24475836919E+02  0.00000000000E+00 0.  1.
         11    1    4    4    0    0  0.57655539136E+02  0.18374927220E+03 -0.15664730837E+03  0.24824652152E+03  0.00000000000E+00 0. -1.
</event>
<event>
 8    1  0.6849590E-009  0.1051777E+03  0.7561462E-02  0.1269770E+00
          1   -1    0    0  501    0  0.00000000000E+00  0.00000000000E+00  0.54364096102E+03  0.54364096102E+03  0.00000000000E+00 0. -1.
         -1   -1    0    0    0  501 -0.00000000000E+00 -0.00000000000E+00 -0.29039530020E+02  0.29039530020E+02  0.00000000000E+00 0.  1.
         25    2    1    2    0    0  0.26269991239E+02  0.41665028338E+02  0.37427696221E+03  0.39768828608E+03  0.12508653573E+03 0.  0.
         23    2    1    2    0    0 -0.26269991239E+02 -0.41665028338E+02  0.14032446879E+03  0.17499220496E+03  0.92223794265E+02 0.  0.
          5    1    3    3  502    0 -0.40602035999E+02  0.71496591732E-01  0.53121536291E+02  0.66991793953E+02  0.41800000000E+01 0. -1.
         -5    1    3    3    0  502  0.66872027238E+02  0.41593531746E+02  0.32115542592E+03  0.33069649213E+03  0.41800000000E+01 0. -1.
        -11    1    4    4    0    0  0.55547458418E+01  0.20283721172E+02  0.80431944616E+02  0.83135926414E+02  0.00000000000E+00 0. -1.
         11    1    4    4    0    0 -0.31824737081E+02 -0.61948749509E+02  0.59892524176E+02  0.91856278545E+02  0.00000000000E+00 0.  1.
</event>
<event>
 8    1  0.6849590E-009  0.9493373E+02  0.7561462E-02  0.1291325E+00
          2   -1    0    0  501    0  0.00000000000E+00  0.00000000000E+00  0.47363926691E+03  0.47363926691E+03  0.00000000000E+00 0. -1.
         -2   -1    0    0    0  501 -0.00000000000E+00 -0.00000000000E+00 -0.42204091277E+02  0.42204091277E+02  0.00000000000E+00 0.  1.
         25    2    1    2    0    0 -0.39481169539E+02 -0.52890412969E+02  0.34831980806E+03  0.37593596460E+03  0.12507998346E+03 0.  0.
         23    2    1    2    0    0  0.39481169539E+02  0.52890412969E+02  0.83115367577E+02  0.13990739359E+03  0.91157862638E+02 0.  0.
          5    1    3    3  502    0 -0.67541693689E+02 -0.47127292490E+02  0.33324495366E+03  0.34329656803E+03  0.41800000000E+01 0. -1.
         -5    1    3    3    0  502  0.28060524149E+02 -0.57631204792E+01  0.15074854400E+02  0.32639396569E+02  0.41800000000E+01 0. -1.
        -11    1    4    4    0    0  0.23697510136E+02  0.57349161174E+02  0.99152245108E+02  0.11696865385E+03  0.00000000000E+00 0. -1.
         11    1    4    4    0    0  0.15783659404E+02 -0.44587482044E+01 -0.16036877531E+02  0.22938739736E+02  0.00000000000E+00 0.  1.
</event>
<event>
 8    1  0.6849590E-009  0.2446314E+03  0.7561462E-02  0.1116745E+00
          2   -1    0    0  501    0  0.00000000000E+00  0.00000000000E+00  0.57773660827E+03  0.57773660827E+03  0.00000000000E+00 0. -1.
         -2   -1    0    0    0  501 -0.00000000000E+00 -0.00000000000E+00 -0.12122470293E+03  0.12122470293E+03  0.00000000000E+00 0.  1.
         25    2    1    2    0    0 -0.15289185335E+03  0.18393182294E+03  0.27211278001E+03  0.38327738512E+03  0.12509738041E+03 0.  0.
         23    2    1    2    0    0  0.15289185335E+03 -0.18393182294E+03  0.18439912533E+03  0.31568392608E+03  0.91904675886E+02 0.  0.
          5    1    3    3  502    0 -0.51633456005E+02  0.18851839366E+02  0.79379492884E+01  0.55694605353E+02  0.41800000000E+01 0.  1.
         -5    1    3    3    0  502 -0.10125839735E+03  0.16507998357E+03  0.26417483072E+03  0.32758277977E+03  0.41800000000E+01 0.  1.
        -11    1    4    4    0    0  0.13250401608E+03 -0.14460054163E+03  0.99507804272E+02  0.21992824745E+03  0.00000000000E+00 0.  1.
         11    1    4    4    0    0  0.20387837280E+02 -0.39331281307E+02  0.84891321057E+02  0.95755678625E+02  0.00000000000E+00 0. -1.
</event>
<event>
 7    1  0.6849590E-009  0.1579339E+03  0.7561462E-02  0.1191049E+00
         -3   -1    0    0    0  501 -0.00000000000E+00  0.00000000000E+00  0.10837560679E+03  0.10837560679E+03  0.00000000000E+00 0.  1.
          3   -1    0    0  501    0  0.00000000000E+00 -0.00000000000E+00 -0.23334896159E+03  0.23334896159E+03  0.00000000000E+00 0. -1.
         23    2    1    2    0    0  0.46492439224E+02  0.10474413586E+03 -0.70321419014E+02  0.16377054383E+03  0.93502984728E+02 0.  0.
          5    1    1    2  502    0  0.13466282338E+02 -0.10690771024E+03 -0.24091850280E+02  0.11049203101E+03  0.41800000000E+01 0.  1.
         -5    1    1    2    0  502 -0.59958721562E+02  0.21635743752E+01 -0.30560085499E+02  0.67461993531E+02  0.41800000000E+01 0.  1.
        -11    1    3    3    0    0  0.15309123260E+02  0.11426562385E+03 -0.53909401650E+02  0.12726832141E+03  0.00000000000E+00 0. -1.
         11    1    3    3    0    0  0.31183315963E+02 -0.95214879857E+01 -0.16412017363E+02  0.36502222424E+02  0.00000000000E+00 0.  1.
</event>
<event>
 8    1  0.6849590E-009  0.1430219E+03  0.7561462E-02  0.1209320E+00
          2   -1    0    0  501    0  0.00000000000E+00  0.00000000000E+00  0.10702803222E+03  0.10702803222E+03  0.00000000000E+00 0. -1.
         -2   -1    0    0    0  501 -0.00000000000E+00 -0.00000000000E+00 -0.24547718886E+03  0.24547718886E+03  0.00000000000E+00 0.  1.
         25    2    1    2    0    0  0.49090285048E+02 -0.93954913474E+02 -0.13778029604E+03  0.21416873348E+03  0.12508978604E+03 0.  0.
         23    2    1    2    0    0 -0.49090285048E+02  0.93954913474E+02 -0.66886060304E+00  0.13833648760E+03  0.88877188159E+02 0.  0.
          5    1    3    3  502    0  0.85164702606E+02 -0.66047841636E+02 -0.58729622070E+02  0.12280873285E+03  0.41800000000E+01 0. -1.
         -5    1    3    3    0  502 -0.36074417558E+02 -0.27907071838E+02 -0.79050673972E+02  0.91360000636E+02  0.41800000000E+01 0. -1.
        -11    1    4    4    0    0  0.22001889808E+02  0.25743484107E+02 -0.17920529746E+02  0.38313907598E+02  0.00000000000E+00 0.  1.
         11    1    4    4    0    0 -0.71092174856E+02  0.68211429367E+02  0.17251669143E+02  0.10002258000E+03  0.00000000000E+00 0. -1.
</event>
<event>
 8    1  0.6849590E-009  0.1479273E+03  0.7561462E-02  0.1203043E+00
         -3   -1    0    0    0  501 -0.00000000000E+00  0.00000000000E+00  0.21220477058E+03  0.21220477058E+03  0.00000000000E+00 0.  1.
          3   -1    0    0  501    0  0.00000000000E+00 -0.00000000000E+00 -0.12059853137E+03  0.12059853137E+03  0.00000000000E+00 0. -1.
         25    2    1    2    0    0 -0.11312674851E+03  0.12956387976E+02  0.48942869891E+02  0.17608743594E+03  0.12508337766E+03 0.  0.
         23    2    1    2    0    0  0.11312674851E+03 -0.12956387976E+02  0.42663369321E+02  0.15671586601E+03  0.98864403899E+02 0.  0.
          5    1    3    3  502    0 -0.10269733705E+03 -0.33413455055E+02  0.64551906173E+02  0.12588734252E+03  0.41800000000E+01 0.  1.
         -5    1    3    3    0  502 -0.10429411459E+02  0.46369843031E+02 -0.15609036282E+02  0.50200093424E+02  0.41800000000E+01 0.  1.
        -11    1    4    4    0    0  0.60808241080E+02  0.34084221807E+02 -0.77837460923E+01  0.70142448365E+02  0.00000000000E+00 0. -1.
         11    1    4    4    0    0  0.52318507431E+02 -0.47040609783E+02  0.50447115414E+02  0.86573417641E+02  0.00000000000E+00 0.  1.
</event>
<event>
 8    1  0.6849590E-009  0.7787133E+02  0.7561462E-02  0.1335203E+00
         -2   -1    0    0    0  501 -0.00000000000E+00  0.00000000000E+00  0.17805653331E+03  0.17805653331E+03  0.00000000000E+00 0.  1.
          2   -1    0    0  501    0  0.00000000000E+00 -0.00000000000E+00 -0.77907641637E+02  0.77907641637E+02  0.00000000000E+00 0. -1.
         25    2    1    2    0    0  0.29207422000E+02 -0.35875960832E+02  0.63434534245E+02  0.14768854638E+03  0.12509120086E+03 0.  0.
         23    2    1    2    0    0 -0.29207422000E+02  0.35875960832E+02  0.36714357432E+02  0.10827562857E+03  0.90749708731E+02 0.  0.
          5    1    3    3  502    0  0.41768679213E+02 -0.47257808608E+02  0.93535717385E+02  0.11289076962E+03  0.41800000000E+01 0. -1.
         -5    1    3    3    0  502 -0.12561257213E+02  0.11381847776E+02 -0.30101183140E+02  0.34797776768E+02  0.41800000000E+01 0. -1.
        -11    1    4    4    0    0  0.16626451244E+02 -0.38628602726E+00  0.46167925995E+02  0.49072043860E+02  0.00000000000E+00 0.  1.
         11    1    4    4    0    0 -0.45833873244E+02  0.36262246859E+02 -0.94535685632E+01  0.59203584709E+02  0.00000000000E+00 0. -1.
</event>
<event>
 8    1  0.6849590E-009  0.1531243E+03  0.7561462E-02  0.1196686E+00
         -2   -1    0    0    0  501 -0.00000000000E+00  0.00000000000E+00  0.35761895742E+03  0.35761895742E+03  0.00000000000E+00 0.  1.
          2   -1    0    0  501    0  0.00000000000E+00 -0.00000000000E+00 -0.83933523388E+02  0.83933523388E+02  0.00000000000E+00 0. -1.
         25    2    1    2    0    0  0.64723536849E+02  0.11174293198E+03  0.95024499914E+02  0.20335213132E+03  0.12508722820E+03 0.  0.
         23    2    1    2    0    0 -0.64723536849E+02 -0.11174293198E+03  0.17866093412E+03  0.23820034948E+03  0.90244434984E+02 0.  0.
          5    1    3    3  502    0  0.29529827605E+02 -0.21985433057E+02  0.29517225085E+01  0.37169275630E+02  0.41800000000E+01 0. -1.
         -5    1    3    3    0  502  0.35193709244E+02  0.13372836504E+03  0.92072777405E+02  0.16618285569E+03  0.41800000000E+01 0. -1.
        -11    1    4    4    0    0 -0.54874903709E+02 -0.10622719496E+03  0.18850328103E+03  0.22322401073E+03  0.00000000000E+00 0.  1.
         11    1    4    4    0    0 -0.98486331396E+01 -0.55157370255E+01 -0.98423469187E+01  0.14976338756E+02  0.00000000000E+00 0. -1.
</event>
<event>
 8    1  0.6849590E-009  0.1290673E+03  0.7561462E-02  0.1228846E+00
         -2   -1    0    0    0  501 -0.00000000000E+00  0.00000000000E+00  0.27797038254E+02  0.27797038254E+02  0.00000000000E+00 0.  1.
          2   -1    0    0  501    0  0.00000000000E+00 -0.00000000000E+00 -0.78998381940E+03  0.78998381940E+03  0.00000000000E+00 0. -1.
         25    2    1    2    0    0 -0.72155702608E+02 -0.37837333071E+02 -0.23782325155E+03  0.28079454168E+03  0.12509023329E+03 0.  0.
         23    2    1    2    0    0  0.72155702608E+02  0.37837333071E+02 -0.52436352959E+03  0.53698631597E+03  0.82213643521E+02 0.  0.
          5    1    3    3  502    0 -0.73954814414E+02 -0.74756574266E+02 -0.20803306255E+03  0.23313748622E+03  0.41800000000E+01 0.  1.
         -5    1    3    3    0  502  0.17991118052E+01  0.36919241194E+02 -0.29790189005E+02  0.47657055455E+02  0.41800000000E+01 0.  1.
        -11    1    4    4    0    0  0.37145938267E+02  0.62616018301E+02 -0.32230571565E+03  0.33042633191E+03  0.00000000000E+00 0. -1.
         11    1    4    4    0    0  0.35009764342E+02 -0.24778685230E+02 -0.20205781394E+03  0.20655998406E+03  0.00000000000E+00 0.  1.
</event>
<event>
 8    1  0.6849590E-009  0.8598205E+02  0.7561462E-02  0.1312884E+00
         -1   -1    0    0    0  501 -0.00000000000E+00  0.00000000000E+00  0.20840603062E+02  0.20840603062E+02  0.00000000000E+00 0.  1.
          1   -1    0    0  501    0  0.00000000000E+00 -0.00000000000E+00 -0.62487950733E+03  0.62487950733E+03  0.00000000000E+00 0. -1.
         25    2    1    2    0    0 -0.10862118243E+02 -0.29528965952E+02 -0.28834817845E+03  0.31588418436E+03  0.12509276745E+03 0.  0.
         23    2    1    2    0    0  0.10862118243E+02  0.29528965952E+02 -0.31569072581E+03  0.32983592603E+03  0.90228367447E+02 0.  0.
          5    1    3    3  502    0  0.30816077900E+02 -0.18711123997E+02 -0.15227445976E+02  0.39358408623E+02  0.41800000000E+01 0.  1.
         -5    1    3    3    0  502 -0.41678196143E+02 -0.10817841955E+02 -0.27312073248E+03  0.27652577574E+03  0.41800000000E+01 0.  1.
        -11    1    4    4    0    0  0.40601337069E+02 -0.11069775253E+02 -0.18650244154E+03  0.19119144645E+03  0.00000000000E+00 0. -1.
         11    1    4    4    0    0 -0.29739218827E+02  0.40598741205E+02 -0.12918828428E+03  0.13864447958E+03  0.00000000000E+00 0.  1.
</event>
<event>
 8    1  0.6849590E-009  0.1013092E+03  0.7561462E-02  0.1277567E+00
          2   -1    0    0  501    0  0.00000000000E+00  0.00000000000E+00  0.83291337133E+02  0.83291337133E+02  0.00000000000E+00 0.  1.
         -2   -1    0    0    0  501 -0.00000000000E+00 -0.00000000000E+00 -0.15360420042E+03  0.15360420042E+03  0.00000000000E+00 0. -1.
         25    2    1    2    0    0 -0.17011489877E+02 -0.94524072197E+01 -0.65002767403E+02  0.14230640065E+03  0.12508802144E+03 0.  0.
         23    2    1    2    0    0  0.17011489877E+02  0.94524072197E+01 -0.53100958821E+01  0.94589136898E+02  0.92413034312E+02 0.  0.
          5    1    3    3  502    0 -0.58080526951E+02  0.15139278255E+02 -0.71910991693E+02  0.93761444545E+02  0.41800000000E+01 0. -1.
         -5    1    3    3    0  502  0.41069037074E+02 -0.24591685474E+02  0.69082242895E+01  0.48544956107E+02  0.41800000000E+01 0. -1.
        -11    1    4    4    0    0  0.41755996744E+02 -0.27449763330E+02 -0.41682398801E+01  0.50144062407E+02  0.00000000000E+00 0. -1.
         11    1    4    4    0    0 -0.24744506867E+02  0.36902170550E+02 -0.11418560021E+01  0.44445074491E+02  0.00000000000E+00 0.  1.
</event>
<event>
 7    1  0.6849590E-009  0.1100745E+03  0.7561462E-02  0.1260432E+00
          4   -1    0    0  501    0  0.00000000000E+00  0.00000000000E+00  0.12572434393E+03  0.12572434393E+03  0.00000000000E+00 0. -1.
         -4   -1    0    0    0  501 -0.00000000000E+00 -0.00000000000E+00 -0.16279500505E+03  0.16279500505E+03  0.00000000000E+00 0.  1.
         23    2    1    2    0    0  0.66765933612E+02 -0.30509668372E+02  0.42449112622E+02  0.12230444320E+03  0.88135803779E+02 0.  0.
          5    1    1    2  502    0 -0.77088126188E+01  0.60569301122E+02 -0.78848230266E+02  0.99812733889E+02  0.41800000000E+01 0.  1.
         -5    1    1    2    0  502 -0.59057120993E+02 -0.30059632749E+02 -0.67154347845E+00  0.66402171889E+02  0.41800000000E+01 0.  1.
        -11    1    3    3    0    0  0.68869260930E+02 -0.73117551389E+01  0.61184182776E+02  0.92411801661E+02  0.00000000000E+00 0.  1.
         11    1    3    3    0    0 -0.21033273186E+01 -0.23197913233E+02 -0.18735070154E+02  0.29892641534E+02  0.00000000000E+00 0. -1.
</event>
<event>
 8    1  0.6849590E-009  0.9317633E+02  0.7561462E-02  0.1295337E+00
          1   -1    0    0  501    0  0.00000000000E+00  0.00000000000E+00  0.28646166277E+02  0.28646166277E+02  0.00000000000E+00 0. -1.
         -1   -1    0    0    0  501 -0.00000000000E+00 -0.00000000000E+00 -0.47388439795E+03  0.47388439795E+03  0.00000000000E+00 0.  1.
         25    2    1    2    0    0  0.16541987097E+02 -0.94186935275E+01 -0.16976470196E+03  0.21173338469E+03  0.12509445646E+03 0.  0.
         23    2    1    2    0    0 -0.16541987097E+02  0.94186935275E+01 -0.27547352971E+03  0.29079717953E+03  0.91186539177E+02 0.  0.
          5    1    3    3  502    0  0.62918779477E+02 -0.33199529853E+01 -0.14606502308E+03  0.15912969008E+03  0.41800000000E+01 0.  1.
         -5    1    3    3    0  502 -0.46376792379E+02 -0.60987405421E+01 -0.23699678878E+02  0.52603694609E+02  0.41800000000E+01 0.  1.
        -11    1    4    4    0    0  0.24918595391E+02  0.21658803978E+02 -0.42347243428E+02  0.53696640603E+02  0.00000000000E+00 0. -1.
         11    1    4    4    0    0 -0.41460582489E+02 -0.12240110451E+02 -0.23312628628E+03  0.23710053893E+03  0.00000000000E+00 0.  1.
</event>
<event>
 8    1  0.6849590E-009  0.1249550E+03  0.7561462E-02  0.1235140E+00
          2   -1    0    0  501    0  0.00000000000E+00  0.00000000000E+00  0.10893683742E+04  0.10893683742E+04  0.00000000000E+00 0. -1.
         -2   -1    0    0    0  501 -0.00000000000E+00 -0.00000000000E+00 -0.15835292369E+02  0.15835292369E+02  0.00000000000E+00 0.  1.
         25    2    1    2    0    0 -0.64448325602E+02 -0.20572527020E+02  0.45050550186E+03  0.47241963328E+03  0.12509311399E+03 0.  0.
         23    2    1    2    0    0  0.64448325602E+02  0.20572527020E+02  0.62302757997E+03  0.63278403328E+03  0.87609656048E+02 0.  0.
          5    1    3    3  502    0  0.27637479497E+02 -0.36190363392E+02  0.10578512841E+03  0.11524555726E+03  0.41800000000E+01 0.  1.
         -5    1    3    3    0  502 -0.92085805099E+02  0.15617836372E+02  0.34472037344E+03  0.35717407602E+03  0.41800000000E+01 0.  1.
        -11    1    4    4    0    0  0.19046857257E+02  0.52060770292E+02  0.31004497199E+03  0.31496188854E+03  0.00000000000E+00 0.  1.
         11    1    4    4    0    0  0.45401468345E+02 -0.31488243272E+02  0.31298260797E+03  0.31782214474E+03  0.00000000000E+00 0. -1.
</event>
<event>
 8    1  0.6849590E-009  0.2415103E+03  0.7561462E-02  0.1118791E+00
          1   -1    0    0  501    0  0.00000000000E+00  0.00000000000E+00  0.73346011284E+02  0.73346011284E+02  0.00000000000E+00 0. -1.
         -1   -1    0    0    0  501 -0.00000000000E+00 -0.00000000000E+00 -0.10962019478E+04  0.10962019478E+04  0.00000000000E+00 0.  1.
         25    2    1    2    0    0  0.20283141103E+03  0.10827609475E+03 -0.27400751607E+03  0.37893445583E+03  0.12508760513E+03 0.  0.
         23    2    1    2    0    0 -0.20283141103E+03 -0.10827609475E+03 -0.74884842044E+03  0.79061350325E+03  0.10691800937E+03 0.  0.
          5    1    3    3  502    0  0.20939601241E+03  0.82909334772E+02 -0.27075487560E+03  0.35220210514E+03  0.41800000000E+01 0.  1.
         -5    1    3    3    0  502 -0.65646013772E+01  0.25366759982E+02 -0.32526404669E+01  0.26732350687E+02  0.41800000000E+01 0.  1.
        -11    1    4    4    0    0 -0.11366763013E+03 -0.46758750934E+02 -0.55600217642E+03  0.56942526385E+03  0.00000000000E+00 0.  1.
         11    1    4    4    0    0 -0.89163780903E+02 -0.61517343820E+02 -0.19284624403E+03  0.22118823940E+03  0.00000000000E+00 0. -1.
</event>
<event>
 6    1  0.6849590E-009  0.1010021E+03  0.7561462E-02  0.1278203E+00
         -1   -1    0    0    0  501 -0.00000000000E+00  0.00000000000E+00  0.28775338005E+02  0.28775338005E+02  0.00000000000E+00 0.  1.
          1   -1    0    0  501    0  0.00000000000E+00 -0.00000000000E+00 -0.68116656933E+03  0.68116656933E+03  0.00000000000E+00 0. -1.
          5    1    1    2  502    0 -0.23060962441E+02 -0.20992223015E+02 -0.32988574104E+03  0.33138279369E+03  0.41800000000E+01 0. -1.
         -5    1    1    2    0  502 -0.22109332712E+02  0.10619331209E+02 -0.34591220174E+00  0.24883425077E+02  0.41800000000E+01 0. -1.
        -11    1    1    2    0    0  0.24133092175E+02 -0.63984138386E+02 -0.14027036953E+03  0.15605176279E+03  0.00000000000E+00 0. -1.
         11    1    1    2    0    0  0.21037202978E+02  0.74357030191E+02 -0.18188920856E+03  0.19762392577E+03  0.00000000000E+00 0.  1.
</event>
<event>
 7    1  0.6849590E-009  0.1111436E+03  0.7561462E-02  0.1258467E+00
          2   -1    0    0  501    0  0.00000000000E+00  0.00000000000E+00  0.22702386332E+03  0.22702386332E+03  0.00000000000E+00 0. -1.
         -2   -1    0    0    0  501 -0.00000000000E+00 -0.00000000000E+00 -0.69614584686E+02  0.69614584686E+02  0.00000000000E+00 0.  1.
         23    2    1    2    0    0  0.65626121291E+01 -0.54606821492E+02  0.69989304028E+02  0.13434285108E+03  0.10062070426E+03 0.  0.
          5    1    1    2  502    0 -0.52492839819E+02  0.63534304720E+02  0.79634213522E+02  0.11467862256E+03  0.41800000000E+01 0. -1.
         -5    1    1    2    0  502  0.45930227690E+02 -0.89274832281E+01  0.77857610816E+01  0.47616974369E+02  0.41800000000E+01 0. -1.
        -11    1    3    3    0    0 -0.15983150264E+02 -0.65733727115E+02  0.88368552672E+01  0.68223705439E+02  0.00000000000E+00 0.  1.
         11    1    3    3    0    0  0.22545762393E+02  0.11126905623E+02  0.61152448761E+02  0.66119145639E+02  0.00000000000E+00 0. -1.
</event>
<event>
 8    1  0.6849590E-009  0.1197640E+03  0.7561462E-02  0.1243487E+00
         -1   -1    0    0    0  501 -0.00000000000E+00  0.00000000000E+00  0.74351997370E+02  0.74351997370E+02  0.00000000000E+00 0.  1.
          1   -1    0    0  501    0  0.00000000000E+00 -0.00000000000E+00 -0.26065632052E+03  0.26065632052E+03  0.00000000000E+00 0. -1.
         25    2    1    2    0    0 -0.37492839253E+02  0.77041711158E+02 -0.81233065376E+02  0.17201152572E+03  0.12509202938E+03 0.  0.
         23    2    1    2    0    0  0.37492839253E+02 -0.77041711158E+02 -0.10507125777E+03  0.16299679217E+03  0.90481195810E+02 0.  0.
          5    1    3    3  502    0  0.33300646065E+02  0.73201436547E+02 -0.45815704725E+02  0.92649525311E+02  0.41800000000E+01 0.  1.
         -5    1    3    3    0  502 -0.70793485318E+02  0.38402746109E+01 -0.35417360651E+02  0.79362000404E+02  0.41800000000E+01 0.  1.
        -11    1    4    4    0    0  0.11036085112E+02 -0.45455992774E+02 -0.11185322899E+03  0.12124020492E+03  0.00000000000E+00 0. -1.
         11    1    4    4    0    0  0.26456754141E+02 -0.31585718384E+02  0.67819712165E+01  0.41756587254E+02  0.00000000000E+00 0.  1.
</event>
<event>
 8    1  0.6849590E-009  0.1059432E+03  0.7561462E-02  0.1268272E+00
         -1   -1    0    0    0  501 -0.00000000000E+00  0.00000000000E+00  0.61542014979E+02  0.61542014979E+02  0.00000000000E+00 0.  1.
          1   -1    0    0  501    0  0.00000000000E+00 -0.00000000000E+00 -0.23376689585E+03  0.23376689585E+03  0.00000000000E+00 0. -1.
         25    2    1    2    0    0  0.28166632474E+02  0.16260523384E+02 -0.14465967178E+03  0.19399044847E+03  0.12509240446E+03 0.  0.
         23    2    1    2    0    0 -0.28166632474E+02 -0.16260523384E+02 -0.27565209094E+02  0.10131846236E+03  0.91912057189E+02 0.  0.
          5    1    3    3  502    0  0.21593296047E+02 -0.51081293139E+02 -0.94535219273E+02  0.10968112429E+03  0.41800000000E+01 0. -1.
         -5    1    3    3    0  502  0.65733364272E+01  0.67341816523E+02 -0.50124452504E+02  0.84309324177E+02  0.41800000000E+01 0. -1.
        -11    1    4    4    0    0  0.18443603933E+02 -0.33941884676E+02  0.87926249983E+01  0.39617272947E+02  0.00000000000E+00 0.  1.
         11    1    4    4    0    0 -0.46610236407E+02  0.17681361292E+02 -0.36357834092E+02  0.61701189412E+02  0.00000000000E+00 0. -1.
</event>
<event>
 8    1  0.6849590E-009  0.9349347E+02  0.7561462E-02  0.1294606E+00
          1   -1    0    0  501    0  0.00000000000E+00  0.00000000000E+00  0.58353266007E+03  0.58353266007E+03  0.00000000000E+00 0. -1.
         -1   -1    0    0    0  501 -0.00000000000E+00 -0.00000000000E+00 -0.21194021592E+02  0.21194021592E+02  0.00000000000E+00 0.  1.
         25    2    1    2    0    0  0.25968783304E+01  0.16480300109E+02  0.29368779853E+03  0.31965327607E+03  0.12508936737E+03 0.  0.
         23    2    1    2    0    0 -0.25968783304E+01 -0.16480300109E+02  0.26865083995E+03  0.28507340559E+03  0.93889449363E+02 0.  0.
          5    1    3    3  502    0 -0.11228694255E+02  0.57247062096E+02  0.25501117625E+03  0.26163234148E+03  0.41800000000E+01 0.  1.
         -5    1    3    3    0  502  0.13825572586E+02 -0.40766761987E+02  0.38676622273E+02  0.58020934590E+02  0.41800000000E+01 0.  1.
        -11    1    4    4    0    0 -0.42829388974E+02 -0.34872299241E+01  0.19906897133E+03  0.20365405147E+03  0.00000000000E+00 0. -1.
         11    1    4    4    0    0  0.40232510644E+02 -0.12993070185E+02  0.69581868614E+02  0.81419354120E+02  0.00000000000E+00 0.  1.
</event>
<event>
 8    1  0.6849590E-009  0.1401428E+03  0.7561462E-02  0.1213137E+00
         -1   -1    0    0    0  501 -0.00000000000E+00  0.00000000000E+00  0.28578331434E+03  0.28578331434E+03  0.00000000000E+00 0.  1.
          1   -1    0    0  501    0  0.00000000000E+00 -0.00000000000E+00 -0.11623619821E+03  0.11623619821E+03  0.00000000000E+00 0. -1.
         25    2    1    2    0    0 -0.48931294710E+02 -0.12985049010E+03  0.14143023905E+03  0.23432403633E+03  0.12509924102E+03 0.  0.
         23    2    1    2    0    0  0.48931294710E+02  0.12985049010E+03  0.28116877077E+02  0.16769547622E+03  0.89865413748E+02 0.  0.
          5    1    3    3  502    0 -0.42589758786E+02 -0.12166849546E+03  0.16429950512E+03  0.20887534590E+03  0.41800000000E+01 0.  1.
         -5    1    3    3    0  502 -0.63415359237E+01 -0.81819946400E+01 -0.22869266071E+02  0.25448690434E+02  0.41800000000E+01 0.  1.
        -11    1    4    4    0    0  0.49768612183E+02  0.11543184075E+03  0.54975682922E+02  0.13719967322E+03  0.00000000000E+00 0.  1.
         11    1    4    4    0    0 -0.83731747295E+00  0.14418649344E+02 -0.26858805844E+02  0.30495803004E+02  0.00000000000E+00 0. -1.
</event>
<event>
 8    1  0.6849590E-009  0.1295815E+03  0.7561462E-02  0.1228078E+00
          2   -1    0    0  501    0  0.00000000000E+00  0.00000000000E+00  0.59109529765E+02  0.59109529765E+02  0.00000000000E+00 0. -1.
         -2   -1    0    0    0  501 -0.00000000000E+00 -0.00000000000E+00 -0.37699961216E+03  0.37699961216E+03  0.00000000000E+00 0.  1.
         25    2    1    2    0    0 -0.76068275402E+01  0.97772009716E+02 -0.12598741230E+03  0.20282500779E+03  0.12509167045E+03 0.  0.
         23    2    1    2    0    0  0.76068275402E+01 -0.97772009716E+02 -0.19190267010E+03  0.23328413414E+03  0.89317538829E+02 0.  0.
          5    1    3    3  502    0  0.46138301778E+02  0.53424847071E+02 -0.15911660571E+02  0.72481794388E+02  0.41800000000E+01 0.  1.
         -5    1    3    3    0  502 -0.53745129319E+02  0.44347162645E+02 -0.11007575173E+03  0.13034321340E+03  0.41800000000E+01 0.  1.
        -11    1    4    4    0    0 -0.27899241065E+02 -0.63215834696E+02 -0.16019135552E+03  0.17445881976E+03  0.00000000000E+00 0.  1.
         11    1    4    4    0    0  0.35506068605E+02 -0.34556175020E+02 -0.31711314573E+02  0.58825314379E+02  0.00000000000E+00 0. -1.
</event>
<event>
 8    1  0.6849590E-009  0.8185205E+02  0.7561462E-02  0.1323876E+00
          1   -1    0    0  501    0  0.00000000000E+00  0.00000000000E+00  0.17596074401E+03  0.17596074401E+03  0.00000000000E+00 0. -1.
         -1   -1    0    0    0  501 -0.00000000000E+00 -0.00000000000E+00 -0.71190886735E+02  0.71190886735E+02  0.00000000000E+00 0.  1.
         25    2    1    2    0    0  0.32868963783E+01  0.20301809039E+02  0.80374943784E+02  0.15010185440E+03  0.12508983959E+03 0.  0.
         23    2    1    2    0    0 -0.32868963783E+01 -0.20301809039E+02  0.24394913490E+02  0.97049776343E+02  0.91654678800E+02 0.  0.
          5    1    3    3  502    0 -0.24502890859E+02 -0.17058796311E+02  0.96147314630E+02  0.10076295303E+03  0.41800000000E+01 0. -1.
         -5    1    3    3    0  502  0.27789787237E+02  0.37360605350E+02 -0.15772370845E+02  0.49338901375E+02  0.41800000000E+01 0. -1.
        -11    1    4    4    0    0 -0.77146672473E+01  0.32711459200E+02  0.27979784920E+02  0.43731270481E+02  0.00000000000E+00 0. -1.
         11    1    4    4    0    0  0.44277708690E+01 -0.53013268238E+02 -0.35848714306E+01  0.53318505862E+02  0.00000000000E+00 0.  1.
</event>
<event>
 8    1  0.6849590E-009  0.1197384E+03  0.7561462E-02  0.1243529E+00
          2   -1    0    0  501    0  0.00000000000E+00  0.00000000000E+00  0.16348345981E+04  0.16348345981E+04  0.00000000000E+00 0. -1.
         -2   -1    0    0    0  501 -0.00000000000E+00 -0.00000000000E+00 -0.20188290984E+02  0.20188290984E+02  0.00000000000E+00 0.  1.
         25    2    1    2    0    0 -0.54322079452E+02  0.11806737944E+02  0.14705583933E+04  0.14769159629E+04  0.12509390806E+03 0.  0.
         23    2    1    2    0    0  0.54322079452E+02 -0.11806737944E+02  0.14408791378E+03  0.17810692620E+03  0.88715629323E+02 0.  0.
          5    1    3    3  502    0 -0.80736957401E+02 -0.29728493707E+02  0.83094356909E+03  0.83539626946E+03  0.41800000000E+01 0.  1.
         -5    1    3    3    0  502  0.26414877949E+02  0.41535231651E+02  0.63961482423E+03  0.64151969340E+03  0.41800000000E+01 0.  1.
        -11    1    4    4    0    0  0.73477472214E+02  0.10844827660E+02  0.92861606250E+02  0.11891100506E+03  0.00000000000E+00 0.  1.
         11    1    4    4    0    0 -0.19155392761E+02 -0.22651565603E+02  0.51226307529E+02  0.59195921136E+02  0.00000000000E+00 0. -1.
</event>
<event>
 8    1  0.6849590E-009  0.3116802E+03  0.7561462E-02  0.1079543E+00
          1   -1    0    0  501    0  0.00000000000E+00  0.00000000000E+00  0.54390702658E+03  0.54390702658E+03  0.00000000000E+00 0. -1.
         -1   -1    0    0    0  501 -0.00000000000E+00 -0.00000000000E+00 -0.18460970256E+03  0.18460970256E+03  0.00000000000E+00 0.  1.
         25    2    1    2    0    0 -0.12892341660E+03 -0.26444040374E+03  0.13333160235E+03  0.34637356076E+03  0.12508937976E+03 0.  0.
         23    2    1    2    0    0  0.12892341660E+03  0.26444040374E+03  0.22596572168E+03  0.38214316838E+03  0.91776463713E+02 0.  0.
          5    1    3    3  502    0 -0.70896539677E+02 -0.24311317062E+03  0.82946812823E+02  0.26651074880E+03  0.41800000000E+01 0.  1.
         -5    1    3    3    0  502 -0.58026876925E+02 -0.21327233115E+02  0.50384789526E+02  0.79862811957E+02  0.41800000000E+01 0.  1.
        -11    1    4    4    0    0  0.86596081221E+02  0.76730193224E+02  0.81401938721E+02  0.14146617780E+03  0.00000000000E+00 0.  1.
         11    1    4    4    0    0  0.42327335381E+02  0.18771021051E+03  0.14456378296E+03  0.24067699058E+03  0.00000000000E+00 0. -1.
</event>
<event>
 8    1  0.6849590E-009  0.1284200E+03  0.7561462E-02  0.1229819E+00
         -2   -1    0    0    0  501 -0.00000000000E+00  0.00000000000E+00  0.82349759121E+03  0.82349759121E+03  0.00000000000E+00 0.  1.
          2   -1    0    0  501    0  0.00000000000E+00 -0.00000000000E+00 -0.33639736005E+02  0.33639736005E+02  0.00000000000E+00 0. -1.
         25    2    1    2    0    0  0.36130972468E+02  0.11606133340E+03  0.51731936914E+03  0.54593276368E+03  0.12509025738E+03 0.  0.
         23    2    1    2    0    0 -0.36130972468E+02 -0.11606133340E+03  0.27253848607E+03  0.31120456354E+03  0.88291413484E+02 0.  0.
          5    1    3    3  502    0  0.30470637545E+02  0.60963743384E+02  0.46379922641E+03  0.46879871222E+03  0.41800000000E+01 0.  1.
         -5    1    3    3    0  502  0.56603349231E+01  0.55097590019E+02  0.53520142734E+02  0.77134051467E+02  0.41800000000E+01 0.  1.
        -11    1    4    4    0    0  0.76094309658E+01 -0.66400467658E+02  0.20913973069E+03  0.21955945094E+03  0.00000000000E+00 0.  1.
         11    1    4    4    0    0 -0.43740403433E+02 -0.49660865745E+02  0.63398755380E+02  0.91645112596E+02  0.00000000000E+00 0. -1.
</event>
<event>
 7    1  0.6849590E-009  0.1021800E+03  0.7561462E-02  0.1275777E+00
          1   -1    0    0  501    0  0.00000000000E+00  0.00000000000E+00  0.13488139646E+03  0.13488139646E+03  0.00000000000E+00 0.  1.
         -1   -1    0    0    0  501 -0.00000000000E+00 -0.00000000000E+00 -0.10795262964E+03  0.10795262964E+03  0.00000000000E+00 0. -1.
         23    2    1    2    0    0 -0.42830674937E+02 -0.68002976512E+00  0.40801952029E+02  0.10994576323E+03  0.92673310113E+02 0.  0.
          5    1    1    2  502    0 -0.29737873074E+02  0.28107133563E+02  0.22743069831E+02  0.47000762520E+02  0.41800000000E+01 0.  1.
         -5    1    1    2    0  502  0.72568548011E+02 -0.27427103798E+02 -0.36616255039E+02  0.85887500349E+02  0.41800000000E+01 0.  1.
        -11    1    3    3    0    0 -0.59081184661E+02  0.17044347243E+02  0.54590401068E+02  0.82226565309E+02  0.00000000000E+00 0. -1.
         11    1    3    3    0    0  0.16250509724E+02 -0.17724377008E+02 -0.13788449039E+02  0.27719197923E+02  0.00000000000E+00 0.  1.
</event>
<event>
 8    1  0.6849590E-009  0.9384243E+02  0.7561462E-02  0.1293805E+00
          4   -1    0    0  501    0  0.00000000000E+00  0.00000000000E+00  0.90707722407E+02  0.90707722407E+02  0.00000000000E+00 0. -1.
         -4   -1    0    0    0  501 -0.00000000000E+00 -0.00000000000E+00 -0.22139261236E+03  0.22139261236E+03  0.00000000000E+00 0.  1.
         25    2    1    2    0    0 -0.30305192850E+02 -0.80697386451E+02 -0.97837091317E+02  0.18069247791E+03  0.12508877744E+03 0.  0.
         23    2    1    2    0    0  0.30305192850E+02  0.80697386451E+02 -0.32847798632E+02  0.13140785685E+03  0.93587253802E+02 0.  0.
          5    1    3    3  502    0 -0.16511781821E+02 -0.65918522709E+02  0.11826327986E+02  0.69103002892E+02  0.41800000000E+01 0.  1.
         -5    1    3    3    0  502 -0.13793411030E+02 -0.14778863742E+02 -0.10966341930E+03  0.11158947502E+03  0.41800000000E+01 0.  1.
        -11    1    4    4    0    0 -0.11179847073E+02  0.37225305689E+02 -0.55014459389E+02  0.67359506427E+02  0.00000000000E+00 0.  1.
         11    1    4    4    0    0  0.41485039924E+02  0.43472080762E+02  0.22166660757E+02  0.64048350427E+02  0.00000000000E+00 0. -1.
</event>
<event>
 8    1  0.6849590E-009  0.1219319E+03  0.7561462E-02  0.1239944E+00
          2   -1    0    0  501    0  0.00000000000E+00  0.00000000000E+00  0.65009667641E+03  0.65009667641E+03  0.00000000000E+00 0. -1.
         -2   -1    0    0    0  501 -0.00000000000E+00 -0.00000000000E+00 -0.29571639165E+02  0.29571639165E+02  0.00000000000E+00 0.  1.
         25    2    1    2    0    0 -0.89353341191E+01 -0.83410362572E+02  0.40007284905E+03  0.42748438731E+03  0.12508991993E+03 0.  0.
         23    2    1    2    0    0  0.89353341191E+01  0.83410362572E+02  0.22045218820E+03  0.25218392826E+03  0.89221284533E+02 0.  0.
          5    1    3    3  502    0  0.13523538185E+02  0.30604037261E+02  0.74696074535E+02  0.81954067213E+02  0.41800000000E+01 0.  1.
         -5    1    3    3    0  502 -0.22458872304E+02 -0.11401439983E+03  0.32537677451E+03  0.34553032010E+03  0.41800000000E+01 0.  1.
        -11    1    4    4    0    0 -0.16990741238E+02  0.29479780863E+02  0.17158675555E+03  0.17492786355E+03  0.00000000000E+00 0. -1.
         11    1    4    4    0    0  0.25926075358E+02  0.53930581709E+02  0.48865432651E+02  0.77256064714E+02  0.00000000000E+00 0.  1.
</event>
<event>
 8    1  0.6849590E-009  0.1259580E+03  0.7561462E-02  0.1233580E+00
         -1   -1    0    0    0  501 -0.00000000000E+00  0.00000000000E+00  0.12294298575E+03  0.12294298575E+03  0.00000000000E+00 0.  1.
          1   -1    0    0  501    0  0.00000000000E+00 -0.00000000000E+00 -0.17851901251E+03  0.17851901251E+03  0.00000000000E+00 0. -1.
         25    2    1    2    0    0  0.96619949532E+02  0.19335490867E+02 -0.49512315111E+02  0.16676007790E+03  0.12509267916E+03 0.  0.
         23    2    1    2    0    0 -0.96619949532E+02 -0.19335490867E+02 -0.60637116510E+01  0.13470192035E+03  0.91643673503E+02 0.  0.
          5    1    3    3  502    0  0.34204265495E+02  0.52297042673E+02 -0.69228970840E+02  0.93354353160E+02  0.41800000000E+01 0. -1.
         -5    1    3    3    0  502  0.62415684038E+02 -0.32961551806E+02  0.19716655729E+02  0.73405724739E+02  0.41800000000E+01 0. -1.
        -11    1    4    4    0    0 -0.37045070582E+02  0.24675044632E+02  0.28617338179E+02  0.52916416417E+02  0.00000000000E+00 0.  1.
         11    1    4    4    0    0 -0.59574878950E+02 -0.44010535499E+02 -0.34681049830E+02  0.81785503936E+02  0.00000000000E+00 0. -1.
</event>
<event>
 8    1  0.6849590E-009  0.8994768E+02  0.7561462E-02  0.1302978E+00
         -1   -1    0    0    0  501 -0.00000000000E+00  0.00000000000E+00  0.36813559622E+02  0.36813559622E+02  0.00000000000E+00 0.  1.
          1   -1    0    0  501    0  0.00000000000E+00 -0.00000000000E+00 -0.39856591000E+03  0.39856591000E+03  0.00000000000E+00 0. -1.
         25    2    1    2    0    0 -0.39914817824E+02  0.18093591792E+02 -0.26107402936E+03  0.29279333133E+03  0.12509082827E+03 0.  0.
         23    2    1    2    0    0  0.39914817824E+02 -0.18093591792E+02 -0.10067832101E+03  0.14258613829E+03  0.90962144679E+02 0.  0.
          5    1    3    3  502    0  0.37579332261E+02  0.11774346550E+02 -0.32211389011E+02  0.51047893511E+02  0.41800000000E+01 0. -1.
         -5    1    3    3    0  502 -0.77494150085E+02  0.63192452415E+01 -0.22886264035E+03  0.24174543782E+03  0.41800000000E+01 0. -1.
        -11    1    4    4    0    0  0.38663657147E+01 -0.25362707416E+02  0.87792657161E+01  0.27116253757E+02  0.00000000000E+00 0.  1.
         11    1    4    4    0    0  0.36048452109E+02  0.72691156242E+01 -0.10945758673E+03  0.11546988453E+03  0.00000000000E+00 0. -1.
</event>
<event>
 8    1  0.6849590E-009  0.1138813E+03  0.7561462E-02  0.1253546E+00
         -4   -1    0    0    0  501 -0.00000000000E+00  0.00000000000E+00  0.50989907518E+03  0.50989907518E+03  0.00000000000E+00 0.  1.
          4   -1    0    0  501    0  0.00000000000E+00 -0.00000000000E+00 -0.31244043891E+02  0.31244043891E+02  0.00000000000E+00 0. -1.
         25    2    1    2    0    0 -0.11295495926E+02  0.53814757575E+02  0.19961514149E+03  0.24190452728E+03  0.12509188320E+03 0.  0.
         23    2    1    2    0    0  0.11295495926E+02 -0.53814757575E+02  0.27903988980E+03  0.29923859179E+03  0.93042239652E+02 0.  0.
          5    1    3    3  502    0  0.49332247126E+02  0.12311802208E+02  0.13372430261E+03  0.14312551341E+03  0.41800000000E+01 0. -1.
         -5    1    3    3    0  502 -0.60627743053E+02  0.41502955367E+02  0.65890838876E+02  0.98779013862E+02  0.41800000000E+01 0. -1.
        -11    1    4    4    0    0 -0.29687462552E+02  0.63484790381E+01  0.12828355366E+03  0.13182685143E+03  0.00000000000E+00 0. -1.
         11    1    4    4    0    0  0.40982958478E+02 -0.60163236613E+02  0.15075633614E+03  0.16741174036E+03  0.00000000000E+00 0.  1.
</event>
<event>
 8    1  0.6849590E-009  0.9979734E+02  0.7561462E-02  0.1280723E+00
         -2   -1    0    0    0  501 -0.00000000000E+00  0.00000000000E+00  0.10881219999E+03  0.10881219999E+03  0.00000000000E+00 0. -1.
          2   -1    0    0  501    0  0.00000000000E+00 -0.00000000000E+00 -0.15041194016E+03  0.15041194016E+03  0.00000000000E+00 0.  1.
         25    2    1    2    0    0  0.57331247915E+02 -0.30532788445E+02 -0.43530951855E+02  0.14751532335E+03  0.12508678466E+03 0.  0.
         23    2    1    2    0    0 -0.57331247915E+02  0.30532788445E+02  0.19312116920E+01  0.11170881680E+03  0.90862572135E+02 0.  0.
          5    1    3    3  502    0 -0.30864211532E+02 -0.21219477172E+02  0.15657505102E+02  0.40810484326E+02  0.41800000000E+01 0.  1.
         -5    1    3    3    0  502  0.88195459447E+02 -0.93133112730E+01 -0.59188456957E+02  0.10670483902E+03  0.41800000000E+01 0.  1.
        -11    1    4    4    0    0 -0.35372162271E+02 -0.17378476246E+00 -0.41258791199E+02  0.54346185846E+02  0.00000000000E+00 0. -1.
         11    1    4    4    0    0 -0.21959085643E+02  0.30706573207E+02  0.43190002891E+02  0.57362630955E+02  0.00000000000E+00 0.  1.
</event>
<event>
 8    1  0.6849590E-009  0.2375793E+03  0.7561462E-02  0.1121416E+00
         -1   -1    0    0    0  501 -0.00000000000E+00  0.00000000000E+00  0.54930771422E+02  0.54930771422E+02  0.00000000000E+00 0.  1.
          1   -1    0    0  501    0  0.00000000000E+00 -0.00000000000E+00 -0.11362841856E+04  0.11362841856E+04  0.00000000000E+00 0. -1.
         25    2    1    2    0    0  0.16333889150E+03  0.15342783229E+03 -0.58511536341E+03  0.63892678661E+03  0.12509099471E+03 0.  0.
         23    2    1    2    0    0 -0.16333889150E+03 -0.15342783229E+03 -0.49623805080E+03  0.55228817044E+03  0.92467977969E+02 0.  0.
          5    1    3    3  502    0  0.96927356897E+02  0.13120319783E+03 -0.26496898218E+03  0.31118358818E+03  0.41800000000E+01 0. -1.
         -5    1    3    3    0  502  0.66411534604E+02  0.22224634461E+02 -0.32014638123E+03  0.32774319843E+03  0.41800000000E+01 0. -1.
        -11    1    4    4    0    0 -0.14302378405E+02  0.12355071427E+02 -0.50302355778E+02  0.53735768487E+02  0.00000000000E+00 0. -1.
         11    1    4    4    0    0 -0.14903651310E+03 -0.16578290371E+03 -0.44593569502E+03  0.49855240195E+03  0.00000000000E+00 0.  1.
</event>
<event>
 8    1  0.6849590E-009  0.2963270E+03  0.7561462E-02  0.1087091E+00
          2   -1    0    0  501    0  0.00000000000E+00  0.00000000000E+00  0.12730034453E+04  0.12730034453E+04  0.00000000000E+00 0. -1.
         -2   -1    0    0    0  501 -0.00000000000E+00 -0.00000000000E+00 -0.75490561631E+02  0.75490561631E+02  0.00000000000E+00 0.  1.
         25    2    1    2    0    0 -0.28237647317E+03 -0.35898190065E+01  0.46535948700E+03  0.55852894585E+03  0.12508305963E+03 0.  0.
         23    2    1    2    0    0  0.28237647317E+03  0.35898190065E+01  0.73215339670E+03  0.78996506111E+03  0.90812125176E+02 0.  0.
          5    1    3    3  502    0 -0.25371557589E+02 -0.33290008703E+02  0.11882607781E+03  0.12605177422E+03  0.41800000000E+01 0. -1.
         -5    1    3    3    0  502 -0.25700491558E+03  0.29700189696E+02  0.34653340919E+03  0.43247717163E+03  0.41800000000E+01 0. -1.
        -11    1    4    4    0    0  0.97604016337E+02  0.36413305067E+02  0.33262603881E+03  0.34855782086E+03  0.00000000000E+00 0.  1.
         11    1    4    4    0    0  0.18477245684E+03 -0.32823486060E+02  0.39952735789E+03  0.44140724025E+03  0.00000000000E+00 0. -1.
</event>
<event>
 8    1  0.6849590E-009  0.1358922E+03  0.7561462E-02  0.1218966E+00
          1   -1    0    0  501    0  0.00000000000E+00  0.00000000000E+00  0.50672797822E+03  0.50672797822E+03  0.00000000000E+00 0. -1.
         -1   -1    0    0    0  501 -0.00000000000E+00 -0.00000000000E+00 -0.42013058062E+02  0.42013058062E+02  0.00000000000E+00 0.  1.
         25    2    1    2    0    0  0.35238734404E+02 -0.88414777898E+02  0.26445805930E+03  0.30764054380E+03  0.12508276343E+03 0.  0.
         23    2    1    2    0    0 -0.35238734404E+02  0.88414777898E+02  0.20025686086E+03  0.24110049248E+03  0.94697918673E+02 0.  0.
          5    1    3    3  502    0  0.77200399263E+02 -0.84011688563E+02  0.18037147563E+03  0.21346945234E+03  0.41800000000E+01 0.  1.
         -5    1    3    3    0  502 -0.41961664859E+02 -0.44030893343E+01  0.84086583666E+02  0.94171091456E+02  0.41800000000E+01 0.  1.
        -11    1    4    4    0    0 -0.19834071697E+02 -0.50668134989E+01  0.10340381256E+01  0.20497127456E+02  0.00000000000E+00 0.  1.
         11    1    4    4    0    0 -0.15404662708E+02  0.93481591397E+02  0.19922282273E+03  0.22060336503E+03  0.00000000000E+00 0. -1.
</event>
<event>
 7    1  0.6849590E-009  0.1043342E+03  0.7561462E-02  0.1271437E+00
         -2   -1    0    0    0  501 -0.00000000000E+00  0.00000000000E+00  0.51064173215E+02  0.51064173215E+02  0.00000000000E+00 0.  1.
          2   -1    0    0  501    0  0.00000000000E+00 -0.00000000000E+00 -0.28372202456E+03  0.28372202456E+03  0.00000000000E+00 0. -1.
         23    2    1    2    0    0 -0.57097424029E+02 -0.46781766494E+01 -0.11812174781E+03  0.15615249406E+03  0.84550889580E+02 0.  0.
          5    1    1    2  502    0  0.77655958418E+01 -0.41288043072E+02 -0.10136290754E+03  0.10980399994E+03  0.41800000000E+01 0. -1.
         -5    1    1    2    0  502  0.49331828187E+02  0.45966219721E+02 -0.13173195995E+02  0.68829703766E+02  0.41800000000E+01 0. -1.
        -11    1    3    3    0    0 -0.77233033847E+02 -0.10470373848E+02 -0.10716031752E+03  0.13250624098E+03  0.00000000000E+00 0.  1.
         11    1    3    3    0    0  0.20135609818E+02  0.57921971983E+01 -0.10961430285E+02  0.23646253086E+02  0.00000000000E+00 0. -1.
</event>
<event>
 8    1  0.6849590E-009  0.1495091E+03  0.7561462E-02  0.1201077E+00
          1   -1    0    0  501    0  0.00000000000E+00  0.00000000000E+00  0.17865126718E+03  0.17865126718E+03  0.00000000000E+00 0. -1.
         -1   -1    0    0    0  501 -0.00000000000E+00 -0.00000000000E+00 -0.12783169385E+03  0.12783169385E+03  0.00000000000E+00 0.  1.
         25    2    1    2    0    0  0.46089515581E+02 -0.94072481979E+02  0.34728204897E+02  0.16681497167E+03  0.12508921314E+03 0.  0.
         23    2    1    2    0    0 -0.46089515581E+02  0.94072481979E+02  0.16091368436E+02  0.13966798937E+03  0.90963398157E+02 0.  0.
          5    1    3    3  502    0  0.58920775305E+02  0.81460992414E+01  0.18558350161E+02  0.62449190996E+02  0.41800000000E+01 0.  1.
         -5    1    3    3    0  502 -0.12831259724E+02 -0.10221858122E+03  0.16169854736E+02  0.10436578067E+03  0.41800000000E+01 0.  1.
        -11    1    4    4    0    0 -0.70189864227E+02  0.50422819406E+02 -0.24834382332E+01  0.86459500475E+02  0.00000000000E+00 0. -1.
         11    1    4    4    0    0  0.24100348646E+02  0.43649662573E+02  0.18574806669E+02  0.53208488894E+02  0.00000000000E+00 0.  1.
</event>
<event>
 8    1  0.6849590E-009  0.9875367E+02  0.7561462E-02  0.1282939E+00
         -1   -1    0    0    0  501 -0.00000000000E+00  0.00000000000E+00  0.32380157219E+02  0.32380157219E+02  0.00000000000E+00 0.  1.
          1   -1    0    0  501    0  0.00000000000E+00 -0.00000000000E+00 -0.40313334399E+03  0.40313334399E+03  0.00000000000E+00 0. -1.
         25    2    1    2    0    0 -0.31060876263E+02 -0.89656020033E+01 -0.17642094638E+03  0.21867117928E+03  0.12509026449E+03 0.  0.
         23    2    1    2    0    0  0.31060876263E+02  0.89656020033E+01 -0.19433224039E+03  0.21684232193E+03  0.90611328615E+02 0.  0.
          5    1    3    3  502    0 -0.15607256283E+02 -0.56066981774E+02 -0.33370184673E+02  0.67217070146E+02  0.41800000000E+01 0. -1.
         -5    1    3    3    0  502 -0.15453619979E+02  0.47101379771E+02 -0.14305076171E+03  0.15145410913E+03  0.41800000000E+01 0. -1.
        -11    1    4    4    0    0  0.38787313911E+01 -0.36356366795E+02 -0.12132508614E+03  0.12671466565E+03  0.00000000000E+00 0. -1.
         11    1    4    4    0    0  0.27182144872E+02  0.45321968799E+02 -0.73007154245E+02  0.90127656280E+02  0.00000000000E+00 0.  1.
</event>
<event>
 8    1  0.6849590E-009  0.8751299E+02  0.7561462E-02  0.1308989E+00
          1   -1    0    0  501    0  0.00000000000E+00  0.00000000000E+00  0.14963915342E+03  0.14963915342E+03  0.00000000000E+00 0. -1.
         -1   -1    0    0    0  501 -0.00000000000E+00 -0.00000000000E+00 -0.84651330259E+02  0.84651330259E+02  0.00000000000E+00 0.  1.
         25    2    1    2    0    0  0.15482722352E+02  0.42286984573E+01  0.56175394380E+02  0.13806590161E+03  0.12509565009E+03 0.  0.
         23    2    1    2    0    0 -0.15482722352E+02 -0.42286984573E+01  0.88124287826E+01  0.96224582067E+02  0.94466474005E+02 0.  0.
          5    1    3    3  502    0  0.63067181415E+02  0.24086675111E+02  0.93368558556E+01  0.68280938532E+02  0.41800000000E+01 0. -1.
         -5    1    3    3    0  502 -0.47584459063E+02 -0.19857976654E+02  0.46838538524E+02  0.69784963081E+02  0.41800000000E+01 0. -1.
        -11    1    4    4    0    0  0.11299568992E+02 -0.21147360372E+02 -0.34837301863E+02  0.42291000357E+02  0.00000000000E+00 0.  1.
         11    1    4    4    0    0 -0.26782291344E+02  0.16918661915E+02  0.43649730646E+02  0.53933581710E+02  0.00000000000E+00 0. -1.
</event>
<event>
 8    1  0.6849590E-009  0.1778453E+03  0.7561462E-02  0.1169905E+00
         -1   -1    0    0    0  501 -0.00000000000E+00  0.00000000000E+00  0.49150550304E+03  0.49150550304E+03  0.00000000000E+00 0.  1.
          1   -1    0    0  501    0  0.00000000000E+00 -0.00000000000E+00 -0.81787038550E+02  0.81787038550E+02  0.00000000000E+00 0. -1.
         25    2    1    2    0    0 -0.13372226918E+03  0.86210912769E+02  0.28705424740E+03  0.35122780402E+03  0.12508741989E+03 0.  0.
         23    2    1    2    0    0  0.13372226918E+03 -0.86210912769E+02  0.12266421709E+03  0.22206473756E+03  0.94616440224E+02 0.  0.
          5    1    3    3  502    0 -0.12282938484E+03  0.14363068626E+02  0.13800287023E+03  0.18535269114E+03  0.41800000000E+01 0. -1.
         -5    1    3    3    0  502 -0.10892884335E+02  0.71847844144E+02  0.14905137717E+03  0.16587511288E+03  0.41800000000E+01 0. -1.
        -11    1    4    4    0    0  0.63337400154E+02 -0.38217924564E+02  0.11472344364E+03  0.13650532787E+03  0.00000000000E+00 0.  1.
         11    1    4    4    0    0  0.70384869025E+02 -0.47992988205E+02  0.79407734507E+01  0.85559409696E+02  0.00000000000E+00 0. -1.
</event>
<event>
 8    1  0.6849590E-009  0.9959158E+02  0.7561462E-02  0.1281157E+00
         -2   -1    0    0    0  501 -0.00000000000E+00  0.00000000000E+00  0.37812288294E+02  0.37812288294E+02  0.00000000000E+00 0. -1.
          2   -1    0    0  501    0  0.00000000000E+00 -0.00000000000E+00 -0.38658792038E+03  0.38658792038E+03  0.00000000000E+00 0.  1.
         25    2    1    2    0    0  0.49468335052E+02  0.16407772607E+02 -0.21797434725E+03  0.25666531942E+03  0.12509172219E+03 0.  0.
         23    2    1    2    0    0 -0.49468335052E+02 -0.16407772607E+02 -0.13080128484E+03  0.16773488926E+03  0.91157477936E+02 0.  0.
          5    1    3    3  502    0  0.30937590300E+02  0.50907756592E+02 -0.34406992783E+02  0.68920590009E+02  0.41800000000E+01 0. -1.
         -5    1    3    3    0  502  0.18530744753E+02 -0.34499983985E+02 -0.18356735447E+03  0.18774472941E+03  0.41800000000E+01 0. -1.
        -11    1    4    4    0    0 -0.73990090313E+02 -0.15164063227E+02 -0.11784960284E+03  0.13997503766E+03  0.00000000000E+00 0.  1.
         11    1    4    4    0    0  0.24521755261E+02 -0.12437093804E+01 -0.12951681998E+02  0.27759851597E+02  0.00000000000E+00 0. -1.
</event>
<event>
 8    1  0.6849590E-009  0.1258438E+03  0.7561462E-02  0.1233756E+00
          1   -1    0    0  501    0  0.00000000000E+00  0.00000000000E+00  0.20731030979E+03  0.20731030979E+03  0.00000000000E+00 0. -1.
         -1   -1    0    0    0  501 -0.00000000000E+00 -0.00000000000E+00 -0.18254724258E+03  0.18254724258E+03  0.00000000000E+00 0.  1.
         25    2    1    2    0    0 -0.38435892079E+02 -0.11405968754E+03  0.11974256018E+03  0.21088718375E+03  0.12509273931E+03 0.  0.
         23    2    1    2    0    0  0.38435892079E+02  0.11405968754E+03 -0.94979492967E+02  0.17897036862E+03  0.92316621676E+02 0.  0.
          5    1    3    3  502    0 -0.15254963883E+02 -0.87663084083E+01 -0.24689286888E+02  0.30603845726E+02  0.41800000000E+01 0.  1.
         -5    1    3    3    0  502 -0.23180928196E+02 -0.10529337913E+03  0.14443184707E+03  0.18028333802E+03  0.41800000000E+01 0.  1.
        -11    1    4    4    0    0 -0.70286786237E+01  0.20812131156E+02  0.15907270442E+02  0.27121732602E+02  0.00000000000E+00 0. -1.
         11    1    4    4    0    0  0.45464570703E+02  0.93247556387E+02 -0.11088676341E+03  0.15184863602E+03  0.00000000000E+00 0.  1.
</event>
<event>
 8    1  0.6849590E-009  0.1335454E+03  0.7561462E-02  0.1222288E+00
         -2   -1    0    0    0  501 -0.00000000000E+00  0.00000000000E+00  0.28031118289E+02  0.28031118289E+02  0.00000000000E+00 0.  1.
          2   -1    0    0  501    0  0.00000000000E+00 -0.00000000000E+00 -0.74418620870E+03  0.74418620870E+03  0.00000000000E+00 0. -1.
         25    2    1    2    0    0 -0.37515679345E+02  0.74777055696E+02 -0.26819902871E+03  0.30753303436E+03  0.12508722544E+03 0.  0.
         23    2    1    2    0    0  0.37515679345E+02 -0.74777055696E+02 -0.44795606170E+03  0.46468429263E+03  0.90927577459E+02 0.  0.
          5    1    3    3  502    0 -0.72196625733E+02  0.13815723979E+02 -0.91940493896E+02  0.11778690001E+03  0.41800000000E+01 0.  1.
         -5    1    3    3    0  502  0.34680946388E+02  0.60961331717E+02 -0.17625853481E+03  0.18974613435E+03  0.41800000000E+01 0.  1.
        -11    1    4    4    0    0 -0.20297402645E+02  0.83523388112E+01 -0.67149385019E+02  0.70645495442E+02  0.00000000000E+00 0.  1.
         11    1    4    4    0    0  0.57813081990E+02 -0.83129394507E+02 -0.38080667669E+03  0.39403879719E+03  0.00000000000E+00 0. -1.
</event>
<event>
 8    1  0.6849590E-009  0.1500818E+03  0.7561462E-02  0.1200373E+00
          1   -1    0    0  501    0  0.00000000000E+00  0.00000000000E+00  0.54271744519E+03  0.54271744519E+03  0.00000000000E+00 0. -1.
         -1   -1    0    0    0  501 -0.00000000000E+00 -0.00000000000E+00 -0.61319548511E+02  0.61319548511E+02  0.00000000000E+00 0.  1.
         25    2    1    2    0    0 -0.43118540161E+02 -0.92105859656E+02  0.42213466633E+03  0.45187133263E+03  0.12508927549E+03 0.  0.
         23    2    1    2    0    0  0.43118540161E+02  0.92105859656E+02  0.59263230346E+02  0.15216566107E+03  0.96434226550E+02 0.  0.
          5    1    3    3  502    0 -0.78714257725E+02 -0.96328683969E+02  0.34334488584E+03  0.36520998447E+03  0.41800000000E+01 0. -1.
         -5    1    3    3    0  502  0.35595717565E+02  0.42228243134E+01  0.78789780491E+02  0.86661348154E+02  0.41800000000E+01 0. -1.
        -11    1    4    4    0    0 -0.30059785458E+02  0.38745757824E+02  0.27287229179E+02  0.56119669702E+02  0.00000000000E+00 0.  1.
         11    1    4    4    0    0  0.73178325619E+02  0.53360101832E+02  0.31976001167E+02  0.96045991372E+02  0.00000000000E+00 0. -1.
</event>
<event>
 8    1  0.6849590E-009  0.1477157E+03  0.7561462E-02  0.1203308E+00
          2   -1    0    0  501    0  0.00000000000E+00  0.00000000000E+00  0.29546884746E+03  0.29546884746E+03  0.00000000000E+00 0. -1.
         -2   -1    0    0    0  501 -0.00000000000E+00 -0.00000000000E+00 -0.84293107556E+02  0.84293107556E+02  0.00000000000E+00 0.  1.
         25    2    1    2    0    0  0.44581200955E+02 -0.10349810173E+03  0.96791674530E+02  0.19420330805E+03  0.12508779340E+03 0.  0.
         23    2    1    2    0    0 -0.44581200955E+02  0.10349810173E+03  0.11438406537E+03  0.18555864697E+03  0.92999766199E+02 0.  0.
          5    1    3    3  502    0 -0.42653959805E+02 -0.30036991579E+02  0.44385637152E+02  0.68623161800E+02  0.41800000000E+01 0.  1.
         -5    1    3    3    0  502  0.87235160760E+02 -0.73461110151E+02  0.52406037379E+02  0.12558014625E+03  0.41800000000E+01 0.  1.
        -11    1    4    4    0    0 -0.39979327639E+02  0.18851140758E+02  0.85058713821E+02  0.95857691101E+02  0.00000000000E+00 0. -1.
         11    1    4    4    0    0 -0.46018733162E+01  0.84646960971E+02  0.29325351551E+02  0.89700955866E+02  0.00000000000E+00 0.  1.
</event>
<event>
 8    1  0.6849590E-009  0.1101529E+03  0.7561462E-02  0.1260287E+00
          3   -1    0    0  501    0  0.00000000000E+00  0.00000000000E+00  0.10734215307E+03  0.10734215307E+03  0.00000000000E+00 0. -1.
         -3   -1    0    0    0  501 -0.00000000000E+00 -0.00000000000E+00 -0.14930998545E+03  0.14930998545E+03  0.00000000000E+00 0.  1.
         25    2    1    2    0    0  0.30026295983E+02  0.51963360267E+02  0.35517617048E+01  0.13878342919E+03  0.12508579434E+03 0.  0.
         23    2    1    2    0    0 -0.30026295983E+02 -0.51963360267E+02 -0.45519594083E+02  0.11786870934E+03  0.90659968756E+02 0.  0.
          5    1    3    3  502    0 -0.43626006730E+02  0.11894612188E+02 -0.22774432969E+02  0.50802140303E+02  0.41800000000E+01 0. -1.
         -5    1    3    3    0  502  0.73652302713E+02  0.40068748079E+02  0.26326194673E+02  0.87981288883E+02  0.41800000000E+01 0. -1.
        -11    1    4    4    0    0  0.17120317340E+02 -0.38150769822E+02 -0.53703317788E+02  0.68063447204E+02  0.00000000000E+00 0.  1.
         11    1    4    4    0    0 -0.47146613323E+02 -0.13812590445E+02  0.81837237046E+01  0.49805262134E+02  0.00000000000E+00 0. -1.
</event>
<event>
 8    1  0.6849590E-009  0.1386848E+03  0.7561462E-02  0.1215110E+00
         -2   -1    0    0    0  501 -0.00000000000E+00  0.00000000000E+00  0.13514643138E+03  0.13514643138E+03  0.00000000000E+00 0.  1.
          2   -1    0    0  501    0  0.00000000000E+00 -0.00000000000E+00 -0.18433224751E+03  0.18433224751E+03  0.00000000000E+00 0. -1.
         25    2    1    2    0    0 -0.10053156468E+03 -0.56423507452E+02 -0.20952562827E+02  0.17139589981E+03  0.12508931567E+03 0.  0.
         23    2    1    2    0    0  0.10053156468E+03  0.56423507452E+02 -0.28233253297E+02  0.14808277908E+03  0.88550466845E+02 0.  0.
          5    1    3    3  502    0  0.32516362974E+01 -0.57338780911E+02  0.18199975375E+02  0.60390565808E+02  0.41800000000E+01 0.  1.
         -5    1    3    3    0  502 -0.10378320097E+03  0.91527345841E+00 -0.39152538202E+02  0.11100533401E+03  0.41800000000E+01 0.  1.
        -11    1    4    4    0    0  0.57687152057E+02  0.39163667711E+02 -0.60029758867E+02  0.92006371142E+02  0.00000000000E+00 0. -1.
         11    1    4    4    0    0  0.42844412619E+02  0.17259839741E+02  0.31796505571E+02  0.56076407937E+02  0.00000000000E+00 0.  1.
</event>
<event>
 8    1  0.6849590E-009  0.8481595E+02  0.7561462E-02  0.1315915E+00
         -1   -1    0    0    0  501 -0.00000000000E+00  0.00000000000E+00  0.25688207477E+03  0.25688207477E+03  0.00000000000E+00 0.  1.
          1   -1    0    0  501    0  0.00000000000E+00 -0.00000000000E+00 -0.60305821008E+02  0.60305821008E+02  0.00000000000E+00 0. -1.
         25    2    1    2    0    0  0.13331499681E+02 -0.95082115722E+01  0.35441108553E+02  0.13104477947E+03  0.12509407292E+03 0.  0.
         23    2    1    2    0    0 -0.13331499681E+02  0.95082115722E+01  0.16113514521E+03  0.18614311631E+03  0.91741973795E+02 0.  0.
          5    1    3    3  502    0  0.14008940389E+01  0.37042191328E+02 -0.31301175546E+02  0.48696226066E+02  0.41800000000E+01 0.  1.
         -5    1    3    3    0  502  0.11930605642E+02 -0.46550402901E+02  0.66742284099E+02  0.82348553405E+02  0.41800000000E+01 0.  1.
        -11    1    4    4    0    0 -0.31158679827E+02  0.38824005810E+02  0.13219351897E+03  0.14125612629E+03  0.00000000000E+00 0.  1.
         11    1    4    4    0    0  0.17827180146E+02 -0.29315794238E+02  0.28941626241E+02  0.44886990022E+02  0.00000000000E+00 0. -1.
</event>
<event>
 8    1  0.6849590E-009  0.1111989E+03  0.7561462E-02  0.1258366E+00
         -2   -1    0    0    0  501 -0.00000000000E+00  0.00000000000E+00  0.56172133857E+02  0.56172133857E+02  0.00000000000E+00 0.  1.
          2   -1    0    0  501    0  0.00000000000E+00 -0.00000000000E+00 -0.28147163053E+03  0.28147163053E+03  0.00000000000E+00 0. -1.
         25    2    1    2    0    0 -0.63661418253E+02  0.75575092113E+00 -0.13062404456E+03  0.19174069624E+03  0.12509398965E+03 0.  0.
         23    2    1    2    0    0  0.63661418253E+02 -0.75575092113E+00 -0.94675452114E+02  0.14590306814E+03  0.90944580526E+02 0.  0.
          5    1    3    3  502    0 -0.24930678573E+01 -0.42221114508E+02 -0.15581641232E+01  0.42529262551E+02  0.41800000000E+01 0.  1.
         -5    1    3    3    0  502 -0.61168350395E+02  0.42976865430E+02 -0.12906588044E+03  0.14921143369E+03  0.41800000000E+01 0.  1.
        -11    1    4    4    0    0  0.32742730050E+02 -0.42139621600E+02 -0.24387434992E+02  0.58673512467E+02  0.00000000000E+00 0.  1.
         11    1    4    4    0    0  0.30918688203E+02  0.41383870678E+02 -0.70288017121E+02  0.87229555676E+02  0.00000000000E+00 0. -1.
</event>
<event>
 8    1  0.6849590E-009  0.6074347E+02  0.7561462E-02  0.1394738E+00
          3   -1    0    0  501    0  0.00000000000E+00  0.00000000000E+00  0.53474243949E+02  0.53474243949E+02  0.00000000000E+00 0. -1.
         -3   -1    0    0    0  501 -0.00000000000E+00 -0.00000000000E+00 -0.22582345217E+03  0.22582345217E+03  0.00000000000E+00 0.  1.
         25    2    1    2    0    0  0.18226952823E+02 -0.13236961968E+02 -0.11809947096E+03  0.17349549209E+03  0.12508301949E+03 0.  0.
         23    2    1    2    0    0 -0.18226952823E+02  0.13236961968E+02 -0.54249737270E+02  0.10580220403E+03  0.87997917091E+02 0.  0.
          5    1    3    3  502    0  0.19560010480E+02 -0.13726366552E+01  0.23751345568E+02  0.31081778547E+02  0.41800000000E+01 0.  1.
         -5    1    3    3    0  502 -0.13330576561E+01 -0.11864325313E+02 -0.14185081652E+03  0.14241371355E+03  0.41800000000E+01 0.  1.
        -11    1    4    4    0    0 -0.11240056763E+02  0.50061162151E+02 -0.42197147880E+02  0.66430852178E+02  0.00000000000E+00 0.  1.
         11    1    4    4    0    0 -0.69868960603E+01 -0.36824200182E+02 -0.12052589390E+02  0.39371351851E+02  0.00000000000E+00 0. -1.
</event>
<event>
 8    1  0.6849590E-009  0.9331002E+02  0.7561462E-02  0.1295028E+00
          2   -1    0    0  501    0  0.00000000000E+00  0.00000000000E+00  0.29787657311E+02  0.29787657311E+02  0.00000000000E+00 0.  1.
         -2   -1    0    0    0  501 -0.00000000000E+00 -0.00000000000E+00 -0.50650724512E+03  0.50650724512E+03  0.00000000000E+00 0. -1.
         25    2    1    2    0    0  0.16957738469E+02  0.14623354577E+02 -0.37851400459E+03  0.39927605157E+03  0.12508839393E+03 0.  0.
         23    2    1    2    0    0 -0.16957738469E+02 -0.14623354577E+02 -0.98205583221E+02  0.13701885086E+03  0.92889297137E+02 0.  0.
          5    1    3    3  502    0  0.21875995131E+02 -0.53859544965E+02 -0.17143568591E+03  0.18107202034E+03  0.41800000000E+01 0. -1.
         -5    1    3    3    0  502 -0.49182566621E+01  0.68482899542E+02 -0.20707831869E+03  0.21820403124E+03  0.41800000000E+01 0. -1.
        -11    1    4    4    0    0 -0.80388858682E+01  0.21179519768E+02  0.84368106537E+01  0.24173860213E+02  0.00000000000E+00 0.  1.
         11    1    4    4    0    0 -0.89188526012E+01 -0.35802874345E+02 -0.10664239387E+03  0.11284499065E+03  0.00000000000E+00 0. -1.
</event>
<event>
 8    1  0.6849590E-009  0.1172201E+03  0.7561462E-02  0.1247755E+00
         -1   -1    0    0    0  501 -0.00000000000E+00  0.00000000000E+00  0.23234946779E+03  0.23234946779E+03  0.00000000000E+00 0.  1.
          1   -1    0    0  501    0  0.00000000000E+00 -0.00000000000E+00 -0.74176108512E+02  0.74176108512E+02  0.00000000000E+00 0. -1.
         25    2    1    2    0    0 -0.59317251692E+02 -0.13434473301E+01  0.36125853487E+02  0.14308308521E+03  0.12508937119E+03 0.  0.
         23    2    1    2    0    0  0.59317251692E+02  0.13434473301E+01  0.12204750580E+03  0.16344249109E+03  0.91090685718E+02 0.  0.
          5    1    3    3  502    0  0.28365967235E+02  0.33416560683E+02  0.11168323941E+02  0.45425746936E+02  0.41800000000E+01 0.  1.
         -5    1    3    3    0  502 -0.87683218927E+02 -0.34760008013E+02  0.24957529547E+02  0.97657338278E+02  0.41800000000E+01 0.  1.
        -11    1    4    4    0    0  0.69868463429E+02  0.21619917982E+02  0.11995062047E+03  0.14048905433E+03  0.00000000000E+00 0. -1.
         11    1    4    4    0    0 -0.10551211737E+02 -0.20276470652E+02  0.20968853281E+01  0.22953436764E+02  0.00000000000E+00 0.  1.
</event>
<event>
 8    1  0.6849590E-009  0.8981085E+02  0.7561462E-02  0.1303310E+00
         -3   -1    0    0    0  501 -0.00000000000E+00  0.00000000000E+00  0.34778002163E+03  0.34778002163E+03  0.00000000000E+00 0.  1.
          3   -1    0    0  501    0  0.00000000000E+00 -0.00000000000E+00 -0.40618240032E+02  0.40618240032E+02  0.00000000000E+00 0. -1.
         25    2    1    2    0    0  0.21444031555E+02 -0.37520394956E+02  0.14059074160E+03  0.19308182881E+03  0.12508880631E+03 0.  0.
         23    2    1    2    0    0 -0.21444031555E+02  0.37520394956E+02  0.16657104000E+03  0.19531643285E+03  0.92384907047E+02 0.  0.
          5    1    3    3  502    0 -0.11784167839E+02 -0.42017141177E+02  0.15138850124E+03  0.15760792326E+03  0.41800000000E+01 0. -1.
         -5    1    3    3    0  502  0.33228199394E+02  0.44967462211E+01 -0.10797759645E+02  0.35473905549E+02  0.41800000000E+01 0. -1.
        -11    1    4    4    0    0  0.36595115406E+02  0.11250634175E+02  0.62688362160E+02  0.73454815984E+02  0.00000000000E+00 0. -1.
         11    1    4    4    0    0 -0.58039146961E+02  0.26269760781E+02  0.10388267784E+03  0.12186161687E+03  0.00000000000E+00 0.  1.
</event>
<event>
 8    1  0.6849590E-009  0.7230676E+02  0.7561462E-02  0.1352420E+00
          1   -1    0    0  501    0  0.00000000000E+00  0.00000000000E+00  0.23831152714E+03  0.23831152714E+03  0.00000000000E+00 0. -1.
         -1   -1    0    0    0  501 -0.00000000000E+00 -0.00000000000E+00 -0.51379496988E+02  0.51379496988E+02  0.00000000000E+00 0.  1.
         25    2    1    2    0    0 -0.15953836304E+01 -0.22567154475E+02  0.11345075855E+03  0.17037835096E+03  0.12508351670E+03 0.  0.
         23    2    1    2    0    0  0.15953836304E+01  0.22567154475E+02  0.73481271600E+02  0.11931267317E+03  0.91237026434E+02 0.  0.
          5    1    3    3  502    0  0.28391211153E+02 -0.39514345673E+02  0.12468529107E+03  0.13390794821E+03  0.41800000000E+01 0. -1.
         -5    1    3    3    0  502 -0.29986594784E+02  0.16947191198E+02 -0.11234532514E+02  0.36470402754E+02  0.41800000000E+01 0. -1.
        -11    1    4    4    0    0  0.27188001267E+02  0.35004134156E+00 -0.10191029041E+02  0.29037338286E+02  0.00000000000E+00 0.  1.
         11    1    4    4    0    0 -0.25592617637E+02  0.22217113134E+02  0.83672300641E+02  0.90275334882E+02  0.00000000000E+00 0. -1.
</event>
<event>
 8    1  0.6849590E-009  0.1118439E+03  0.7561462E-02  0.1257193E+00
          2   -1    0    0  501    0  0.00000000000E+00  0.00000000000E+00  0.50493543049E+03  0.50493543049E+03  0.00000000000E+00 0. -1.
         -2   -1    0    0    0  501 -0.00000000000E+00 -0.00000000000E+00 -0.40252223694E+02  0.40252223694E+02  0.00000000000E+00 0.  1.
         25    2    1    2    0    0  0.80700505293E+02  0.18854829077E+02  0.34005968320E+03  0.37169387348E+03  0.12509065235E+03 0.  0.
         23    2    1    2    0    0 -0.80700505293E+02 -0.18854829077E+02  0.12462352359E+03  0.17349378070E+03  0.87755302844E+02 0.  0.
          5    1    3    3  502    0 -0.16773837998E+02 -0.26216624739E+02  0.15092577682E+03  0.15415815113E+03  0.41800000000E+01 0. -1.
         -5    1    3    3    0  502  0.97474343291E+02  0.45071453816E+02  0.18913390639E+03  0.21753572234E+03  0.41800000000E+01 0. -1.
        -11    1    4    4    0    0 -0.23990456596E+02  0.27064443172E+01 -0.97666570992E+01  0.26043318518E+02  0.00000000000E+00 0.  1.
         11    1    4    4    0    0 -0.56710048697E+02 -0.21561273394E+02  0.13439018069E+03  0.14745046219E+03  0.00000000000E+00 0. -1.
</event>
<event>
 8    1  0.6849590E-009  0.1196585E+03  0.7561462E-02  0.1243661E+00
         -1   -1    0    0    0  501 -0.00000000000E+00  0.00000000000E+00  0.24818128063E+02  0.24818128063E+02  0.00000000000E+00 0.  1.
          1   -1    0    0  501    0  0.00000000000E+00 -0.00000000000E+00 -0.10172792279E+04  0.10172792279E+04  0.00000000000E+00 0. -1.
         25    2    1    2    0    0  0.14300188214E+02  0.58371620614E+02 -0.86316071256E+03  0.87424592347E+03  0.12509107692E+03 0.  0.
         23    2    1    2    0    0 -0.14300188214E+02 -0.58371620614E+02 -0.12930038731E+03  0.16785143252E+03  0.88565070796E+02 0.  0.
          5    1    3    3  502    0 -0.49321296506E+02  0.55616285562E+02 -0.50177495217E+03  0.50726850537E+03  0.41800000000E+01 0.  1.
         -5    1    3    3    0  502  0.63621484720E+02  0.27553350518E+01 -0.36138576039E+03  0.36697741811E+03  0.41800000000E+01 0.  1.
        -11    1    4    4    0    0  0.26542503021E+02  0.36416461559E+01 -0.12782810966E+02  0.29684445583E+02  0.00000000000E+00 0.  1.
         11    1    4    4    0    0 -0.40842691235E+02 -0.62013266770E+02 -0.11651757634E+03  0.13816698694E+03  0.00000000000E+00 0. -1.
</event>
<event>
 8    1  0.6849590E-009  0.6536639E+02  0.7561462E-02  0.1376599E+00
         -1   -1    0    0    0  501 -0.00000000000E+00  0.00000000000E+00  0.85644695312E+02  0.85644695312E+02  0.00000000000E+00 0.  1.
          1   -1    0    0  501    0  0.00000000000E+00 -0.00000000000E+00 -0.16395677320E+03  0.16395677320E+03  0.00000000000E+00 0. -1.
         25    2    1    2    0    0 -0.25076354224E+02 -0.40692250023E+02 -0.48566923289E+02  0.14245231579E+03  0.12509689638E+03 0.  0.
         23    2    1    2    0    0  0.25076354224E+02  0.40692250023E+02 -0.29745154596E+02  0.10714915272E+03  0.91167340386E+02 0.  0.
          5    1    3    3  502    0  0.72742641983E+01  0.62327593140E+01 -0.77635216883E+02  0.78335569883E+02  0.41800000000E+01 0.  1.
         -5    1    3    3    0  502 -0.32350618422E+02 -0.46925009337E+02  0.29068293594E+02  0.64116745910E+02  0.41800000000E+01 0.  1.
        -11    1    4    4    0    0 -0.11572230536E+02  0.10983788938E+02 -0.52428035762E+02  0.54801998803E+02  0.00000000000E+00 0. -1.
         11    1    4    4    0    0  0.36648584760E+02  0.29708461085E+02  0.22682881166E+02  0.52347153914E+02  0.00000000000E+00 0.  1.
</event>
<event>
 8    1  0.6849590E-009  0.8571562E+02  0.7561462E-02  0.1313572E+00
          1   -1    0    0  501    0  0.00000000000E+00  0.00000000000E+00  0.72502048982E+02  0.72502048982E+02  0.00000000000E+00 0. -1.
         -1   -1    0    0    0  501 -0.00000000000E+00 -0.00000000000E+00 -0.22349362595E+03  0.22349362595E+03  0.00000000000E+00 0.  1.
         25    2    1    2    0    0 -0.25179999513E+02  0.47107040363E+02 -0.12942768262E+03  0.18775635164E+03  0.12509123441E+03 0.  0.
         23    2    1    2    0    0  0.25179999513E+02 -0.47107040363E+02 -0.21563894350E+02  0.10823932329E+03  0.91638659635E+02 0.  0.
          5    1    3    3  502    0 -0.64343666178E+02  0.27183972281E+02 -0.24869036622E+02  0.74263161182E+02  0.41800000000E+01 0.  1.
         -5    1    3    3    0  502  0.39163666665E+02  0.19923068082E+02 -0.10455864599E+03  0.11349319046E+03  0.41800000000E+01 0.  1.
        -11    1    4    4    0    0  0.22798651201E+02 -0.20671005451E+02 -0.56515650494E+02  0.64351283699E+02  0.00000000000E+00 0.  1.
         11    1    4    4    0    0  0.23813483111E+01 -0.26436034912E+02  0.34951756144E+02  0.43888039591E+02  0.00000000000E+00 0. -1.
</event>
<event>
 8    1  0.6849590E-009  0.1167302E+03  0.7561462E-02  0.1248591E+00
         -1   -1    0    0    0  501 -0.00000000000E+00  0.00000000000E+00  0.11600908883E+03  0.11600908883E+03  0.00000000000E+00 0.  1.
          1   -1    0    0  501    0  0.00000000000E+00 -0.00000000000E+00 -0.24313444456E+03  0.24313444456E+03  0.00000000000E+00 0. -1.
         25    2    1    2    0    0 -0.89429819749E+02  0.45516520810E+02 -0.15174093518E+03  0.22077788525E+03  0.12509243335E+03 0.  0.
         23    2    1    2    0    0  0.89429819749E+02 -0.45516520810E+02  0.24615579455E+02  0.13836564813E+03  0.92030861695E+02 0.  0.
          5    1    3    3  502    0 -0.58784692445E+02  0.55472558791E+01  0.17105295437E+01  0.59218328455E+02  0.41800000000E+01 0.  1.
         -5    1    3    3    0  502 -0.30645127304E+02  0.39969264931E+02 -0.15345146473E+03  0.16155955680E+03  0.41800000000E+01 0.  1.
        -11    1    4    4    0    0  0.16380830853E+02 -0.47917196380E+02  0.38947838789E+02  0.63885236751E+02  0.00000000000E+00 0.  1.
         11    1    4    4    0    0  0.73048988897E+02  0.24006755698E+01 -0.14332259334E+02  0.74480411382E+02  0.00000000000E+00 0. -1.
</event>
<event>
 7    1  0.6849590E-009  0.1362029E+03  0.7561462E-02  0.1218532E+00
          2   -1    0    0  501    0  0.00000000000E+00  0.00000000000E+00  0.39263440036E+03  0.39263440036E+03  0.00000000000E+00 0. -1.
         -2   -1    0    0    0  501 -0.00000000000E+00 -0.00000000000E+00 -0.59377101639E+02  0.59377101639E+02  0.00000000000E+00 0.  1.
         23    2    1    2    0    0  0.31469569936E+02 -0.10825686332E+03  0.88569108726E+02  0.15488687969E+03  0.58613788414E+02 0.  0.
          5    1    1    2  502    0  0.32970319040E+02  0.30174674704E+02  0.17164610713E+02  0.48058809723E+02  0.41800000000E+01 0.  1.
         -5    1    1    2    0  502 -0.64439888976E+02  0.78082188614E+02  0.22752357928E+03  0.24906581259E+03  0.41800000000E+01 0.  1.
        -11    1    3    3    0    0 -0.16437288660E+02 -0.21224306469E+02  0.11746637244E+02  0.29302544772E+02  0.00000000000E+00 0.  1.
         11    1    3    3    0    0  0.47906858596E+02 -0.87032556849E+02  0.76822471482E+02  0.12558433492E+03  0.00000000000E+00 0. -1.
</event>
<event>
 8    1  0.6849590E-009  0.3411044E+03  0.7561462E-02  0.1066327E+00
          1   -1    0    0  501    0  0.00000000000E+00  0.00000000000E+00  0.57591973264E+03  0.57591973264E+03  0.00000000000E+00 0. -1.
         -1   -1    0    0    0  501 -0.00000000000E+00 -0.00000000000E+00 -0.23398313288E+03  0.23398313288E+03  0.00000000000E+00 0.  1.
         25    2    1    2    0    0  0.32899979065E+03  0.61205200906E+01  0.30564851462E+03  0.46620479637E+03  0.12509026604E+03 0.  0.
         23    2    1    2    0    0 -0.32899979065E+03 -0.61205200906E+01  0.36288085140E+02  0.34369806916E+03  0.92375400448E+02 0.  0.
          5    1    3    3  502    0  0.27607238151E+03  0.52673974821E+02  0.23594736600E+03  0.36698656566E+03  0.41800000000E+01 0. -1.
         -5    1    3    3    0  502  0.52927409136E+02 -0.46553454730E+02  0.69701148621E+02  0.99218230705E+02  0.41800000000E+01 0. -1.
        -11    1    4    4    0    0 -0.85777534557E+02  0.12020310273E+02  0.48915418657E+02  0.99473571748E+02  0.00000000000E+00 0. -1.
         11    1    4    4    0    0 -0.24322225609E+03 -0.18140830364E+02 -0.12627333517E+02  0.24422449741E+03  0.00000000000E+00 0.  1.
</event>
<event>
 8    1  0.6849590E-009  0.6088471E+02  0.7561462E-02  0.1394156E+00
         -1   -1    0    0    0  501 -0.00000000000E+00  0.00000000000E+00  0.76148250417E+02  0.76148250417E+02  0.00000000000E+00 0.  1.
          1   -1    0    0  501    0  0.00000000000E+00 -0.00000000000E+00 -0.19800113121E+03  0.19800113121E+03  0.00000000000E+00 0. -1.
         25    2    1    2    0    0 -0.55694617883E+02 -0.11631878499E+01 -0.53774111430E+02  0.14711386213E+03  0.12509032698E+03 0.  0.
         23    2    1    2    0    0  0.55694617883E+02  0.11631878499E+01 -0.68078769365E+02  0.12703551950E+03  0.91651846186E+02 0.  0.
          5    1    3    3  502    0 -0.19342712684E+02  0.12307374057E+02 -0.90558524983E+02  0.93508988003E+02  0.41800000000E+01 0. -1.
         -5    1    3    3    0  502 -0.36351905199E+02 -0.13470561907E+02  0.36784413553E+02  0.53604874127E+02  0.41800000000E+01 0. -1.
        -11    1    4    4    0    0  0.10898916146E+02 -0.82867208491E+01 -0.78828600383E+02  0.80008776731E+02  0.00000000000E+00 0. -1.
         11    1    4    4    0    0  0.44795701737E+02  0.94499086990E+01  0.10749831018E+02  0.47026742769E+02  0.00000000000E+00 0.  1.
</event>
<event>
 8    1  0.6849590E-009  0.1336182E+03  0.7561462E-02  0.1222184E+00
          1   -1    0    0  501    0  0.00000000000E+00  0.00000000000E+00  0.26632294082E+03  0.26632294082E+03  0.00000000000E+00 0. -1.
         -1   -1    0    0    0  501 -0.00000000000E+00 -0.00000000000E+00 -0.13755337377E+03  0.13755337377E+03  0.00000000000E+00 0.  1.
         25    2    1    2    0    0  0.90647615103E+02 -0.31795923236E+02 -0.64611939332E+02  0.17043981449E+03  0.12508819608E+03 0.  0.
         23    2    1    2    0    0 -0.90647615103E+02  0.31795923236E+02  0.19338150638E+03  0.23343650010E+03  0.88702997205E+02 0.  0.
          5    1    3    3  502    0  0.94846325372E+02 -0.58580243590E+02 -0.81562718634E+02  0.13819341463E+03  0.41800000000E+01 0. -1.
         -5    1    3    3    0  502 -0.41987102693E+01  0.26784320354E+02  0.16950779303E+02  0.32246399857E+02  0.41800000000E+01 0. -1.
        -11    1    4    4    0    0  0.16795090028E+02  0.38700713935E+01  0.12827688060E+02  0.21484926870E+02  0.00000000000E+00 0.  1.
         11    1    4    4    0    0 -0.10744270513E+03  0.27925851843E+02  0.18055381832E+03  0.21195157323E+03  0.00000000000E+00 0. -1.
</event>
<event>
 8    1  0.6849590E-009  0.1098629E+03  0.7561462E-02  0.1260824E+00
         -2   -1    0    0    0  501 -0.00000000000E+00  0.00000000000E+00  0.44350131325E+03  0.44350131325E+03  0.00000000000E+00 0.  1.
          2   -1    0    0  501    0  0.00000000000E+00 -0.00000000000E+00 -0.50289186378E+02  0.50289186378E+02  0.00000000000E+00 0. -1.
         25    2    1    2    0    0 -0.33311925220E+02  0.59949354560E+02  0.34276133308E+03  0.37126305238E+03  0.12508922067E+03 0.  0.
         23    2    1    2    0    0  0.33311925220E+02 -0.59949354560E+02  0.50450793793E+02  0.12252744726E+03  0.88114035561E+02 0.  0.
          5    1    3    3  502    0 -0.19918614125E+01  0.74513830861E+02  0.93808577745E+02  0.11989078430E+03  0.41800000000E+01 0. -1.
         -5    1    3    3    0  502 -0.31320063807E+02 -0.14564476301E+02  0.24895275534E+03  0.25137226808E+03  0.41800000000E+01 0. -1.
        -11    1    4    4    0    0  0.40612864273E+02  0.84539871006E+01  0.98101461488E+01  0.42627615577E+02  0.00000000000E+00 0. -1.
         11    1    4    4    0    0 -0.73009390530E+01 -0.68403341661E+02  0.40640647644E+02  0.79899831679E+02  0.00000000000E+00 0.  1.
</event>
<event>
 8    1  0.6849590E-009  0.1665335E+03  0.7561462E-02  0.1181512E+00
         -1   -1    0    0    0  501 -0.00000000000E+00  0.00000000000E+00  0.27614208188E+03  0.27614208188E+03  0.00000000000E+00 0.  1.
          1   -1    0    0  501    0  0.00000000000E+00 -0.00000000000E+00 -0.14025700567E+03  0.14025700567E+03  0.00000000000E+00 0. -1.
         25    2    1    2    0    0  0.12686002848E+03 -0.10282640976E+03  0.62665084866E+02  0.21503936087E+03  0.12509307132E+03 0.  0.
         23    2    1    2    0    0 -0.12686002848E+03  0.10282640976E+03  0.73219991351E+02  0.20135972668E+03  0.92292117902E+02 0.  0.
          5    1    3    3  502    0  0.10445605141E+03 -0.60842121871E+02  0.97956208303E+02  0.15564614231E+03  0.41800000000E+01 0.  1.
         -5    1    3    3    0  502  0.22403977065E+02 -0.41984287888E+02 -0.35291123436E+02  0.59393218562E+02  0.41800000000E+01 0.  1.
        -11    1    4    4    0    0 -0.14192006335E+02  0.19907919773E+02  0.55124505171E+02  0.60302979892E+02  0.00000000000E+00 0.  1.
         11    1    4    4    0    0 -0.11266802214E+03  0.82918489985E+02  0.18095486180E+02  0.14105674679E+03  0.00000000000E+00 0. -1.
</event>
<event>
 8    1  0.6849590E-009  0.1175801E+03  0.7561462E-02  0.1247143E+00
          2   -1    0    0  501    0  0.00000000000E+00  0.00000000000E+00  0.40471379016E+03  0.40471379016E+03  0.00000000000E+00 0.  1.
         -2   -1    0    0    0  501 -0.00000000000E+00 -0.00000000000E+00 -0.38220534314E+02  0.38220534314E+02  0.00000000000E+00 0. -1.
         25    2    1    2    0    0  0.23092839586E+02 -0.55296400781E+02  0.17493554418E+03  0.22324923050E+03  0.12508718209E+03 0.  0.
         23    2    1    2    0    0 -0.23092839586E+02  0.55296400781E+02  0.19155771167E+03  0.21968509397E+03  0.89309643571E+02 0.  0.
          5    1    3    3  502    0  0.73096352859E+02 -0.24433482678E+02  0.77429394095E+02  0.10932911482E+03  0.41800000000E+01 0. -1.
         -5    1    3    3    0  502 -0.50003513273E+02 -0.30862918103E+02  0.97506150082E+02  0.11392011568E+03  0.41800000000E+01 0. -1.
        -11    1    4    4    0    0  0.91218062842E+01  0.64830868745E+02  0.81081483160E+02  0.10421351066E+03  0.00000000000E+00 0.  1.
         11    1    4    4    0    0 -0.32214645870E+02 -0.95344679638E+01  0.11047622851E+03  0.11547158332E+03  0.00000000000E+00 0. -1.
</event>
<event>
 8    1  0.6849590E-009  0.1108832E+03  0.7561462E-02  0.1258943E+00
         -2   -1    0    0    0  501 -0.00000000000E+00  0.00000000000E+00  0.68461459004E+02  0.68461459004E+02  0.00000000000E+00 0. -1.
          2   -1    0    0  501    0  0.00000000000E+00 -0.00000000000E+00 -0.25456378896E+03  0.25456378896E+03  0.00000000000E+00 0.  1.
         25    2    1    2    0    0 -0.13489901893E+02 -0.36658046505E+02 -0.18274725036E+03  0.22487852382E+03  0.12509197870E+03 0.  0.
         23    2    1    2    0    0  0.13489901893E+02  0.36658046505E+02 -0.33550795942E+01  0.98146724143E+02  0.89976291735E+02 0.  0.
          5    1    3    3  502    0 -0.35151736260E+02 -0.74657788560E+02 -0.14528598091E+03  0.16713742430E+03  0.41800000000E+01 0.  1.
         -5    1    3    3    0  502  0.21661834367E+02  0.37999742055E+02 -0.37461269456E+02  0.57741099519E+02  0.41800000000E+01 0.  1.
        -11    1    4    4    0    0 -0.23582974611E+02 -0.17643015452E+02  0.99054163798E+01  0.31073299783E+02  0.00000000000E+00 0. -1.
         11    1    4    4    0    0  0.37072876504E+02  0.54301061957E+02 -0.13260495974E+02  0.67073424360E+02  0.00000000000E+00 0.  1.
</event>
<event>
 7    1  0.6849590E-009  0.1042472E+03  0.7561462E-02  0.1271610E+00
          2   -1    0    0  501    0  0.00000000000E+00  0.00000000000E+00  0.15048530940E+04  0.15048530940E+04  0.00000000000E+00 0.  1.
         -2   -1    0    0    0  501 -0.00000000000E+00 -0.00000000000E+00 -0.16889668238E+02  0.16889668238E+02  0.00000000000E+00 0. -1.
         23    2    1    2    0    0  0.40579918797E+02  0.43780222460E+02  0.23452202816E+03  0.26064758889E+03  0.96815010265E+02 0.  0.
          5    1    1    2  502    0  0.72199526153E+01 -0.67665531060E+02  0.98491038578E+03  0.98726728510E+03  0.41800000000E+01 0.  1.
         -5    1    1    2    0  502 -0.47799871412E+02  0.23885308600E+02  0.26853101181E+03  0.27382788824E+03  0.41800000000E+01 0.  1.
        -11    1    3    3    0    0  0.43037235629E+02  0.58035791426E+02  0.23531755173E+03  0.24615992137E+03  0.00000000000E+00 0.  1.
         11    1    3    3    0    0 -0.24573168317E+01 -0.14255568966E+02 -0.79552356244E+00  0.14487667524E+02  0.00000000000E+00 0. -1.
</event>
<event>
 8    1  0.6849590E-009  0.1291059E+03  0.7561462E-02  0.1228789E+00
          2   -1    0    0  501    0  0.00000000000E+00  0.00000000000E+00  0.23302141380E+03  0.23302141380E+03  0.00000000000E+00 0.  1.
         -2   -1    0    0    0  501 -0.00000000000E+00 -0.00000000000E+00 -0.81761306667E+02  0.81761306667E+02  0.00000000000E+00 0. -1.
         25    2    1    2    0    0 -0.18576892003E+02 -0.77196909312E+02  0.11428050325E+03  0.18711550515E+03  0.12509082749E+03 0.  0.
         23    2    1    2    0    0  0.18576892003E+02  0.77196909312E+02  0.36979603877E+02  0.12766721531E+03  0.92881446149E+02 0.  0.
          5    1    3    3  502    0 -0.68597066041E+02 -0.64337987455E+02  0.88637254473E+02  0.12930185374E+03  0.41800000000E+01 0. -1.
         -5    1    3    3    0  502  0.50020174038E+02 -0.12858921857E+02  0.25643248781E+02  0.57813651417E+02  0.41800000000E+01 0. -1.
        -11    1    4    4    0    0 -0.27090228133E+02  0.55367606362E+02 -0.50912216062E+01  0.61849598479E+02  0.00000000000E+00 0. -1.
         11    1    4    4    0    0  0.45667120136E+02  0.21829302950E+02  0.42070825483E+02  0.65817616833E+02  0.00000000000E+00 0.  1.
</event>
<event>
 8    1  0.6849590E-009  0.1220579E+03  0.7561462E-02  0.1239740E+00
         -1   -1    0    0    0  501 -0.00000000000E+00  0.00000000000E+00  0.45277922040E+02  0.45277922040E+02  0.00000000000E+00 0.  1.
          1   -1    0    0  501    0  0.00000000000E+00 -0.00000000000E+00 -0.48921710386E+03  0.48921710386E+03  0.00000000000E+00 0. -1.
         25    2    1    2    0    0 -0.89219220714E+01 -0.99208430993E+02 -0.27346497147E+03  0.31678514906E+03  0.12509127295E+03 0.  0.
         23    2    1    2    0    0  0.89219220714E+01  0.99208430993E+02 -0.17047421035E+03  0.21770987684E+03  0.91729060864E+02 0.  0.
          5    1    3    3  502    0 -0.30800145296E+02 -0.10951012738E+03 -0.13695951041E+03  0.17809125987E+03  0.41800000000E+01 0. -1.
         -5    1    3    3    0  502  0.21878223225E+02  0.10301696385E+02 -0.13650546106E+03  0.13869388919E+03  0.41800000000E+01 0. -1.
        -11    1    4    4    0    0 -0.10056788563E+02  0.71196941072E+02 -0.16920682741E+03  0.18385073798E+03  0.00000000000E+00 0. -1.
         11    1    4    4    0    0  0.18978710634E+02  0.28011489921E+02 -0.12673829396E+01  0.33859138861E+02  0.00000000000E+00 0.  1.
</event>
<event>
 8    1  0.6849590E-009  0.1401809E+03  0.7561462E-02  0.1213086E+00
          1   -1    0    0  501    0  0.00000000000E+00  0.00000000000E+00  0.75387691873E+02  0.75387691873E+02  0.00000000000E+00 0. -1.
         -1   -1    0    0    0  501 -0.00000000000E+00 -0.00000000000E+00 -0.28672891688E+03  0.28672891688E+03  0.00000000000E+00 0.  1.
         25    2    1    2    0    0  0.14267871184E+02 -0.90573462442E+02 -0.16254866727E+03  0.22466595019E+03  0.12508235566E+03 0.  0.
         23    2    1    2    0    0 -0.14267871184E+02  0.90573462442E+02 -0.48792557736E+02  0.13745065856E+03  0.90026915986E+02 0.  0.
          5    1    3    3  502    0  0.65084054049E+02 -0.75231116212E+02 -0.12350051762E+03  0.15863639302E+03  0.41800000000E+01 0.  1.
         -5    1    3    3    0  502 -0.50816182866E+02 -0.15342346230E+02 -0.39048149653E+02  0.66029557171E+02  0.41800000000E+01 0.  1.
        -11    1    4    4    0    0  0.34548441542E+02  0.62030387741E+02 -0.18841353971E+02  0.73459924011E+02  0.00000000000E+00 0. -1.
         11    1    4    4    0    0 -0.48816312725E+02  0.28543074701E+02 -0.29951203765E+02  0.63990734552E+02  0.00000000000E+00 0.  1.
</event>
<event>
 8    1  0.6849590E-009  0.9171221E+02  0.7561462E-02  0.1298758E+00
         -1   -1    0    0    0  501 -0.00000000000E+00  0.00000000000E+00  0.11155145490E+03  0.11155145490E+03  0.00000000000E+00 0.  1.
          1   -1    0    0  501    0  0.00000000000E+00 -0.00000000000E+00 -0.13391073475E+03  0.13391073475E+03  0.00000000000E+00 0. -1.
         25    2    1    2    0    0  0.56240044999E+02 -0.88171124061E+01 -0.96491883402E+01  0.13776997343E+03  0.12508706812E+03 0.  0.
         23    2    1    2    0    0 -0.56240044999E+02  0.88171124061E+01 -0.12710091513E+02  0.10769221621E+03  0.90528353979E+02 0.  0.
          5    1    3    3  502    0  0.87109394354E+01 -0.48528383932E+02 -0.44527569351E+02  0.66566217748E+02  0.41800000000E+01 0.  1.
         -5    1    3    3    0  502  0.47529105563E+02  0.39711271526E+02  0.34878381011E+02  0.71203755686E+02  0.41800000000E+01 0.  1.
        -11    1    4    4    0    0 -0.43855376608E+02  0.25774614859E+02  0.30739037876E+02  0.59434949971E+02  0.00000000000E+00 0.  1.
         11    1    4    4    0    0 -0.12384668391E+02 -0.16957502453E+02 -0.43449129389E+02  0.48257266243E+02  0.00000000000E+00 0. -1.
</event>
<event>
 8    1  0.6849590E-009  0.1340246E+03  0.7561462E-02  0.1221603E+00
         -4   -1    0    0    0  501 -0.00000000000E+00  0.00000000000E+00  0.10896544470E+04  0.10896544470E+04  0.00000000000E+00 0.  1.
          4   -1    0    0  501    0  0.00000000000E+00 -0.00000000000E+00 -0.22766383967E+02  0.22766383967E+02  0.00000000000E+00 0. -1.
         25    2    1    2    0    0 -0.21147397354E+02 -0.10959619480E+03  0.64712433834E+03  0.66848779536E+03  0.12508990742E+03 0.  0.
         23    2    1    2    0    0  0.21147397354E+02  0.10959619480E+03  0.41976372468E+03  0.44393303560E+03  0.91741033410E+02 0.  0.
          5    1    3    3  502    0  0.73688013599E+01 -0.10142277468E+03  0.61928304667E+03  0.62759050563E+03  0.41800000000E+01 0. -1.
         -5    1    3    3    0  502 -0.28516198714E+02 -0.81734201149E+01  0.27841291674E+02  0.40897289733E+02  0.41800000000E+01 0. -1.
        -11    1    4    4    0    0 -0.87078509577E+01  0.10587156304E+03  0.25171836059E+03  0.27321556981E+03  0.00000000000E+00 0. -1.
         11    1    4    4    0    0  0.29855248312E+02  0.37246317569E+01  0.16804536409E+03  0.17071746579E+03  0.00000000000E+00 0.  1.
</event>
<event>
 8    1  0.6849590E-009  0.1061457E+03  0.7561462E-02  0.1267879E+00
          2   -1    0    0  501    0  0.00000000000E+00  0.00000000000E+00  0.58546148103E+03  0.58546148103E+03  0.00000000000E+00 0. -1.
         -2   -1    0    0    0  501 -0.00000000000E+00 -0.00000000000E+00 -0.22690655836E+02  0.22690655836E+02  0.00000000000E+00 0.  1.
         25    2    1    2    0    0  0.36556952512E+02 -0.37914471858E+01  0.33920617083E+03  0.36339804939E+03  0.12508609084E+03 0.  0.
         23    2    1    2    0    0 -0.36556952512E+02  0.37914471858E+01  0.22356465436E+03  0.24475408747E+03  0.92588459356E+02 0.  0.
          5    1    3    3  502    0  0.66620490664E+02  0.37309954343E+02  0.23869929201E+03  0.25064945018E+03  0.41800000000E+01 0.  1.
         -5    1    3    3    0  502 -0.30063538151E+02 -0.41101401529E+02  0.10050687882E+03  0.11274859921E+03  0.41800000000E+01 0.  1.
        -11    1    4    4    0    0 -0.10485945840E+02 -0.35809913531E+02  0.16617414461E+03  0.17031192355E+03  0.00000000000E+00 0. -1.
         11    1    4    4    0    0 -0.26071006672E+02  0.39601360717E+02  0.57390509750E+02  0.74442163918E+02  0.00000000000E+00 0.  1.
</event>
<event>
 8    1  0.6849590E-009  0.8774296E+02  0.7561462E-02  0.1308411E+00
         -2   -1    0    0    0  501 -0.00000000000E+00  0.00000000000E+00  0.48207890057E+02  0.48207890057E+02  0.00000000000E+00 0.  1.
          2   -1    0    0  501    0  0.00000000000E+00 -0.00000000000E+00 -0.37869535062E+03  0.37869535062E+03  0.00000000000E+00 0. -1.
         25    2    1    2    0    0  0.12068880646E+01 -0.18357730257E+02 -0.33145717876E+03  0.35475068008E+03  0.12508285585E+03 0.  0.
         23    2    1    2    0    0 -0.12068880646E+01  0.18357730257E+02  0.96971819134E+00  0.72152560600E+02  0.69760940424E+02 0.  0.
          5    1    3    3  502    0 -0.26365565124E+02 -0.62815908744E+02 -0.23769641293E+03  0.24730151341E+03  0.41800000000E+01 0. -1.
         -5    1    3    3    0  502  0.27572453188E+02  0.44458178487E+02 -0.93760765829E+02  0.10744916667E+03  0.41800000000E+01 0. -1.
        -11    1    4    4    0    0 -0.18085037588E+02  0.29446941593E+02  0.23580730723E+02  0.41835891471E+02  0.00000000000E+00 0.  1.
         11    1    4    4    0    0  0.16878149523E+02 -0.11089211337E+02 -0.22611012531E+02  0.30316669129E+02  0.00000000000E+00 0. -1.
</event>
<event>
 8    1  0.6849590E-009  0.1399496E+03  0.7561462E-02  0.1213397E+00
         -1   -1    0    0    0  501 -0.00000000000E+00  0.00000000000E+00  0.74710004580E+02  0.74710004580E+02  0.00000000000E+00 0.  1.
          1   -1    0    0  501    0  0.00000000000E+00 -0.00000000000E+00 -0.30658529363E+03  0.30658529363E+03  0.00000000000E+00 0. -1.
         25    2    1    2    0    0  0.10041282963E+03 -0.12253043186E+02 -0.91118346515E+02  0.18488614362E+03  0.12508980618E+03 0.  0.
         23    2    1    2    0    0 -0.10041282963E+03  0.12253043186E+02 -0.14075694253E+03  0.19640915458E+03  0.92364309724E+02 0.  0.
          5    1    3    3  502    0 -0.15567835988E+02  0.32430179474E+02 -0.15940334092E+02  0.39568177985E+02  0.41800000000E+01 0.  1.
         -5    1    3    3    0  502  0.11598066562E+03 -0.44683222661E+02 -0.75178012423E+02  0.14531796564E+03  0.41800000000E+01 0.  1.
        -11    1    4    4    0    0  0.79543733730E+01  0.73736038844E+01  0.71470206297E+01  0.12989303056E+02  0.00000000000E+00 0.  1.
         11    1    4    4    0    0 -0.10836720301E+03  0.48794393021E+01 -0.14790396316E+03  0.18341985153E+03  0.00000000000E+00 0. -1.
</event>
<event>
 8    1  0.6849590E-009  0.3154175E+03  0.7561462E-02  0.1077778E+00
          3   -1    0    0  501    0  0.00000000000E+00  0.00000000000E+00  0.44668627576E+02  0.44668627576E+02  0.00000000000E+00 0. -1.
         -3   -1    0    0    0  501 -0.00000000000E+00 -0.00000000000E+00 -0.23610904346E+04  0.23610904346E+04  0.00000000000E+00 0.  1.
         25    2    1    2    0    0 -0.19815824533E+03  0.22831667082E+03 -0.10073892093E+04  0.10591879157E+04  0.12510327450E+03 0.  0.
         23    2    1    2    0    0  0.19815824533E+03 -0.22831667082E+03 -0.13090325977E+04  0.13465711465E+04  0.91062167595E+02 0.  0.
          5    1    3    3  502    0 -0.19404114296E+03  0.16603176828E+03 -0.89300470003E+03  0.92881288746E+03  0.41800000000E+01 0.  1.
         -5    1    3    3    0  502 -0.41171023746E+01  0.62284902541E+02 -0.11438450929E+03  0.13037502822E+03  0.41800000000E+01 0.  1.
        -11    1    4    4    0    0  0.83560218478E+02 -0.40534638911E+02 -0.47634494271E+03  0.48531419875E+03  0.00000000000E+00 0. -1.
         11    1    4    4    0    0  0.11459802685E+03 -0.18778203191E+03 -0.83268765500E+03  0.86125694776E+03  0.00000000000E+00 0.  1.
</event>
<event>
 8    1  0.6849590E-009  0.9928987E+02  0.7561462E-02  0.1281796E+00
         -2   -1    0    0    0  501 -0.00000000000E+00  0.00000000000E+00  0.12632266238E+03  0.12632266238E+03  0.00000000000E+00 0.  1.
          2   -1    0    0  501    0  0.00000000000E+00 -0.00000000000E+00 -0.20640452676E+03  0.20640452676E+03  0.00000000000E+00 0. -1.
         25    2    1    2    0    0  0.22348632447E+02  0.48965410267E+02  0.71071799675E+02  0.15359853602E+03  0.12507692347E+03 0.  0.
         23    2    1    2    0    0 -0.22348632447E+02 -0.48965410267E+02 -0.15115366405E+03  0.17912865312E+03  0.79640262652E+02 0.  0.
          5    1    3    3  502    0  0.30852904843E+01  0.80498322863E+02  0.81811604059E+02  0.11489173147E+03  0.41800000000E+01 0.  1.
         -5    1    3    3    0  502  0.19263341963E+02 -0.31532912596E+02 -0.10739804384E+02  0.38706804551E+02  0.41800000000E+01 0.  1.
        -11    1    4    4    0    0 -0.21455584318E+01 -0.58393043117E+02 -0.54386092703E+02  0.79826048286E+02  0.00000000000E+00 0.  1.
         11    1    4    4    0    0 -0.20203074016E+02  0.94276328500E+01 -0.96767571352E+02  0.99302604831E+02  0.00000000000E+00 0. -1.
</event>
<event>
 8    1  0.6849590E-009  0.8500193E+02  0.7561462E-02  0.1315427E+00
         -2   -1    0    0    0  501 -0.00000000000E+00  0.00000000000E+00  0.74082601931E+03  0.74082601931E+03  0.00000000000E+00 0.  1.
          2   -1    0    0  501    0  0.00000000000E+00 -0.00000000000E+00 -0.24999191815E+02  0.24999191815E+02  0.00000000000E+00 0. -1.
         25    2    1    2    0    0 -0.43872809674E+01 -0.44902341694E+02  0.48074434101E+03  0.49879686709E+03  0.12509086570E+03 0.  0.
         23    2    1    2    0    0  0.43872809674E+01  0.44902341694E+02  0.23508248649E+03  0.26702834404E+03  0.11834226862E+03 0.  0.
          5    1    3    3  502    0 -0.26908193524E+02 -0.22257111030E+02  0.45804251296E+03  0.45939073342E+03  0.41800000000E+01 0.  1.
         -5    1    3    3    0  502  0.22520912557E+02 -0.22645230664E+02  0.22701828048E+02  0.39406133672E+02  0.41800000000E+01 0.  1.
        -11    1    4    4    0    0  0.22186958086E+02  0.69106044640E+02  0.75831903001E+02  0.10496849064E+03  0.00000000000E+00 0. -1.
         11    1    4    4    0    0 -0.17799677118E+02 -0.24203702946E+02  0.15925058349E+03  0.16205985340E+03  0.00000000000E+00 0.  1.
</event>
<event>
 8    1  0.6849590E-009  0.1893849E+03  0.7561462E-02  0.1159017E+00
          1   -1    0    0  501    0  0.00000000000E+00  0.00000000000E+00  0.29723229177E+03  0.29723229177E+03  0.00000000000E+00 0. -1.
         -1   -1    0    0    0  501 -0.00000000000E+00 -0.00000000000E+00 -0.14801095557E+03  0.14801095557E+03  0.00000000000E+00 0.  1.
         25    2    1    2    0    0 -0.13959817231E+03  0.10293905178E+03  0.32885485462E+02  0.21636340074E+03  0.12509023916E+03 0.  0.
         23    2    1    2    0    0  0.13959817231E+03 -0.10293905178E+03  0.11633585074E+03  0.22887984660E+03  0.93636829923E+02 0.  0.
          5    1    3    3  502    0 -0.13727912238E+03  0.10800184609E+03 -0.79856464740E+01  0.17490339948E+03  0.41800000000E+01 0.  1.
         -5    1    3    3    0  502 -0.23190499369E+01 -0.50627943139E+01  0.40871131936E+02  0.41460001262E+02  0.41800000000E+01 0.  1.
        -11    1    4    4    0    0  0.37162473650E+02 -0.85432259220E+02  0.56741322038E+02  0.10908390344E+03  0.00000000000E+00 0.  1.
         11    1    4    4    0    0  0.10243569866E+03 -0.17506792559E+02  0.59594528700E+02  0.11979594316E+03  0.00000000000E+00 0. -1.
</event>
<event>
 8    1  0.6849590E-009  0.9441710E+02  0.7561462E-02  0.1292494E+00
         -2   -1    0    0    0  501 -0.00000000000E+00  0.00000000000E+00  0.25331764657E+03  0.25331764657E+03  0.00000000000E+00 0.  1.
          2   -1    0    0  501    0  0.00000000000E+00 -0.00000000000E+00 -0.18075245585E+03  0.18075245585E+03  0.00000000000E+00 0. -1.
         25    2    1    2    0    0 -0.38092759394E+02 -0.14386745854E+02 -0.14486452838E+03  0.19568107171E+03  0.12508922204E+03 0.  0.
         23    2    1    2    0    0  0.38092759394E+02  0.14386745854E+02  0.21742971909E+03  0.23838903071E+03  0.88857247561E+02 0.  0.
          5    1    3    3  502    0  0.35265167508E+02 -0.21037725583E+02 -0.10813503141E+02  0.42668749539E+02  0.41800000000E+01 0.  1.
         -5    1    3    3    0  502 -0.73357926902E+02  0.66509797292E+01 -0.13405102523E+03  0.15301232217E+03  0.41800000000E+01 0.  1.
        -11    1    4    4    0    0  0.16587500308E+02 -0.24357180516E+02  0.18979991925E+02  0.35052211095E+02  0.00000000000E+00 0. -1.
         11    1    4    4    0    0  0.21505259086E+02  0.38743926370E+02  0.19844972716E+03  0.20333681961E+03  0.00000000000E+00 0.  1.
</event>
<event>
 8    1  0.6849590E-009  0.1272099E+03  0.7561462E-02  0.1231655E+00
          1   -1    0    0  501    0  0.00000000000E+00  0.00000000000E+00  0.27917362245E+03  0.27917362245E+03  0.00000000000E+00 0. -1.
         -1   -1    0    0    0  501 -0.00000000000E+00 -0.00000000000E+00 -0.86243572775E+02  0.86243572775E+02  0.00000000000E+00 0.  1.
         25    2    1    2    0    0  0.10238709080E+03  0.21544418835E+02  0.62396960546E+02  0.17461699176E+03  0.12510169775E+03 0.  0.
         23    2    1    2    0    0 -0.10238709080E+03 -0.21544418835E+02  0.13053308913E+03  0.19080020346E+03  0.91752667195E+02 0.  0.
          5    1    3    3  502    0  0.67159583211E+02  0.64831406109E+02  0.71834220035E+02  0.11786071612E+03  0.41800000000E+01 0. -1.
         -5    1    3    3    0  502  0.35227507594E+02 -0.43286987275E+02 -0.94372594884E+01  0.56756275646E+02  0.41800000000E+01 0. -1.
        -11    1    4    4    0    0 -0.68106991742E+02 -0.18636131907E+02  0.17639057552E+02  0.72780519976E+02  0.00000000000E+00 0.  1.
         11    1    4    4    0    0 -0.34280099063E+02 -0.29082869275E+01  0.11289403158E+03  0.11801968349E+03  0.00000000000E+00 0. -1.
</event>
<event>
 8    1  0.6849590E-009  0.9971310E+02  0.7561462E-02  0.1280900E+00
          2   -1    0    0  501    0  0.00000000000E+00  0.00000000000E+00  0.89451455603E+03  0.89451455603E+03  0.00000000000E+00 0.  1.
         -2   -1    0    0    0  501 -0.00000000000E+00 -0.00000000000E+00 -0.13821797100E+02  0.13821797100E+02  0.00000000000E+00 0. -1.
         25    2    1    2    0    0 -0.42952391503E+01 -0.83574980164E+01  0.61386139458E+03  0.62654732923E+03  0.12508975644E+03 0.  0.
         23    2    1    2    0    0  0.42952391503E+01  0.83574980164E+01  0.26683136436E+03  0.28178902390E+03  0.90098724374E+02 0.  0.
          5    1    3    3  502    0 -0.22009109137E+02 -0.58297306081E+02  0.20663754387E+03  0.21586922828E+03  0.41800000000E+01 0. -1.
         -5    1    3    3    0  502  0.17713869987E+02  0.49939808065E+02  0.40722385070E+03  0.41067810095E+03  0.41800000000E+01 0. -1.
        -11    1    4    4    0    0  0.74527651176E+01  0.45720259288E+02  0.92264510434E+02  0.10324062041E+03  0.00000000000E+00 0.  1.
         11    1    4    4    0    0 -0.31575259672E+01 -0.37362761271E+02  0.17456685392E+03  0.17854840349E+03  0.00000000000E+00 0. -1.
</event>
<event>
 8    1  0.6849590E-009  0.1220138E+03  0.7561462E-02  0.1239811E+00
         -2   -1    0    0    0  501 -0.00000000000E+00  0.00000000000E+00  0.99508508346E+02  0.99508508346E+02  0.00000000000E+00 0. -1.
          2   -1    0    0  501    0  0.00000000000E+00 -0.00000000000E+00 -0.15971649315E+03  0.15971649315E+03  0.00000000000E+00 0.  1.
         25    2    1    2    0    0 -0.33855379818E+02  0.50686299696E+02 -0.15330464925E+02  0.13999414893E+03  0.12509216946E+03 0.  0.
         23    2    1    2    0    0  0.33855379818E+02 -0.50686299696E+02 -0.44877519877E+02  0.11923085256E+03  0.92123377558E+02 0.  0.
          5    1    3    3  502    0  0.46008694395E+02  0.32857949364E+02 -0.31013359370E+00  0.56692269130E+02  0.41800000000E+01 0. -1.
         -5    1    3    3    0  502 -0.79864074213E+02  0.17828350333E+02 -0.15020331332E+02  0.83301879803E+02  0.41800000000E+01 0. -1.
        -11    1    4    4    0    0 -0.24595251891E+02  0.45109087387E+01  0.37336628319E+01  0.25282700634E+02  0.00000000000E+00 0. -1.
         11    1    4    4    0    0  0.58450631708E+02 -0.55197208435E+02 -0.48611182709E+02  0.93948151927E+02  0.00000000000E+00 0.  1.
</event>
<event>
 8    1  0.6849590E-009  0.1240118E+03  0.7561462E-02  0.1236622E+00
         -2   -1    0    0    0  501 -0.00000000000E+00  0.00000000000E+00  0.81865194814E+02  0.81865194814E+02  0.00000000000E+00 0.  1.
          2   -1    0    0  501    0  0.00000000000E+00 -0.00000000000E+00 -0.29079132619E+03  0.29079132619E+03  0.00000000000E+00 0. -1.
         25    2    1    2    0    0 -0.57737487780E+02  0.73574389510E+02 -0.18216823244E+03  0.23995625808E+03  0.12508769962E+03 0.  0.
         23    2    1    2    0    0  0.57737487780E+02 -0.73574389510E+02 -0.26757898940E+02  0.13270026293E+03  0.90258331128E+02 0.  0.
          5    1    3    3  502    0 -0.90214511912E+02  0.23145562042E+02 -0.13224946035E+03  0.16180780996E+03  0.41800000000E+01 0. -1.
         -5    1    3    3    0  502  0.32477024132E+02  0.50428827468E+02 -0.49918772081E+02  0.78148448112E+02  0.41800000000E+01 0. -1.
        -11    1    4    4    0    0  0.46579607246E+02 -0.67354103376E+02  0.19941926539E+02  0.84284728669E+02  0.00000000000E+00 0.  1.
         11    1    4    4    0    0  0.11157880534E+02 -0.62202861337E+01 -0.46699825479E+02  0.48415534257E+02  0.00000000000E+00 0. -1.
</event>
<event>
 8    1  0.6849590E-009  0.1071473E+03  0.7561462E-02  0.1265946E+00
         -2   -1    0    0    0  501 -0.00000000000E+00  0.00000000000E+00  0.26049656940E+02  0.26049656940E+02  0.00000000000E+00 0.  1.
          2   -1    0    0  501    0  0.00000000000E+00 -0.00000000000E+00 -0.59986715976E+03  0.59986715976E+03  0.00000000000E+00 0. -1.
         25    2    1    2    0    0  0.57316582028E+02  0.18778440163E+02 -0.27874234998E+03  0.31142411195E+03  0.12509939825E+03 0.  0.
         23    2    1    2    0    0 -0.57316582028E+02 -0.18778440163E+02 -0.29507515285E+03  0.31449270475E+03  0.90545541718E+02 0.  0.
          5    1    3    3  502    0 -0.13633358460E+02  0.45326671289E+02 -0.44126331203E+02  0.64845825606E+02  0.41800000000E+01 0. -1.
         -5    1    3    3    0  502  0.70949940488E+02 -0.26548231125E+02 -0.23461601877E+03  0.24657828634E+03  0.41800000000E+01 0. -1.
        -11    1    4    4    0    0 -0.64329969479E+02 -0.35000437753E+02 -0.28476625033E+03  0.29403263925E+03  0.00000000000E+00 0. -1.
         11    1    4    4    0    0  0.70133874510E+01  0.16221997590E+02 -0.10308902515E+02  0.20460065503E+02  0.00000000000E+00 0.  1.
</event>
<event>
 8    1  0.6849590E-009  0.1007964E+03  0.7561462E-02  0.1278630E+00
         -3   -1    0    0    0  501 -0.00000000000E+00  0.00000000000E+00  0.10364201492E+03  0.10364201492E+03  0.00000000000E+00 0.  1.
          3   -1    0    0  501    0  0.00000000000E+00 -0.00000000000E+00 -0.15196230478E+03  0.15196230478E+03  0.00000000000E+00 0. -1.
         25    2    1    2    0    0 -0.61732552025E+02  0.20505118175E+02 -0.50002986555E+02  0.14959541791E+03  0.12508845887E+03 0.  0.
         23    2    1    2    0    0  0.61732552025E+02 -0.20505118175E+02  0.16826966921E+01  0.10600890179E+03  0.83688039404E+02 0.  0.
          5    1    3    3  502    0 -0.59189510886E+02  0.48644260165E+02 -0.78132910879E+02  0.10950747193E+03  0.41800000000E+01 0.  1.
         -5    1    3    3    0  502 -0.25430411390E+01 -0.28139141990E+02  0.28129924324E+02  0.40087945977E+02  0.41800000000E+01 0.  1.
        -11    1    4    4    0    0  0.60923801069E+02  0.13407332810E+02  0.22375943162E+02  0.66273289809E+02  0.00000000000E+00 0.  1.
         11    1    4    4    0    0  0.80875095643E+00 -0.33912450985E+02 -0.20693246470E+02  0.39735611980E+02  0.00000000000E+00 0. -1.
</event>
<event>
 8    1  0.6849590E-009  0.1114313E+03  0.7561462E-02  0.1257942E+00
         -1   -1    0    0    0  501 -0.00000000000E+00  0.00000000000E+00  0.41208411024E+02  0.41208411024E+02  0.00000000000E+00 0.  1.
          1   -1    0    0  501    0  0.00000000000E+00 -0.00000000000E+00 -0.45191495019E+03  0.45191495019E+03  0.00000000000E+00 0. -1.
         25    2    1    2    0    0 -0.21392626481E+02 -0.59709419003E+02 -0.12973978484E+03  0.19106444736E+03  0.12510136725E+03 0.  0.
         23    2    1    2    0    0  0.21392626481E+02  0.59709419003E+02 -0.28096675432E+03  0.30205891385E+03  0.90963790703E+02 0.  0.
          5    1    3    3  502    0  0.74768678614E+01  0.23983758271E+02  0.85030033764E+01  0.26849537803E+02  0.41800000000E+01 0. -1.
         -5    1    3    3    0  502 -0.28869494343E+02 -0.83693177273E+02 -0.13824278822E+03  0.16421490956E+03  0.41800000000E+01 0. -1.
        -11    1    4    4    0    0  0.56092479847E+02  0.39545152453E+02 -0.14742876763E+03  0.16262049963E+03  0.00000000000E+00 0.  1.
         11    1    4    4    0    0 -0.34699853365E+02  0.20164266550E+02 -0.13353798670E+03  0.13943841422E+03  0.00000000000E+00 0. -1.
</event>
<event>
 8    1  0.6849590E-009  0.8691210E+02  0.7561462E-02  0.1310507E+00
          1   -1    0    0  501    0  0.00000000000E+00  0.00000000000E+00  0.14767792705E+03  0.14767792705E+03  0.00000000000E+00 0. -1.
         -1   -1    0    0    0  501 -0.00000000000E+00 -0.00000000000E+00 -0.12702638865E+03  0.12702638865E+03  0.00000000000E+00 0.  1.
         25    2    1    2    0    0 -0.97875890355E+01  0.67090557523E+02  0.59927354843E+02  0.15438801952E+03  0.12508969943E+03 0.  0.
         23    2    1    2    0    0  0.97875890355E+01 -0.67090557523E+02 -0.39275816445E+02  0.12031629618E+03  0.91304334848E+02 0.  0.
          5    1    3    3  502    0 -0.18219811240E+02  0.31142550828E+02 -0.36228923684E+02  0.51301338238E+02  0.41800000000E+01 0. -1.
         -5    1    3    3    0  502  0.84322222044E+01  0.35948006696E+02  0.96156278527E+02  0.10308668128E+03  0.41800000000E+01 0. -1.
        -11    1    4    4    0    0 -0.16337008195E+02 -0.71939998072E+02 -0.52588483333E+02  0.90596963186E+02  0.00000000000E+00 0.  1.
         11    1    4    4    0    0  0.26124597231E+02  0.48494405482E+01  0.13312666888E+02  0.29719332997E+02  0.00000000000E+00 0. -1.
</event>
<event>
 8    1  0.6849590E-009  0.1531995E+03  0.7561462E-02  0.1196596E+00
          2   -1    0    0  501    0  0.00000000000E+00  0.00000000000E+00  0.21668561147E+03  0.21668561147E+03  0.00000000000E+00 0. -1.
         -2   -1    0    0    0  501 -0.00000000000E+00 -0.00000000000E+00 -0.11923325186E+03  0.11923325186E+03  0.00000000000E+00 0.  1.
         25    2    1    2    0    0  0.65791432687E+02 -0.99883634217E+02  0.49684566315E+02  0.18005370960E+03  0.12508208989E+03 0.  0.
         23    2    1    2    0    0 -0.65791432687E+02  0.99883634217E+02  0.47767793295E+02  0.15586515373E+03  0.87789128433E+02 0.  0.
          5    1    3    3  502    0  0.50385487930E+02  0.18132951831E+02  0.20036498436E+02  0.57327436761E+02  0.41800000000E+01 0. -1.
         -5    1    3    3    0  502  0.15405944757E+02 -0.11801658605E+03  0.29648067879E+02  0.12272627284E+03  0.41800000000E+01 0. -1.
        -11    1    4    4    0    0  0.17971641657E+01  0.48903413769E+02  0.51605455692E+02  0.71118891544E+02  0.00000000000E+00 0. -1.
         11    1    4    4    0    0 -0.67588596852E+02  0.50980220448E+02 -0.38376623969E+01  0.84746262183E+02  0.00000000000E+00 0.  1.
</event>
<event>
 8    1  0.6849590E-009  0.9888171E+02  0.7561462E-02  0.1282665E+00
          1   -1    0    0  501    0  0.00000000000E+00  0.00000000000E+00  0.17164199707E+03  0.17164199707E+03  0.00000000000E+00 0. -1.
         -1   -1    0    0    0  501 -0.00000000000E+00 -0.00000000000E+00 -0.14012185543E+03  0.14012185543E+03  0.00000000000E+00 0.  1.
         25    2    1    2    0    0 -0.35813148884E+02 -0.98545394010E+01 -0.88686002225E+02  0.15776953632E+03  0.12508527500E+03 0.  0.
         23    2    1    2    0    0  0.35813148884E+02  0.98545394010E+01  0.12020614387E+03  0.15399431618E+03  0.88797741038E+02 0.  0.
          5    1    3    3  502    0 -0.17407019752E+02  0.54651977989E+02 -0.18070250558E+02  0.60281418281E+02  0.41800000000E+01 0. -1.
         -5    1    3    3    0  502 -0.18406129132E+02 -0.64506517390E+02 -0.70615751667E+02  0.97488118040E+02  0.41800000000E+01 0. -1.
        -11    1    4    4    0    0  0.54002232041E+02  0.96196006969E+01  0.12384012246E+03  0.13544428269E+03  0.00000000000E+00 0. -1.
         11    1    4    4    0    0 -0.18189083157E+02  0.23493870412E+00 -0.36339785882E+01  0.18550033495E+02  0.00000000000E+00 0.  1.
</event>
<event>
 8    1  0.6849590E-009  0.1092525E+03  0.7561462E-02  0.1261960E+00
          2   -1    0    0  501    0  0.00000000000E+00  0.00000000000E+00  0.10981276670E+03  0.10981276670E+03  0.00000000000E+00 0. -1.
         -2   -1    0    0    0  501 -0.00000000000E+00 -0.00000000000E+00 -0.19506738598E+03  0.19506738598E+03  0.00000000000E+00 0.  1.
         25    2    1    2    0    0  0.66667339056E+02  0.18378993983E+02  0.27140408690E+02  0.14548903503E+03  0.12509250983E+03 0.  0.
         23    2    1    2    0    0 -0.66667339056E+02 -0.18378993983E+02 -0.11239502797E+03  0.15939111764E+03  0.89389957798E+02 0.  0.
          5    1    3    3  502    0  0.49442808813E+02  0.62882522881E+02 -0.15229380589E+02  0.81536552909E+02  0.41800000000E+01 0. -1.
         -5    1    3    3    0  502  0.17224530243E+02 -0.44503528897E+02  0.42369789280E+02  0.63952482125E+02  0.41800000000E+01 0. -1.
        -11    1    4    4    0    0 -0.38166477700E+02 -0.39575706185E+02 -0.11096983251E+03  0.12384353139E+03  0.00000000000E+00 0.  1.
         11    1    4    4    0    0 -0.28500861355E+02  0.21196712201E+02 -0.14251954555E+01  0.35547586250E+02  0.00000000000E+00 0. -1.
</event>
<event>
 7    1  0.6849590E-009  0.7863204E+02  0.7561462E-02  0.1332979E+00
          2   -1    0    0  501    0  0.00000000000E+00  0.00000000000E+00  0.21913284438E+03  0.21913284438E+03  0.00000000000E+00 0.  1.
         -2   -1    0    0    0  501 -0.00000000000E+00 -0.00000000000E+00 -0.62579259121E+02  0.62579259121E+02  0.00000000000E+00 0. -1.
         23    2    1    2    0    0 -0.52402246096E+02 -0.16334663337E+02  0.65409249241E+02  0.11744669223E+03  0.80638322203E+02 0.  0.
          5    1    1    2  502    0  0.49916237953E+02 -0.28900737593E+01 -0.18021874689E+02  0.53312697409E+02  0.41800000000E+01 0. -1.
         -5    1    1    2    0  502  0.24860081430E+01  0.19224737096E+02  0.10916621070E+03  0.11095271386E+03  0.41800000000E+01 0. -1.
        -11    1    3    3    0    0 -0.36768889932E+02 -0.42859574401E+02  0.65729324992E+02  0.86655862747E+02  0.00000000000E+00 0.  1.
         11    1    3    3    0    0 -0.15633356164E+02  0.26524911063E+02 -0.32007575072E+00  0.30790829485E+02  0.00000000000E+00 0. -1.
</event>
<event>
 8    1  0.6849590E-009  0.1119793E+03  0.7561462E-02  0.1256948E+00
         -2   -1    0    0    0  501 -0.00000000000E+00  0.00000000000E+00  0.11745153693E+03  0.11745153693E+03  0.00000000000E+00 0.  1.
          2   -1    0    0  501    0  0.00000000000E+00 -0.00000000000E+00 -0.16901982434E+03  0.16901982434E+03  0.00000000000E+00 0. -1.
         25    2    1    2    0    0  0.31559312683E+02 -0.83938499105E+02 -0.31279745425E+02  0.15705703777E+03  0.12508728468E+03 0.  0.
         23    2    1    2    0    0 -0.31559312683E+02  0.83938499105E+02 -0.20288541981E+02  0.12941432350E+03  0.91075684691E+02 0.  0.
          5    1    3    3  502    0 -0.40946525807E+00 -0.54083119362E+02  0.44029585265E+02  0.69865787337E+02  0.41800000000E+01 0.  1.
         -5    1    3    3    0  502  0.31968777941E+02 -0.29855379743E+02 -0.75309330689E+02  0.87191250430E+02  0.41800000000E+01 0.  1.
        -11    1    4    4    0    0  0.37024849723E+00  0.92669100661E+02 -0.24990612135E+02  0.95980362554E+02  0.00000000000E+00 0. -1.
         11    1    4    4    0    0 -0.31929561181E+02 -0.87306015556E+01  0.47020701544E+01  0.33433960945E+02  0.00000000000E+00 0.  1.
</event>
<event>
 8    1  0.6849590E-009  0.1529328E+03  0.7561462E-02  0.1196915E+00
         -1   -1    0    0    0  501 -0.00000000000E+00  0.00000000000E+00  0.63794017142E+02  0.63794017142E+02  0.00000000000E+00 0.  1.
          1   -1    0    0  501    0  0.00000000000E+00 -0.00000000000E+00 -0.38604051628E+03  0.38604051628E+03  0.00000000000E+00 0. -1.
         25    2    1    2    0    0 -0.44526608783E+02 -0.10335449389E+03 -0.16391487873E+03  0.23490288253E+03  0.12508599623E+03 0.  0.
         23    2    1    2    0    0  0.44526608783E+02  0.10335449389E+03 -0.15833162040E+03  0.21493165089E+03  0.91988815833E+02 0.  0.
          5    1    3    3  502    0 -0.13200835395E+02 -0.12564469958E+03 -0.14327810442E+03  0.19106789420E+03  0.41800000000E+01 0.  1.
         -5    1    3    3    0  502 -0.31325773388E+02  0.22290205683E+02 -0.20636774307E+02  0.43834988326E+02  0.41800000000E+01 0.  1.
        -11    1    4    4    0    0  0.24024594312E+02  0.11481319746E+03 -0.14906460315E+03  0.18968264906E+03  0.00000000000E+00 0. -1.
         11    1    4    4    0    0  0.20502014471E+02 -0.11458703563E+02 -0.92670172490E+01  0.25249001830E+02  0.00000000000E+00 0.  1.
</event>
<event>
 8    1  0.6849590E-009  0.1492193E+03  0.7561462E-02  0.1201436E+00
         -2   -1    0    0    0  501 -0.00000000000E+00  0.00000000000E+00  0.16418989749E+03  0.16418989749E+03  0.00000000000E+00 0.  1.
          2   -1    0    0  501    0  0.00000000000E+00 -0.00000000000E+00 -0.25644716791E+03  0.25644716791E+03  0.00000000000E+00 0. -1.
         25    2    1    2    0    0 -0.84185759482E+02  0.11520961840E+03  0.54177058856E+02  0.19733933469E+03  0.12508861274E+03 0.  0.
         23    2    1    2    0    0  0.84185759482E+02 -0.11520961840E+03 -0.14643432927E+03  0.22329773072E+03  0.89768399126E+02 0.  0.
          5    1    3    3  502    0 -0.28305790585E+02  0.53286455936E+01 -0.34714676756E+02  0.45301141562E+02  0.41800000000E+01 0. -1.
         -5    1    3    3    0  502 -0.55879968897E+02  0.10988097281E+03  0.88891735612E+02  0.15203819313E+03  0.41800000000E+01 0. -1.
        -11    1    4    4    0    0  0.46806864977E+02 -0.88276372800E+02 -0.40565308867E+02  0.10783851301E+03  0.00000000000E+00 0.  1.
         11    1    4    4    0    0  0.37378894505E+02 -0.26933245602E+02 -0.10586902040E+03  0.11545921771E+03  0.00000000000E+00 0. -1.
</event>
<event>
 8    1  0.6849590E-009  0.1210114E+03  0.7561462E-02  0.1241438E+00
         -1   -1    0    0    0  501 -0.00000000000E+00  0.00000000000E+00  0.17931685643E+03  0.17931685643E+03  0.00000000000E+00 0.  1.
          1   -1    0    0  501    0  0.00000000000E+00 -0.00000000000E+00 -0.14598347418E+03  0.14598347418E+03  0.00000000000E+00 0. -1.
         25    2    1    2    0    0 -0.26837996161E+02 -0.11367767647E+03 -0.73480836999E+01  0.17130180681E+03  0.12508965792E+03 0.  0.
         23    2    1    2    0    0  0.26837996161E+02  0.11367767647E+03  0.40681465957E+02  0.15399852380E+03  0.91747869151E+02 0.  0.
          5    1    3    3  502    0  0.54409016602E-03 -0.25546538741E+02 -0.59831674232E+02  0.65191466339E+02  0.41800000000E+01 0.  1.
         -5    1    3    3    0  502 -0.26838540251E+02 -0.88131137729E+02  0.52483590532E+02  0.10611034047E+03  0.41800000000E+01 0.  1.
        -11    1    4    4    0    0  0.27168555567E+01  0.90243506951E+02  0.66056421856E+02  0.11186922150E+03  0.00000000000E+00 0.  1.
         11    1    4    4    0    0  0.24121140604E+02  0.23434169518E+02 -0.25374955899E+02  0.42129302295E+02  0.00000000000E+00 0. -1.
</event>
<event>
 8    1  0.6849590E-009  0.1169807E+03  0.7561462E-02  0.1248163E+00
         -2   -1    0    0    0  501 -0.00000000000E+00  0.00000000000E+00  0.51772674972E+02  0.51772674972E+02  0.00000000000E+00 0.  1.
          2   -1    0    0  501    0  0.00000000000E+00 -0.00000000000E+00 -0.29631851967E+03  0.29631851967E+03  0.00000000000E+00 0. -1.
         25    2    1    2    0    0  0.55423288621E+02  0.12360750813E+02 -0.11500424495E+03  0.17915796076E+03  0.12508824671E+03 0.  0.
         23    2    1    2    0    0 -0.55423288621E+02 -0.12360750813E+02 -0.12954159975E+03  0.16893323389E+03  0.92373602092E+02 0.  0.
          5    1    3    3  502    0  0.94351432353E+02  0.13281553990E+02 -0.97072864243E+02  0.13608528883E+03  0.41800000000E+01 0. -1.
         -5    1    3    3    0  502 -0.38928143732E+02 -0.92080317660E+00 -0.17931380704E+02  0.43072671926E+02  0.41800000000E+01 0. -1.
        -11    1    4    4    0    0 -0.58753283668E+02 -0.40326931522E+02 -0.57449056919E+02  0.91534714118E+02  0.00000000000E+00 0.  1.
         11    1    4    4    0    0  0.33299950479E+01  0.27966180708E+02 -0.72092542835E+02  0.77398519772E+02  0.00000000000E+00 0. -1.
</event>
<event>
 8    1  0.6849590E-009  0.2023291E+03  0.7561462E-02  0.1147789E+00
          2   -1    0    0  501    0  0.00000000000E+00  0.00000000000E+00  0.45228297400E+03  0.45228297400E+03  0.00000000000E+00 0. -1.
         -2   -1    0    0    0  501 -0.00000000000E+00 -0.00000000000E+00 -0.12883612342E+03  0.12883612342E+03  0.00000000000E+00 0.  1.
         25    2    1    2    0    0 -0.64494407708E+02 -0.17126769143E+03  0.30418219156E+03  0.37638257219E+03  0.12507951164E+03 0.  0.
         23    2    1    2    0    0  0.64494407708E+02  0.17126769143E+03  0.19264659016E+02  0.20473652524E+03  0.89742782033E+02 0.  0.
          5    1    3    3  502    0 -0.81210847384E+02 -0.18327574743E+03  0.27936001117E+03  0.34386725574E+03  0.41800000000E+01 0. -1.
         -5    1    3    3    0  502  0.16716439676E+02  0.12008056003E+02  0.24822180385E+02  0.32515316444E+02  0.41800000000E+01 0. -1.
        -11    1    4    4    0    0  0.28096133206E+02  0.64691131915E+02 -0.36113342171E+02  0.79237041416E+02  0.00000000000E+00 0.  1.
         11    1    4    4    0    0  0.36398274501E+02  0.10657655951E+03  0.55378001187E+02  0.12549948382E+03  0.00000000000E+00 0. -1.
</event>
<event>
 8    1  0.6849590E-009  0.7968418E+02  0.7561462E-02  0.1329950E+00
         -3   -1    0    0    0  501 -0.00000000000E+00  0.00000000000E+00  0.38202548697E+03  0.38202548697E+03  0.00000000000E+00 0.  1.
          3   -1    0    0  501    0  0.00000000000E+00 -0.00000000000E+00 -0.28349952310E+02  0.28349952310E+02  0.00000000000E+00 0. -1.
         25    2    1    2    0    0  0.16692468814E+01 -0.81468280712E+01  0.19763612465E+03  0.23404095381E+03  0.12508386427E+03 0.  0.
         23    2    1    2    0    0 -0.16692468814E+01  0.81468280712E+01  0.15603941001E+03  0.17633448547E+03  0.81709216720E+02 0.  0.
          5    1    3    3  502    0 -0.40730077524E+02 -0.11296608211E+02  0.18452935442E+03  0.18935444968E+03  0.41800000000E+01 0. -1.
         -5    1    3    3    0  502  0.42399324406E+02  0.31497801401E+01  0.13106770227E+02  0.44686504123E+02  0.41800000000E+01 0. -1.
        -11    1    4    4    0    0 -0.13943795829E+02  0.38759613491E+02  0.12273337075E+03  0.12946125821E+03  0.00000000000E+00 0. -1.
         11    1    4    4    0    0  0.12274548948E+02 -0.30612785420E+02  0.33306039252E+02  0.46873227259E+02  0.00000000000E+00 0.  1.
</event>
<event>
 8    1  0.6849590E-009  0.1855315E+03  0.7561462E-02  0.1162555E+00
          2   -1    0    0  501    0  0.00000000000E+00  0.00000000000E+00  0.72403948053E+03  0.72403948053E+03  0.00000000000E+00 0. -1.
         -2   -1    0    0    0  501 -0.00000000000E+00 -0.00000000000E+00 -0.50875620329E+02  0.50875620329E+02  0.00000000000E+00 0.  1.
         25    2    1    2    0    0 -0.94665488538E+02  0.12049254654E+03  0.27634317748E+03  0.33984018963E+03  0.12508314938E+03 0.  0.
         23    2    1    2    0    0  0.94665488538E+02 -0.12049254654E+03  0.39682068272E+03  0.43507491122E+03  0.91342846742E+02 0.  0.
          5    1    3    3  502    0  0.30158091162E+02  0.35297931517E+02  0.64206467799E+02  0.79343539996E+02  0.41800000000E+01 0.  1.
         -5    1    3    3    0  502 -0.12482357970E+03  0.85194615022E+02  0.21213670968E+03  0.26049664964E+03  0.41800000000E+01 0.  1.
        -11    1    4    4    0    0  0.33483016489E+00  0.11237623258E+02  0.78587876615E+01  0.13717027055E+02  0.00000000000E+00 0.  1.
         11    1    4    4    0    0  0.94330658373E+02 -0.13173016980E+03  0.38896189506E+03  0.42135788417E+03  0.00000000000E+00 0. -1.
</event>
<event>
 8    1  0.6849590E-009  0.1039842E+03  0.7561462E-02  0.1272134E+00
          1   -1    0    0  501    0  0.00000000000E+00  0.00000000000E+00  0.37596146632E+04  0.37596146632E+04  0.00000000000E+00 0. -1.
         -1   -1    0    0    0  501 -0.00000000000E+00 -0.00000000000E+00 -0.66967577816E+01  0.66967577816E+01  0.00000000000E+00 0.  1.
         25    2    1    2    0    0 -0.27585185462E+02  0.17484309207E+02  0.33659415260E+04  0.33684234468E+04  0.12509003617E+03 0.  0.
         23    2    1    2    0    0  0.27585185462E+02 -0.17484309207E+02  0.38697637938E+03  0.39788797412E+03  0.86587979673E+02 0.  0.
          5    1    3    3  502    0  0.31318416166E+02 -0.31746273958E+02  0.73825710989E+03  0.73961456300E+03  0.41800000000E+01 0. -1.
         -5    1    3    3    0  502 -0.58903601628E+02  0.49230583166E+02  0.26276844161E+04  0.26288088838E+04  0.41800000000E+01 0. -1.
        -11    1    4    4    0    0  0.42963236399E+02  0.18793911411E+02  0.27970431469E+03  0.28360810010E+03  0.00000000000E+00 0. -1.
         11    1    4    4    0    0 -0.15378050937E+02 -0.36278220619E+02  0.10727206469E+03  0.11427987402E+03  0.00000000000E+00 0.  1.
</event>
<event>
 8    1  0.6849590E-009  0.1311936E+03  0.7561462E-02  0.1225695E+00
          2   -1    0    0  501    0  0.00000000000E+00  0.00000000000E+00  0.18619337885E+03  0.18619337885E+03  0.00000000000E+00 0. -1.
         -2   -1    0    0    0  501 -0.00000000000E+00 -0.00000000000E+00 -0.12961786556E+03  0.12961786556E+03  0.00000000000E+00 0.  1.
         25    2    1    2    0    0 -0.85716809674E+02  0.61891696890E+02 -0.25906293892E+01  0.16381040595E+03  0.12509669913E+03 0.  0.
         23    2    1    2    0    0  0.85716809674E+02 -0.61891696890E+02  0.59166142681E+02  0.15200083845E+03  0.91791442118E+02 0.  0.
          5    1    3    3  502    0 -0.10356953350E+03  0.18611527283E+02 -0.29867912567E+02  0.10946507122E+03  0.41800000000E+01 0. -1.
         -5    1    3    3    0  502  0.17852723823E+02  0.43280169606E+02  0.27277283178E+02  0.54345334727E+02  0.41800000000E+01 0. -1.
        -11    1    4    4    0    0  0.33671935588E+02 -0.43198874451E+02 -0.17474932203E+02  0.57491871213E+02  0.00000000000E+00 0.  1.
         11    1    4    4    0    0  0.52044874086E+02 -0.18692822439E+02  0.76641074884E+02  0.94508967240E+02  0.00000000000E+00 0. -1.
</event>
<event>
 8    1  0.6849590E-009  0.1423989E+03  0.7561462E-02  0.1210137E+00
          2   -1    0    0  501    0  0.00000000000E+00  0.00000000000E+00  0.39254745210E+03  0.39254745210E+03  0.00000000000E+00 0. -1.
         -2   -1    0    0    0  501 -0.00000000000E+00 -0.00000000000E+00 -0.74295575668E+02  0.74295575668E+02  0.00000000000E+00 0.  1.
         25    2    1    2    0    0  0.50514388896E+02  0.11928553911E+03  0.19827714098E+03  0.26784367222E+03  0.12508263184E+03 0.  0.
         23    2    1    2    0    0 -0.50514388896E+02 -0.11928553911E+03  0.11997473545E+03  0.19899935554E+03  0.91793589285E+02 0.  0.
          5    1    3    3  502    0  0.22490899804E+02  0.12106608526E+03  0.81641515831E+02  0.14780273029E+03  0.41800000000E+01 0.  1.
         -5    1    3    3    0  502  0.28023489092E+02 -0.17805461534E+01  0.11663562515E+03  0.12004094193E+03  0.41800000000E+01 0.  1.
        -11    1    4    4    0    0 -0.25353642871E+02 -0.94649613214E+02  0.30151919801E+02  0.10252070404E+03  0.00000000000E+00 0.  1.
         11    1    4    4    0    0 -0.25160746025E+02 -0.24635925896E+02  0.89822815650E+02  0.96478651507E+02  0.00000000000E+00 0. -1.
</event>
<event>
 8    1  0.6849590E-009  0.8582945E+02  0.7561462E-02  0.1313278E+00
          2   -1    0    0  501    0  0.00000000000E+00  0.00000000000E+00  0.36033707622E+02  0.36033707622E+02  0.00000000000E+00 0. -1.
         -2   -1    0    0    0  501 -0.00000000000E+00 -0.00000000000E+00 -0.54589104131E+03  0.54589104131E+03  0.00000000000E+00 0.  1.
         25    2    1    2    0    0  0.39539767915E+02  0.52949101129E+02 -0.34940623208E+03  0.37696155466E+03  0.12509315775E+03 0.  0.
         23    2    1    2    0    0 -0.39539767915E+02 -0.52949101129E+02 -0.16045110161E+03  0.20496319427E+03  0.10907957849E+03 0.  0.
          5    1    3    3  502    0  0.55496861452E+02  0.60268878344E+02 -0.34941410928E+03  0.35891493629E+03  0.41800000000E+01 0.  1.
         -5    1    3    3    0  502 -0.15957093537E+02 -0.73197772145E+01  0.78771957532E-02  0.18046618372E+02  0.41800000000E+01 0.  1.
        -11    1    4    4    0    0  0.15220571170E+01 -0.16805621264E+02  0.14132051903E+02  0.22010462397E+02  0.00000000000E+00 0. -1.
         11    1    4    4    0    0 -0.41061825032E+02 -0.36143479866E+02 -0.17458315351E+03  0.18295273188E+03  0.00000000000E+00 0.  1.
</event>
<event>
 8    1  0.6849590E-009  0.9511435E+02  0.7561462E-02  0.1290919E+00
          2   -1    0    0  501    0  0.00000000000E+00  0.00000000000E+00  0.20310168408E+03  0.20310168408E+03  0.00000000000E+00 0. -1.
         -2   -1    0    0    0  501 -0.00000000000E+00 -0.00000000000E+00 -0.10243301398E+03  0.10243301398E+03  0.00000000000E+00 0.  1.
         25    2    1    2    0    0 -0.38784147352E+02  0.65975999884E+01  0.14677743722E+03  0.19681790123E+03  0.12508369900E+03 0.  0.
         23    2    1    2    0    0  0.38784147352E+02 -0.65975999884E+01 -0.46108767117E+02  0.10871679683E+03  0.90252895221E+02 0.  0.
          5    1    3    3  502    0  0.21769701216E+01  0.55919027733E+02  0.30247917402E+02  0.63750182499E+02  0.41800000000E+01 0. -1.
         -5    1    3    3    0  502 -0.40961117473E+02 -0.49321427745E+02  0.11652951982E+03  0.13306771873E+03  0.41800000000E+01 0. -1.
        -11    1    4    4    0    0  0.47141375442E+02  0.12709455206E+02  0.90731572139E+01  0.49660464275E+02  0.00000000000E+00 0. -1.
         11    1    4    4    0    0 -0.83572280898E+01 -0.19307055195E+02 -0.55181924331E+02  0.59056332552E+02  0.00000000000E+00 0.  1.
</event>
<event>
 8    1  0.6849590E-009  0.9891947E+02  0.7561462E-02  0.1282585E+00
         -2   -1    0    0    0  501 -0.00000000000E+00  0.00000000000E+00  0.11100699436E+04  0.11100699436E+04  0.00000000000E+00 0.  1.
          2   -1    0    0  501    0  0.00000000000E+00 -0.00000000000E+00 -0.16266331566E+02  0.16266331566E+02  0.00000000000E+00 0. -1.
         25    2    1    2    0    0  0.42441506740E+01  0.78281233668E+02  0.57871955387E+03  0.59725179471E+03  0.12508964742E+03 0.  0.
         23    2    1    2    0    0 -0.42441506740E+01 -0.78281233668E+02  0.51508405813E+03  0.52908448043E+03  0.92048009888E+02 0.  0.
          5    1    3    3  502    0 -0.14445315689E+02  0.37533674184E+02  0.52753761275E+03  0.52908491673E+03  0.41800000000E+01 0. -1.
         -5    1    3    3    0  502  0.18689466363E+02  0.40747559484E+02  0.51181941118E+02  0.68166877979E+02  0.41800000000E+01 0. -1.
        -11    1    4    4    0    0  0.37469087033E+02 -0.26523773983E+02  0.12065843723E+03  0.12909648153E+03  0.00000000000E+00 0. -1.
         11    1    4    4    0    0 -0.41713237707E+02 -0.51757459684E+02  0.39442562090E+03  0.39998799889E+03  0.00000000000E+00 0.  1.
</event>
<event>
 8    1  0.6849590E-009  0.1051411E+03  0.7561462E-02  0.1269842E+00
         -2   -1    0    0    0  501 -0.00000000000E+00  0.00000000000E+00  0.21371914024E+02  0.21371914024E+02  0.00000000000E+00 0.  1.
          2   -1    0    0  501    0  0.00000000000E+00 -0.00000000000E+00 -0.91805734796E+03  0.91805734796E+03  0.00000000000E+00 0. -1.
         25    2    1    2    0    0 -0.52462244917E+02  0.29737913349E+01 -0.74914423375E+03  0.76133125787E+03  0.12508825148E+03 0.  0.
         23    2    1    2    0    0  0.52462244917E+02 -0.29737913349E+01 -0.14754120019E+03  0.17809800412E+03  0.84790109938E+02 0.  0.
          5    1    3    3  502    0 -0.74739282678E+02 -0.36094008172E+02 -0.35448589397E+03  0.36409677179E+03  0.41800000000E+01 0.  1.
         -5    1    3    3    0  502  0.22277037761E+02  0.39067799507E+02 -0.39465833978E+03  0.39723448608E+03  0.41800000000E+01 0.  1.
        -11    1    4    4    0    0 -0.44780063927E+01  0.20086259577E+02 -0.26852955652E+01  0.20753823197E+02  0.00000000000E+00 0.  1.
         11    1    4    4    0    0  0.56940251310E+02 -0.23060050912E+02 -0.14485590462E+03  0.15734418092E+03  0.00000000000E+00 0. -1.
</event>
<event>
 8    1  0.6849590E-009  0.9383415E+02  0.7561462E-02  0.1293824E+00
          1   -1    0    0  501    0  0.00000000000E+00  0.00000000000E+00  0.23029179869E+03  0.23029179869E+03  0.00000000000E+00 0. -1.
         -1   -1    0    0    0  501 -0.00000000000E+00 -0.00000000000E+00 -0.83463695667E+02  0.83463695667E+02  0.00000000000E+00 0.  1.
         25    2    1    2    0    0 -0.63912877915E+00  0.84328678983E+02  0.58430721083E+02  0.16178154017E+03  0.12508949991E+03 0.  0.
         23    2    1    2    0    0  0.63912877915E+00 -0.84328678983E+02  0.88397381942E+02  0.15197395419E+03  0.90389440936E+02 0.  0.
          5    1    3    3  502    0  0.24821559941E+02  0.65636664032E+02  0.91813321360E+02  0.11563494231E+03  0.41800000000E+01 0. -1.
         -5    1    3    3    0  502 -0.25460688720E+02  0.18692014951E+02 -0.33382600277E+02  0.46146597863E+02  0.41800000000E+01 0. -1.
        -11    1    4    4    0    0  0.61884892286E+01 -0.67645082629E+02  0.65310227054E+01  0.68240815209E+02  0.00000000000E+00 0.  1.
         11    1    4    4    0    0 -0.55493604495E+01 -0.16683596354E+02  0.81866359236E+02  0.83733138979E+02  0.00000000000E+00 0. -1.
</event>
<event>
 8    1  0.6849590E-009  0.1390511E+03  0.7561462E-02  0.1214611E+00
         -4   -1    0    0    0  501 -0.00000000000E+00  0.00000000000E+00  0.20488756149E+03  0.20488756149E+03  0.00000000000E+00 0. -1.
          4   -1    0    0  501    0  0.00000000000E+00 -0.00000000000E+00 -0.11897794658E+03  0.11897794658E+03  0.00000000000E+00 0.  1.
         25    2    1    2    0    0 -0.80774285298E+02 -0.67124485784E+02  0.85810731242E+02  0.18451630500E+03  0.12511036511E+03 0.  0.
         23    2    1    2    0    0  0.80774285298E+02  0.67124485784E+02  0.98883663178E-01  0.13934920307E+03  0.91586073514E+02 0.  0.
          5    1    3    3  502    0  0.29819343771E+02 -0.21262723297E+02 -0.49817560746E+00  0.36864851063E+02  0.41800000000E+01 0. -1.
         -5    1    3    3    0  502 -0.11059362907E+03 -0.45861762487E+02  0.86308906850E+02  0.14765145394E+03  0.41800000000E+01 0. -1.
        -11    1    4    4    0    0  0.38447229807E+02 -0.40217754580E+01 -0.32374446029E+02  0.50422900683E+02  0.00000000000E+00 0.  1.
         11    1    4    4    0    0  0.42327055491E+02  0.71146261242E+02  0.32473329692E+02  0.88926302389E+02  0.00000000000E+00 0. -1.
</event>
<event>
 8    1  0.6849590E-009  0.1380874E+03  0.7561462E-02  0.1215926E+00
          2   -1    0    0  501    0  0.00000000000E+00  0.00000000000E+00  0.80748453742E+03  0.80748453742E+03  0.00000000000E+00 0. -1.
         -2   -1    0    0    0  501 -0.00000000000E+00 -0.00000000000E+00 -0.29860720346E+02  0.29860720346E+02  0.00000000000E+00 0.  1.
         25    2    1    2    0    0 -0.96656277334E+02 -0.39832591091E+02  0.52102888279E+03  0.54593707256E+03  0.12508844565E+03 0.  0.
         23    2    1    2    0    0  0.96656277334E+02  0.39832591091E+02  0.25659493428E+03  0.29140818520E+03  0.90270143696E+02 0.  0.
          5    1    3    3  502    0 -0.10856165451E+03  0.11979047042E+02  0.33189698664E+03  0.34943127012E+03  0.41800000000E+01 0. -1.
         -5    1    3    3    0  502  0.11905377175E+02 -0.51811638133E+02  0.18913189615E+03  0.19650580244E+03  0.41800000000E+01 0. -1.
        -11    1    4    4    0    0  0.45140953974E+02  0.42451637313E+02  0.21895112613E+03  0.22755096763E+03  0.00000000000E+00 0. -1.
         11    1    4    4    0    0  0.51515323360E+02 -0.26190462221E+01  0.37643808155E+02  0.63857217574E+02  0.00000000000E+00 0.  1.
</event>
<event>
 8    1  0.6849590E-009  0.1313917E+03  0.7561462E-02  0.1225405E+00
         -2   -1    0    0    0  501 -0.00000000000E+00  0.00000000000E+00  0.23330381749E+02  0.23330381749E+02  0.00000000000E+00 0.  1.
          2   -1    0    0  501    0  0.00000000000E+00 -0.00000000000E+00 -0.12460592087E+04  0.12460592087E+04  0.00000000000E+00 0. -1.
         25    2    1    2    0    0  0.41785925568E+02  0.62785663056E+02 -0.10437739281E+04  0.10539446572E+04  0.12508886614E+03 0.  0.
         23    2    1    2    0    0 -0.41785925568E+02 -0.62785663056E+02 -0.17895489885E+03  0.21544493323E+03  0.93292874175E+02 0.  0.
          5    1    3    3  502    0 -0.67237258899E+01  0.87832592584E+02 -0.53327563630E+03  0.54051840809E+03  0.41800000000E+01 0. -1.
         -5    1    3    3    0  502  0.48509651458E+02 -0.25046929528E+02 -0.51049829180E+03  0.51342624913E+03  0.41800000000E+01 0. -1.
        -11    1    4    4    0    0  0.27564474204E+02 -0.20262070242E+01 -0.37236748538E+02  0.46373281043E+02  0.00000000000E+00 0.  1.
         11    1    4    4    0    0 -0.69350399772E+02 -0.60759456032E+02 -0.14171815031E+03  0.16907165219E+03  0.00000000000E+00 0. -1.
</event>
<event>
 8    1  0.6849590E-009  0.2221286E+03  0.7561462E-02  0.1132306E+00
         -3   -1    0    0    0  501 -0.00000000000E+00  0.00000000000E+00  0.92964304456E+03  0.92964304456E+03  0.00000000000E+00 0.  1.
          3   -1    0    0  501    0  0.00000000000E+00 -0.00000000000E+00 -0.76668286925E+02  0.76668286925E+02  0.00000000000E+00 0. -1.
         25    2    1    2    0    0  0.15739044067E+03  0.12703417707E+03  0.69537616245E+03  0.73491893442E+03  0.12509356459E+03 0.  0.
         23    2    1    2    0    0 -0.15739044067E+03 -0.12703417707E+03  0.15759859518E+03  0.27139239707E+03  0.88921780365E+02 0.  0.
          5    1    3    3  502    0  0.15480720439E+03  0.60813562999E+02  0.42247253827E+03  0.45405294622E+03  0.41800000000E+01 0. -1.
         -5    1    3    3    0  502  0.25832362836E+01  0.66220614075E+02  0.27290362418E+03  0.28086598821E+03  0.41800000000E+01 0. -1.
        -11    1    4    4    0    0 -0.13917398873E+03 -0.13280374456E+03  0.11356211753E+03  0.22338887225E+03  0.00000000000E+00 0. -1.
         11    1    4    4    0    0 -0.18216451940E+02  0.57695674905E+01  0.44036477654E+02  0.48003524813E+02  0.00000000000E+00 0.  1.
</event>
<event>
 8    1  0.6849590E-009  0.1184586E+03  0.7561462E-02  0.1245662E+00
         -2   -1    0    0    0  501 -0.00000000000E+00  0.00000000000E+00  0.11272991021E+03  0.11272991021E+03  0.00000000000E+00 0.  1.
          2   -1    0    0  501    0  0.00000000000E+00 -0.00000000000E+00 -0.22606262743E+03  0.22606262743E+03  0.00000000000E+00 0. -1.
         25    2    1    2    0    0  0.86503509935E+02  0.41529398826E+02  0.91926046156E+01  0.15792023138E+03  0.12508695896E+03 0.  0.
         23    2    1    2    0    0 -0.86503509935E+02 -0.41529398826E+02 -0.12252532183E+03  0.18087230626E+03  0.92167176824E+02 0.  0.
          5    1    3    3  502    0  0.84449059878E+02 -0.11461811190E+02 -0.31490186115E+02  0.90951201486E+02  0.41800000000E+01 0.  1.
         -5    1    3    3    0  502  0.20544500571E+01  0.52991210016E+02  0.40682790731E+02  0.66969029899E+02  0.41800000000E+01 0.  1.
        -11    1    4    4    0    0 -0.64560417054E+02 -0.40936151650E+02 -0.13535252769E+03  0.15544813513E+03  0.00000000000E+00 0. -1.
         11    1    4    4    0    0 -0.21943092881E+02 -0.59324717566E+00  0.12827205863E+02  0.25424171130E+02  0.00000000000E+00 0.  1.
</event>
<event>
 8    1  0.6849590E-009  0.9983259E+02  0.7561462E-02  0.1280648E+00
          1   -1    0    0  501    0  0.00000000000E+00  0.00000000000E+00  0.55397989867E+03  0.55397989867E+03  0.00000000000E+00 0. -1.
         -1   -1    0    0    0  501 -0.00000000000E+00 -0.00000000000E+00 -0.28027770651E+02  0.28027770651E+02  0.00000000000E+00 0.  1.
         25    2    1    2    0    0  0.25645819769E+02  0.39907181893E+02  0.20004335107E+03  0.24065430244E+03  0.12508740838E+03 0.  0.
         23    2    1    2    0    0 -0.25645819769E+02 -0.39907181893E+02  0.32590877695E+03  0.34135336688E+03  0.89751317274E+02 0.  0.
          5    1    3    3  502    0 -0.30835762392E+02  0.30636131127E+02  0.17070179757E+03  0.17619873117E+03  0.41800000000E+01 0.  1.
         -5    1    3    3    0  502  0.56481582160E+02  0.92710507658E+01  0.29341553503E+02  0.64455571269E+02  0.41800000000E+01 0.  1.
        -11    1    4    4    0    0 -0.11195831634E+02  0.27487972971E+02  0.64349460371E+02  0.70864577569E+02  0.00000000000E+00 0.  1.
         11    1    4    4    0    0 -0.14449988134E+02 -0.67395154864E+02  0.26155931658E+03  0.27048878931E+03  0.00000000000E+00 0. -1.
</event>
<event>
 8    1  0.6849590E-009  0.6946491E+02  0.7561462E-02  0.1361922E+00
          1   -1    0    0  501    0  0.00000000000E+00  0.00000000000E+00  0.35215082079E+03  0.35215082079E+03  0.00000000000E+00 0. -1.
         -1   -1    0    0    0  501 -0.00000000000E+00 -0.00000000000E+00 -0.39281951621E+02  0.39281951621E+02  0.00000000000E+00 0.  1.
         25    2    1    2    0    0  0.19125832572E+02 -0.33032328318E+02  0.13150543976E+03  0.18546705050E+03  0.12508962366E+03 0.  0.
         23    2    1    2    0    0 -0.19125832572E+02  0.33032328318E+02  0.18136342941E+03  0.20596572191E+03  0.89845717152E+02 0.  0.
          5    1    3    3  502    0  0.32237148757E+02 -0.91957198698E+01  0.14904765229E+03  0.15282823717E+03  0.41800000000E+01 0.  1.
         -5    1    3    3    0  502 -0.13111316186E+02 -0.23836608448E+02 -0.17542212535E+02  0.32638813322E+02  0.41800000000E+01 0.  1.
        -11    1    4    4    0    0  0.37904726787E+01  0.49347273223E+02  0.45528552372E+02  0.67248569790E+02  0.00000000000E+00 0.  1.
         11    1    4    4    0    0 -0.22916305250E+02 -0.16314944905E+02  0.13583487703E+03  0.13871715212E+03  0.00000000000E+00 0. -1.
</event>
<event>
 8    1  0.6849590E-009  0.1226535E+03  0.7561462E-02  0.1238783E+00
         -2   -1    0    0    0  501 -0.00000000000E+00  0.00000000000E+00  0.92177753053E+02  0.92177753053E+02  0.00000000000E+00 0.  1.
          2   -1    0    0  501    0  0.00000000000E+00 -0.00000000000E+00 -0.23199100844E+03  0.23199100844E+03  0.00000000000E+00 0. -1.
         25    2    1    2    0    0 -0.71789966754E+02  0.31508189658E+02 -0.13495610217E+03  0.20001799836E+03  0.12508990692E+03 0.  0.
         23    2    1    2    0    0  0.71789966754E+02 -0.31508189658E+02 -0.48571532184E+01  0.12415076313E+03  0.96141846802E+02 0.  0.
          5    1    3    3  502    0 -0.97878751281E+02 -0.16093279572E+01 -0.12037975880E+03  0.15521468557E+03  0.41800000000E+01 0.  1.
         -5    1    3    3    0  502  0.26088784527E+02  0.33117517616E+02 -0.14576343373E+02  0.44803312793E+02  0.41800000000E+01 0.  1.
        -11    1    4    4    0    0  0.85942472299E+02 -0.27849821836E+02  0.22527790352E+02  0.93108659422E+02  0.00000000000E+00 0.  1.
         11    1    4    4    0    0 -0.14152505545E+02 -0.36583678224E+01 -0.27384943571E+02  0.31042103709E+02  0.00000000000E+00 0. -1.
</event>
<event>
 8    1  0.6849590E-009  0.1336130E+03  0.7561462E-02  0.1222191E+00
         -2   -1    0    0    0  501 -0.00000000000E+00  0.00000000000E+00  0.27265872479E+02  0.27265872479E+02  0.00000000000E+00 0.  1.
          2   -1    0    0  501    0  0.00000000000E+00 -0.00000000000E+00 -0.71452300077E+03  0.71452300077E+03  0.00000000000E+00 0. -1.
         25    2    1    2    0    0  0.74381002434E+02 -0.44328721397E+02 -0.35271775633E+03  0.38412948471E+03  0.12509227127E+03 0.  0.
         23    2    1    2    0    0 -0.74381002434E+02  0.44328721397E+02 -0.33453937197E+03  0.35765938854E+03  0.92228399919E+02 0.  0.
          5    1    3    3  502    0 -0.93443155123E+00 -0.63031958327E+02 -0.88617691666E+02  0.10883229580E+03  0.41800000000E+01 0. -1.
         -5    1    3    3    0  502  0.75315433986E+02  0.18703236931E+02 -0.26410006466E+03  0.27529718891E+03  0.41800000000E+01 0. -1.
        -11    1    4    4    0    0 -0.10687854122E+02 -0.27992312655E+02 -0.71641682232E+02  0.77655202186E+02  0.00000000000E+00 0.  1.
         11    1    4    4    0    0 -0.63693148312E+02  0.72321034052E+02 -0.26289768973E+03  0.28000418635E+03  0.00000000000E+00 0. -1.
</event>
<event>
 8    1  0.6849590E-009  0.6921619E+02  0.7561462E-02  0.1362779E+00
          2   -1    0    0  501    0  0.00000000000E+00  0.00000000000E+00  0.24313438855E+03  0.24313438855E+03  0.00000000000E+00 0. -1.
         -2   -1    0    0    0  501 -0.00000000000E+00 -0.00000000000E+00 -0.62791052948E+02  0.62791052948E+02  0.00000000000E+00 0.  1.
         25    2    1    2    0    0 -0.50149442115E+02 -0.31712861403E+02  0.98721671583E+02  0.17002303734E+03  0.12506475388E+03 0.  0.
         23    2    1    2    0    0  0.50149442115E+02  0.31712861403E+02  0.81621664023E+02  0.13590240416E+03  0.91031287463E+02 0.  0.
          5    1    3    3  502    0 -0.55798904184E+02 -0.25419213648E+02  0.12652561493E+03  0.14066221157E+03  0.41800000000E+01 0. -1.
         -5    1    3    3    0  502  0.56494620687E+01 -0.62936477545E+01 -0.27803943350E+02  0.29360825764E+02  0.41800000000E+01 0. -1.
        -11    1    4    4    0    0 -0.70939424009E+00  0.13499911958E+02 -0.18038808258E+02  0.22542170846E+02  0.00000000000E+00 0.  1.
         11    1    4    4    0    0  0.50858836355E+02  0.18212949445E+02  0.99660472281E+02  0.11336023332E+03  0.00000000000E+00 0. -1.
</event>
<event>
 8    1  0.6849590E-009  0.1359987E+03  0.7561462E-02  0.1218817E+00
         -2   -1    0    0    0  501 -0.00000000000E+00  0.00000000000E+00  0.27807269757E+02  0.27807269757E+02  0.00000000000E+00 0.  1.
          2   -1    0    0  501    0  0.00000000000E+00 -0.00000000000E+00 -0.67526029546E+03  0.67526029546E+03  0.00000000000E+00 0. -1.
         25    2    1    2    0    0 -0.60564808661E+02  0.54812912115E+02 -0.31557871577E+03  0.34915578439E+03  0.12508910642E+03 0.  0.
         23    2    1    2    0    0  0.60564808661E+02 -0.54812912115E+02 -0.33187430994E+03  0.35391178083E+03  0.91871865280E+02 0.  0.
          5    1    3    3  502    0 -0.34784095636E+02 -0.38738482293E+02 -0.11416596153E+03  0.12554657499E+03  0.41800000000E+01 0. -1.
         -5    1    3    3    0  502 -0.25780713025E+02  0.93551394408E+02 -0.20141275424E+03  0.22360920940E+03  0.41800000000E+01 0. -1.
        -11    1    4    4    0    0 -0.12442740084E+02 -0.47686685934E+02 -0.12146718358E+03  0.13108439451E+03  0.00000000000E+00 0. -1.
         11    1    4    4    0    0  0.73007548744E+02 -0.71262261808E+01 -0.21040712636E+03  0.22282738633E+03  0.00000000000E+00 0.  1.
</event>
<event>
 8    1  0.6849590E-009  0.9791639E+02  0.7561462E-02  0.1284740E+00
          2   -1    0    0  501    0  0.00000000000E+00  0.00000000000E+00  0.40998133073E+03  0.40998133073E+03  0.00000000000E+00 0.  1.
         -2   -1    0    0    0  501 -0.00000000000E+00 -0.00000000000E+00 -0.37017117062E+02  0.37017117062E+02  0.00000000000E+00 0. -1.
         25    2    1    2    0    0 -0.27567086940E+02  0.37613316142E+02  0.27369538391E+03  0.30452298382E+03  0.12510147347E+03 0.  0.
         23    2    1    2    0    0  0.27567086940E+02 -0.37613316142E+02  0.99268829757E+02  0.14247546398E+03  0.90940922803E+02 0.  0.
          5    1    3    3  502    0  0.45182730347E+02  0.35996407044E+02  0.91524208041E+02  0.10831146522E+03  0.41800000000E+01 0. -1.
         -5    1    3    3    0  502 -0.72749817286E+02  0.16169090973E+01  0.18217117587E+03  0.19621151859E+03  0.41800000000E+01 0. -1.
        -11    1    4    4    0    0  0.38611320549E+02 -0.37723539798E+02  0.11277493592E+03  0.12502833960E+03  0.00000000000E+00 0.  1.
         11    1    4    4    0    0 -0.11044233609E+02  0.11022365668E+00 -0.13506106168E+02  0.17447124379E+02  0.00000000000E+00 0. -1.
</event>
<event>
 8    1  0.6849590E-009  0.1311168E+03  0.7561462E-02  0.1225808E+00
          1   -1    0    0  501    0  0.00000000000E+00  0.00000000000E+00  0.20304048377E+02  0.20304048377E+02  0.00000000000E+00 0. -1.
         -1   -1    0    0    0  501 -0.00000000000E+00 -0.00000000000E+00 -0.11828560556E+04  0.11828560556E+04  0.00000000000E+00 0.  1.
         25    2    1    2    0    0 -0.10143196343E+03  0.37279442957E+02 -0.54402478991E+03  0.56858456038E+03  0.12508888920E+03 0.  0.
         23    2    1    2    0    0  0.10143196343E+03 -0.37279442957E+02 -0.61852721736E+03  0.63457554364E+03  0.91825932588E+02 0.  0.
          5    1    3    3  502    0 -0.17973972345E+02  0.39689858259E+02 -0.45636485394E+02  0.63233770484E+02  0.41800000000E+01 0.  1.
         -5    1    3    3    0  502 -0.83457991081E+02 -0.24104153019E+01 -0.49838830451E+03  0.50535078990E+03  0.41800000000E+01 0.  1.
        -11    1    4    4    0    0  0.10377341457E+03 -0.64775285467E+01 -0.54488802729E+03  0.55471960685E+03  0.00000000000E+00 0.  1.
         11    1    4    4    0    0 -0.23414511477E+01 -0.30801914411E+02 -0.73639190078E+02  0.79855936787E+02  0.00000000000E+00 0. -1.
</event>
<event>
 8    1  0.6849590E-009  0.1257016E+03  0.7561462E-02  0.1233977E+00
         -1   -1    0    0    0  501 -0.00000000000E+00  0.00000000000E+00  0.22041769286E+03  0.22041769286E+03  0.00000000000E+00 0.  1.
          1   -1    0    0  501    0  0.00000000000E+00 -0.00000000000E+00 -0.11632055272E+03  0.11632055272E+03  0.00000000000E+00 0. -1.
         25    2    1    2    0    0 -0.89785201003E+02 -0.45075113476E+02  0.12050144821E+03  0.20065279775E+03  0.12509115896E+03 0.  0.
         23    2    1    2    0    0  0.89785201003E+02  0.45075113476E+02 -0.16404308068E+02  0.13608544783E+03  0.90316109378E+02 0.  0.
          5    1    3    3  502    0  0.17588374173E+02  0.18149295632E+02 -0.22184118262E+01  0.25712673705E+02  0.41800000000E+01 0. -1.
         -5    1    3    3    0  502 -0.10737357518E+03 -0.63224409108E+02  0.12271986004E+03  0.17494012405E+03  0.41800000000E+01 0. -1.
        -11    1    4    4    0    0  0.20563797901E+02  0.15894860084E+02  0.36065459612E+02  0.44454850559E+02  0.00000000000E+00 0.  1.
         11    1    4    4    0    0  0.69221403102E+02  0.29180253392E+02 -0.52469767680E+02  0.91630597269E+02  0.00000000000E+00 0. -1.
</event>
<event>
 8    1  0.6849590E-009  0.1096635E+03  0.7561462E-02  0.1261194E+00
         -2   -1    0    0    0  501 -0.00000000000E+00  0.00000000000E+00  0.13110230535E+03  0.13110230535E+03  0.00000000000E+00 0.  1.
          2   -1    0    0  501    0  0.00000000000E+00 -0.00000000000E+00 -0.12477160916E+03  0.12477160916E+03  0.00000000000E+00 0. -1.
         25    2    1    2    0    0 -0.55950541025E+02  0.21501187070E+02  0.32463077716E+02  0.14246362532E+03  0.12509703849E+03 0.  0.
         23    2    1    2    0    0  0.55950541025E+02 -0.21501187070E+02 -0.26132381526E+02  0.11341028919E+03  0.92661902874E+02 0.  0.
          5    1    3    3  502    0 -0.81163522838E+02  0.22979857763E+02 -0.17566309022E+02  0.86264934445E+02  0.41800000000E+01 0.  1.
         -5    1    3    3    0  502  0.25212981813E+02 -0.14786706922E+01  0.50029386738E+02  0.56198690877E+02  0.41800000000E+01 0.  1.
        -11    1    4    4    0    0  0.73890813947E+02  0.84336798409E+01 -0.10273334321E+02  0.75076765643E+02  0.00000000000E+00 0.  1.
         11    1    4    4    0    0 -0.17940272922E+02 -0.29934866911E+02 -0.15859047205E+02  0.38333523550E+02  0.00000000000E+00 0. -1.
</event>
<event>
 8    1  0.6849590E-009  0.1091990E+03  0.7561462E-02  0.1262060E+00
         -1   -1    0    0    0  501 -0.00000000000E+00  0.00000000000E+00  0.23155620586E+02  0.23155620586E+02  0.00000000000E+00 0.  1.
          1   -1    0    0  501    0  0.00000000000E+00 -0.00000000000E+00 -0.59217143132E+03  0.59217143132E+03  0.00000000000E+00 0. -1.
         25    2    1    2    0    0 -0.12262170051E+02  0.37575403968E+02 -0.37044201298E+03  0.39298547332E+03  0.12509206794E+03 0.  0.
         23    2    1    2    0    0  0.12262170051E+02 -0.37575403968E+02 -0.19857379776E+03  0.22234157859E+03  0.91880099130E+02 0.  0.
          5    1    3    3  502    0  0.27872996989E+02  0.64168664128E+02 -0.12954240647E+03  0.14728621420E+03  0.41800000000E+01 0. -1.
         -5    1    3    3    0  502 -0.40135167040E+02 -0.26593260160E+02 -0.24089960650E+03  0.24569925912E+03  0.41800000000E+01 0. -1.
        -11    1    4    4    0    0  0.27058087442E+02  0.24298460815E+02 -0.69382899327E+02  0.78336083723E+02  0.00000000000E+00 0. -1.
         11    1    4    4    0    0 -0.14795917391E+02 -0.61873864782E+02 -0.12919089843E+03  0.14400549487E+03  0.00000000000E+00 0.  1.
</event>
<event>
 8    1  0.6849590E-009  0.1037426E+03  0.7561462E-02  0.1272617E+00
         -2   -1    0    0    0  501 -0.00000000000E+00  0.00000000000E+00  0.56666010199E+02  0.56666010199E+02  0.00000000000E+00 0.  1.
          2   -1    0    0  501    0  0.00000000000E+00 -0.00000000000E+00 -0.32814691533E+03  0.32814691533E+03  0.00000000000E+00 0. -1.
         25    2    1    2    0    0 -0.40325426645E+02  0.58694510934E+02 -0.20650953989E+03  0.25172354863E+03  0.12508944488E+03 0.  0.
         23    2    1    2    0    0  0.40325426645E+02 -0.58694510934E+02 -0.64971365242E+02  0.13308937690E+03  0.91762292337E+02 0.  0.
          5    1    3    3  502    0 -0.77308229513E+02  0.18415659685E+02 -0.75492955306E+02  0.10969210351E+03  0.41800000000E+01 0.  1.
         -5    1    3    3    0  502  0.36982802868E+02  0.40278851249E+02 -0.13101658459E+03  0.14203144512E+03  0.41800000000E+01 0.  1.
        -11    1    4    4    0    0  0.63585733948E+01 -0.22690413701E+02  0.22501932637E+02  0.32582561316E+02  0.00000000000E+00 0.  1.
         11    1    4    4    0    0  0.33966853251E+02 -0.36004097233E+02 -0.87473297879E+02  0.10050681559E+03  0.00000000000E+00 0. -1.
</event>
<event>
 8    1  0.6849590E-009  0.1233467E+03  0.7561462E-02  0.1237676E+00
          1   -1    0    0  501    0  0.00000000000E+00  0.00000000000E+00  0.20474773735E+03  0.20474773735E+03  0.00000000000E+00 0. -1.
         -1   -1    0    0    0  501 -0.00000000000E+00 -0.00000000000E+00 -0.10770586508E+03  0.10770586508E+03  0.00000000000E+00 0.  1.
         25    2    1    2    0    0  0.13084915555E+02  0.89884745928E+02  0.77181663531E+01  0.15478112288E+03  0.12508854201E+03 0.  0.
         23    2    1    2    0    0 -0.13084915555E+02 -0.89884745928E+02  0.89323705914E+02  0.15767247955E+03  0.92905348619E+02 0.  0.
          5    1    3    3  502    0  0.42599620116E+02  0.76671872916E+02  0.50262842510E+02  0.10117870066E+03  0.41800000000E+01 0.  1.
         -5    1    3    3    0  502 -0.29514704561E+02  0.13212873012E+02 -0.42544676157E+02  0.53602422220E+02  0.41800000000E+01 0.  1.
        -11    1    4    4    0    0 -0.49986247280E+02 -0.63972171738E+02  0.74554873378E+02  0.11022473778E+03  0.00000000000E+00 0. -1.
         11    1    4    4    0    0  0.36901331725E+02 -0.25912574190E+02  0.14768832536E+02  0.47447741767E+02  0.00000000000E+00 0.  1.
</event>
<event>
 8    1  0.6849590E-009  0.1733642E+03  0.7561462E-02  0.1174384E+00
         -2   -1    0    0    0  501 -0.00000000000E+00  0.00000000000E+00  0.83704274207E+03  0.83704274207E+03  0.00000000000E+00 0.  1.
          2   -1    0    0  501    0  0.00000000000E+00 -0.00000000000E+00 -0.41588538747E+02  0.41588538747E+02  0.00000000000E+00 0. -1.
         25    2    1    2    0    0 -0.78425910417E+02  0.11190228365E+03  0.56541660194E+03  0.59499245509E+03  0.12508934151E+03 0.  0.
         23    2    1    2    0    0  0.78425910417E+02 -0.11190228365E+03  0.23003760139E+03  0.28363882572E+03  0.94132570850E+02 0.  0.
          5    1    3    3  502    0 -0.53268676332E+02 -0.13752253308E+02  0.13365263184E+03  0.14459313520E+03  0.41800000000E+01 0. -1.
         -5    1    3    3    0  502 -0.25157234085E+02  0.12565453696E+03  0.43176397009E+03  0.45039931989E+03  0.41800000000E+01 0. -1.
        -11    1    4    4    0    0  0.78120439388E+02 -0.33607365754E+02  0.14458312123E+03  0.16773949156E+03  0.00000000000E+00 0.  1.
         11    1    4    4    0    0  0.30547102885E+00 -0.78294917901E+02  0.85454480155E+02  0.11589933417E+03  0.00000000000E+00 0. -1.
</event>
<event>
 8    1  0.6849590E-009  0.1273307E+03  0.7561462E-02  0.1231471E+00
         -2   -1    0    0    0  501 -0.00000000000E+00  0.00000000000E+00  0.13724591067E+03  0.13724591067E+03  0.00000000000E+00 0.  1.
          2   -1    0    0  501    0  0.00000000000E+00 -0.00000000000E+00 -0.15315026955E+03  0.15315026955E+03  0.00000000000E+00 0. -1.
         25    2    1    2    0    0  0.34720573669E+01  0.94261966233E+02  0.80514140272E+01  0.15686896911E+03  0.12508267162E+03 0.  0.
         23    2    1    2    0    0 -0.34720573669E+01 -0.94261966233E+02 -0.23955772900E+02  0.13352721111E+03  0.91423539594E+02 0.  0.
          5    1    3    3  502    0 -0.48575867036E+02  0.40173270048E+01 -0.12744203937E+02  0.50553347155E+02  0.41800000000E+01 0. -1.
         -5    1    3    3    0  502  0.52047924403E+02  0.90244639228E+02  0.20795617965E+02  0.10631562195E+03  0.41800000000E+01 0. -1.
        -11    1    4    4    0    0 -0.20066167204E+02 -0.40238683646E+02  0.31065700644E+02  0.54652360282E+02  0.00000000000E+00 0.  1.
         11    1    4    4    0    0  0.16594109837E+02 -0.54023282587E+02 -0.55021473544E+02  0.78874850831E+02  0.00000000000E+00 0. -1.
</event>
<event>
 8    1  0.6849590E-009  0.9158545E+02  0.7561462E-02  0.1299057E+00
         -2   -1    0    0    0  501 -0.00000000000E+00  0.00000000000E+00  0.28320606971E+02  0.28320606971E+02  0.00000000000E+00 0.  1.
          2   -1    0    0  501    0  0.00000000000E+00 -0.00000000000E+00 -0.45751853076E+03  0.45751853076E+03  0.00000000000E+00 0. -1.
         25    2    1    2    0    0 -0.27152585624E+02  0.91281794259E+01 -0.19550845743E+03  0.23386296271E+03  0.12509093425E+03 0.  0.
         23    2    1    2    0    0  0.27152585624E+02 -0.91281794259E+01 -0.23368946636E+03  0.25197617502E+03  0.89781064418E+02 0.  0.
          5    1    3    3  502    0 -0.46176845865E+02  0.51687656172E+02 -0.64603165104E+02  0.94841743110E+02  0.41800000000E+01 0.  1.
         -5    1    3    3    0  502  0.19024260241E+02 -0.42559476746E+02 -0.13090529233E+03  0.13902121960E+03  0.41800000000E+01 0.  1.
        -11    1    4    4    0    0  0.35657526154E+02 -0.28581432727E+02 -0.22404327876E+03  0.22865639774E+03  0.00000000000E+00 0. -1.
         11    1    4    4    0    0 -0.85049405306E+01  0.19453253301E+02 -0.96461875903E+01  0.23319777282E+02  0.00000000000E+00 0.  1.
</event>
<event>
 8    1  0.6849590E-009  0.8501001E+02  0.7561462E-02  0.1315406E+00
          3   -1    0    0  501    0  0.00000000000E+00  0.00000000000E+00  0.84079494347E+02  0.84079494347E+02  0.00000000000E+00 0. -1.
         -3   -1    0    0    0  501 -0.00000000000E+00 -0.00000000000E+00 -0.20054702990E+03  0.20054702990E+03  0.00000000000E+00 0.  1.
         25    2    1    2    0    0 -0.42702646172E+02  0.53685005987E+02 -0.92278146391E+02  0.16990787996E+03  0.12509130871E+03 0.  0.
         23    2    1    2    0    0  0.42702646172E+02 -0.53685005987E+02 -0.24189389159E+02  0.11471864428E+03  0.88711019268E+02 0.  0.
          5    1    3    3  502    0  0.42743039442E+00  0.33055112129E+02  0.25999545820E+02  0.42264310209E+02  0.41800000000E+01 0. -1.
         -5    1    3    3    0  502 -0.43130076566E+02  0.20629893858E+02 -0.11827769221E+03  0.12764356976E+03  0.41800000000E+01 0. -1.
        -11    1    4    4    0    0  0.39292535486E+02 -0.46654887696E+01 -0.46240785286E+02  0.60859513260E+02  0.00000000000E+00 0.  1.
         11    1    4    4    0    0  0.34101106860E+01 -0.49019517218E+02  0.22051396127E+02  0.53859131020E+02  0.00000000000E+00 0. -1.
</event>
<event>
 8    1  0.6849590E-009  0.1361224E+03  0.7561462E-02  0.1218644E+00
         -1   -1    0    0    0  501 -0.00000000000E+00  0.00000000000E+00  0.11993499389E+03  0.11993499389E+03  0.00000000000E+00 0.  1.
          1   -1    0    0  501    0  0.00000000000E+00 -0.00000000000E+00 -0.17296627312E+03  0.17296627312E+03  0.00000000000E+00 0. -1.
         25    2    1    2    0    0 -0.31001249055E+02  0.87640408892E+02 -0.50001473999E+02  0.16367511669E+03  0.12508987852E+03 0.  0.
         23    2    1    2    0    0  0.31001249055E+02 -0.87640408892E+02 -0.30298052354E+01  0.12922615032E+03  0.89712315164E+02 0.  0.
          5    1    3    3  502    0  0.43851796495E+02  0.32922359366E+02  0.59267379186E+01  0.55312389430E+02  0.41800000000E+01 0.  1.
         -5    1    3    3    0  502 -0.74853045549E+02  0.54718049525E+02 -0.55928211918E+02  0.10836272726E+03  0.41800000000E+01 0.  1.
        -11    1    4    4    0    0 -0.14757611674E+02 -0.75727857363E+02  0.15044184199E+02  0.78605489384E+02  0.00000000000E+00 0.  1.
         11    1    4    4    0    0  0.45758860729E+02 -0.11912551529E+02 -0.18073989434E+02  0.50620660932E+02  0.00000000000E+00 0. -1.
</event>
<event>
 8    1  0.6849590E-009  0.1028743E+03  0.7561462E-02  0.1274365E+00
          1   -1    0    0  501    0  0.00000000000E+00  0.00000000000E+00  0.19710676264E+03  0.19710676264E+03  0.00000000000E+00 0. -1.
         -1   -1    0    0    0  501 -0.00000000000E+00 -0.00000000000E+00 -0.73277404026E+02  0.73277404026E+02  0.00000000000E+00 0.  1.
         25    2    1    2    0    0  0.40331293149E+02  0.11219254121E+02  0.75846716713E+02  0.15220432485E+03  0.12514370618E+03 0.  0.
         23    2    1    2    0    0 -0.40331293149E+02 -0.11219254121E+02  0.47982641903E+02  0.11817984182E+03  0.99557301178E+02 0.  0.
          5    1    3    3  502    0  0.18910868170E+02  0.65404779467E+02  0.61980922682E+02  0.92165683899E+02  0.41800000000E+01 0.  1.
         -5    1    3    3    0  502  0.21420424979E+02 -0.54185525346E+02  0.13865794031E+02  0.60038640952E+02  0.41800000000E+01 0.  1.
        -11    1    4    4    0    0 -0.34165082195E+02 -0.38313442785E+02 -0.11429399327E+02  0.52590910891E+02  0.00000000000E+00 0.  1.
         11    1    4    4    0    0 -0.61662109539E+01  0.27094188663E+02  0.59412041230E+02  0.65588930926E+02  0.00000000000E+00 0. -1.
</event>
<event>
 8    1  0.6849590E-009  0.1353801E+03  0.7561462E-02  0.1219684E+00
          1   -1    0    0  501    0  0.00000000000E+00  0.00000000000E+00  0.20350374195E+03  0.20350374195E+03  0.00000000000E+00 0. -1.
         -1   -1    0    0    0  501 -0.00000000000E+00 -0.00000000000E+00 -0.10291867342E+03  0.10291867342E+03  0.00000000000E+00 0.  1.
         25    2    1    2    0    0  0.81606836414E+02 -0.47300429475E+02  0.61219638119E+02  0.16822687927E+03  0.12512167054E+03 0.  0.
         23    2    1    2    0    0 -0.81606836414E+02  0.47300429475E+02  0.39365430412E+02  0.13819553611E+03  0.93012701873E+02 0.  0.
          5    1    3    3  502    0  0.68413201542E+02  0.18802449974E+02 -0.79960965781E+01  0.71521383031E+02  0.41800000000E+01 0.  1.
         -5    1    3    3    0  502  0.13193634873E+02 -0.66102879449E+02  0.69215734697E+02  0.96705496236E+02  0.41800000000E+01 0.  1.
        -11    1    4    4    0    0 -0.76132240836E+02 -0.80263309697E+01  0.27522141148E+02  0.81351142198E+02  0.00000000000E+00 0. -1.
         11    1    4    4    0    0 -0.54745955787E+01  0.55326760445E+02  0.11843289264E+02  0.56844393907E+02  0.00000000000E+00 0.  1.
</event>
<event>
 8    1  0.6849590E-009  0.9699736E+02  0.7561462E-02  0.1286740E+00
          2   -1    0    0  501    0  0.00000000000E+00  0.00000000000E+00  0.69891378369E+02  0.69891378369E+02  0.00000000000E+00 0.  1.
         -2   -1    0    0    0  501 -0.00000000000E+00 -0.00000000000E+00 -0.19807133123E+03  0.19807133123E+03  0.00000000000E+00 0. -1.
         25    2    1    2    0    0  0.26786023056E+02 -0.15644468506E+02 -0.35594837879E+02  0.13370490455E+03  0.12509104121E+03 0.  0.
         23    2    1    2    0    0 -0.26786023056E+02  0.15644468506E+02 -0.92585114983E+02  0.13425780505E+03  0.92146157138E+02 0.  0.
          5    1    3    3  502    0  0.58467688318E+02 -0.40434078833E+02  0.10946053861E+02  0.72046330951E+02  0.41800000000E+01 0. -1.
         -5    1    3    3    0  502 -0.31681665263E+02  0.24789610327E+02 -0.46540891740E+02  0.61658573596E+02  0.41800000000E+01 0. -1.
        -11    1    4    4    0    0 -0.11585150999E+02 -0.31099457417E+02 -0.75067167591E+02  0.82076011266E+02  0.00000000000E+00 0. -1.
         11    1    4    4    0    0 -0.15200872057E+02  0.46743925923E+02 -0.17517947393E+02  0.52181793787E+02  0.00000000000E+00 0.  1.
</event>
<event>
 8    1  0.6849590E-009  0.1065319E+03  0.7561462E-02  0.1267130E+00
          2   -1    0    0  501    0  0.00000000000E+00  0.00000000000E+00  0.85050052111E+02  0.85050052111E+02  0.00000000000E+00 0. -1.
         -2   -1    0    0    0  501 -0.00000000000E+00 -0.00000000000E+00 -0.22958836986E+03  0.22958836986E+03  0.00000000000E+00 0.  1.
         25    2    1    2    0    0 -0.51172275976E+02 -0.39456208610E+01 -0.15133909629E+03  0.20294237874E+03  0.12509163548E+03 0.  0.
         23    2    1    2    0    0  0.51172275976E+02  0.39456208610E+01  0.68007785419E+01  0.11169604324E+03  0.98972651444E+02 0.  0.
          5    1    3    3  502    0  0.40822393640E+02  0.94288894799E+01 -0.49731810924E+02  0.65162084045E+02  0.41800000000E+01 0. -1.
         -5    1    3    3    0  502 -0.91994669617E+02 -0.13374510341E+02 -0.10160728537E+03  0.13778029469E+03  0.41800000000E+01 0. -1.
        -11    1    4    4    0    0 -0.24788244206E+01 -0.19281236507E+02  0.39993202123E+02  0.44467593456E+02  0.00000000000E+00 0. -1.
         11    1    4    4    0    0  0.53651100397E+02  0.23226857368E+02 -0.33192423581E+02  0.67228449783E+02  0.00000000000E+00 0.  1.
</event>
<event>
 8    1  0.6849590E-009  0.6999529E+02  0.7561462E-02  0.1360109E+00
          1   -1    0    0  501    0  0.00000000000E+00  0.00000000000E+00  0.52423122564E+03  0.52423122564E+03  0.00000000000E+00 0. -1.
         -1   -1    0    0    0  501 -0.00000000000E+00 -0.00000000000E+00 -0.38478994710E+02  0.38478994710E+02  0.00000000000E+00 0.  1.
         25    2    1    2    0    0 -0.18864223430E+02  0.48666727795E+02  0.41507037992E+03  0.43664154240E+03  0.12509239360E+03 0.  0.
         23    2    1    2    0    0  0.18864223430E+02 -0.48666727795E+02  0.70681851010E+02  0.12606867796E+03  0.90405078284E+02 0.  0.
          5    1    3    3  502    0 -0.18616393206E+02  0.96490186277E+01  0.17390502166E+01  0.21451581576E+02  0.41800000000E+01 0. -1.
         -5    1    3    3    0  502 -0.24783022406E+00  0.39017709168E+02  0.41333132971E+03  0.41518996082E+03  0.41800000000E+01 0. -1.
        -11    1    4    4    0    0  0.12724258507E+01  0.14112850938E+02 -0.13513727918E+02  0.19580921106E+02  0.00000000000E+00 0.  1.
         11    1    4    4    0    0  0.17591797579E+02 -0.62779578733E+02  0.84195578927E+02  0.10648775685E+03  0.00000000000E+00 0. -1.
</event>
<event>
 8    1  0.6849590E-009  0.1477957E+03  0.7561462E-02  0.1203208E+00
         -1   -1    0    0    0  501 -0.00000000000E+00  0.00000000000E+00  0.50877643210E+03  0.50877643210E+03  0.00000000000E+00 0.  1.
          1   -1    0    0  501    0  0.00000000000E+00 -0.00000000000E+00 -0.78862959070E+02  0.78862959070E+02  0.00000000000E+00 0. -1.
         25    2    1    2    0    0 -0.11382474614E+03 -0.18037792142E+02  0.40461277308E+03  0.43890799924E+03  0.12508917173E+03 0.  0.
         23    2    1    2    0    0  0.11382474614E+03  0.18037792142E+02  0.25300699949E+02  0.14873139192E+03  0.90550906938E+02 0.  0.
          5    1    3    3  502    0 -0.73892675159E+02  0.47810876913E+02  0.26692633049E+03  0.28109277064E+03  0.41800000000E+01 0.  1.
         -5    1    3    3    0  502 -0.39932070977E+02 -0.65848669055E+02  0.13768644258E+03  0.15781522861E+03  0.41800000000E+01 0.  1.
        -11    1    4    4    0    0  0.10145841902E+03  0.36765716340E+02  0.46824973745E+02  0.11763548297E+03  0.00000000000E+00 0.  1.
         11    1    4    4    0    0  0.12366327118E+02 -0.18727924198E+02 -0.21524273796E+02  0.31095908953E+02  0.00000000000E+00 0. -1.
</event>
<event>
 8    1  0.6849590E-009  0.1071680E+03  0.7561462E-02  0.1265906E+00
         -2   -1    0    0    0  501 -0.00000000000E+00  0.00000000000E+00  0.15097270670E+02  0.15097270670E+02  0.00000000000E+00 0.  1.
          2   -1    0    0  501    0  0.00000000000E+00 -0.00000000000E+00 -0.12254425536E+04  0.12254425536E+04  0.00000000000E+00 0. -1.
         25    2    1    2    0    0 -0.64865064253E+02 -0.49863066684E+02 -0.64716424712E+03  0.66419940951E+03  0.12508193660E+03 0.  0.
         23    2    1    2    0    0  0.64865064253E+02  0.49863066684E+02 -0.56318103586E+03  0.57634041481E+03  0.91113075957E+02 0.  0.
          5    1    3    3  502    0  0.56674822925E+01 -0.14431224325E+02 -0.44776243910E+01  0.16670396253E+02  0.41800000000E+01 0.  1.
         -5    1    3    3    0  502 -0.70532546546E+02 -0.35431842359E+02 -0.64268662273E+03  0.64752901325E+03  0.41800000000E+01 0.  1.
        -11    1    4    4    0    0  0.85122169252E+02  0.28429470916E+02 -0.47365238607E+03  0.48207945543E+03  0.00000000000E+00 0. -1.
         11    1    4    4    0    0 -0.20257104998E+02  0.21433595768E+02 -0.89528649787E+02  0.94260959379E+02  0.00000000000E+00 0.  1.
</event>
<event>
 7    1  0.6849590E-009  0.1201449E+03  0.7561462E-02  0.1242858E+00
         -2   -1    0    0    0  501 -0.00000000000E+00  0.00000000000E+00  0.13314052484E+02  0.13314052484E+02  0.00000000000E+00 0.  1.
          2   -1    0    0  501    0  0.00000000000E+00 -0.00000000000E+00 -0.11982853111E+04  0.11982853111E+04  0.00000000000E+00 0. -1.
         23    2    1    2    0    0  0.45696758470E+02 -0.35355213891E+02 -0.41459858607E+03  0.42898237293E+03  0.93785413738E+02 0.  0.
          5    1    1    2  502    0 -0.88062770939E+02  0.27945588915E+02 -0.58563864443E+03  0.59289636684E+03  0.41800000000E+01 0.  1.
         -5    1    1    2    0  502  0.42366012469E+02  0.74096249758E+01 -0.18473402811E+03  0.18972062381E+03  0.41800000000E+01 0.  1.
        -11    1    3    3    0    0  0.12642756864E+02  0.29337245513E+02 -0.72041824359E+02  0.78806965000E+02  0.00000000000E+00 0.  1.
         11    1    3    3    0    0  0.33054001606E+02 -0.64692459404E+02 -0.34255676171E+03  0.35017540793E+03  0.00000000000E+00 0. -1.
</event>
<event>
 8    1  0.6849590E-009  0.1464862E+03  0.7561462E-02  0.1204858E+00
         -2   -1    0    0    0  501 -0.00000000000E+00  0.00000000000E+00  0.14827464688E+02  0.14827464688E+02  0.00000000000E+00 0.  1.
          2   -1    0    0  501    0  0.00000000000E+00 -0.00000000000E+00 -0.16136895990E+04  0.16136895990E+04  0.00000000000E+00 0. -1.
         25    2    1    2    0    0 -0.59722919410E+02  0.91807113336E+02 -0.93062795228E+03  0.94536375207E+03  0.12509542358E+03 0.  0.
         23    2    1    2    0    0  0.59722919410E+02 -0.91807113336E+02 -0.66823418205E+03  0.68315331164E+03  0.90366763681E+02 0.  0.
          5    1    3    3  502    0 -0.62905267944E+02  0.11416004588E+03 -0.60343498596E+03  0.61736605307E+03  0.41800000000E+01 0. -1.
         -5    1    3    3    0  502  0.31823485335E+01 -0.22352932545E+02 -0.32719296632E+03  0.32799769900E+03  0.41800000000E+01 0. -1.
        -11    1    4    4    0    0 -0.22516342371E+02 -0.14879488459E+02 -0.86229993538E+02  0.90354837370E+02  0.00000000000E+00 0. -1.
         11    1    4    4    0    0  0.82239261781E+02 -0.76927624877E+02 -0.58200418851E+03  0.59279847427E+03  0.00000000000E+00 0.  1.
</event>
<event>
 7    1  0.6849590E-009  0.8571510E+02  0.7561462E-02  0.1313573E+00
         -2   -1    0    0    0  501 -0.00000000000E+00  0.00000000000E+00  0.19258007881E+02  0.19258007881E+02  0.00000000000E+00 0. -1.
          2   -1    0    0  501    0  0.00000000000E+00 -0.00000000000E+00 -0.10181449462E+04  0.10181449462E+04  0.00000000000E+00 0.  1.
         23    2    1    2    0    0  0.43088950032E+02  0.18453523379E+01 -0.17544340377E+03  0.20340803941E+03  0.93457902976E+02 0.  0.
          5    1    1    2  502    0 -0.20885858557E+02 -0.46061719594E+02 -0.14292307479E+03  0.15166535137E+03  0.41800000000E+01 0. -1.
         -5    1    1    2    0  502 -0.22203091475E+02  0.44216367256E+02 -0.68052045973E+03  0.68232956327E+03  0.41800000000E+01 0. -1.
        -11    1    3    3    0    0  0.38939323160E+01 -0.23846917555E+02 -0.25749389398E+01  0.24299557533E+02  0.00000000000E+00 0. -1.
         11    1    3    3    0    0  0.39195017716E+02  0.25692269893E+02 -0.17286846484E+03  0.17910848188E+03  0.00000000000E+00 0.  1.
</event>
<event>
 8    1  0.6849590E-009  0.1289489E+03  0.7561462E-02  0.1229024E+00
         -1   -1    0    0    0  501 -0.00000000000E+00  0.00000000000E+00  0.11418043488E+03  0.11418043488E+03  0.00000000000E+00 0. -1.
          1   -1    0    0  501    0  0.00000000000E+00 -0.00000000000E+00 -0.16516239350E+03  0.16516239350E+03  0.00000000000E+00 0.  1.
         25    2    1    2    0    0 -0.64103586064E+02 -0.50570134027E+02 -0.45440106930E+02  0.15612365463E+03  0.12507271491E+03 0.  0.
         23    2    1    2    0    0  0.64103586064E+02  0.50570134027E+02 -0.55418516950E+01  0.12321917375E+03  0.92117557811E+02 0.  0.
          5    1    3    3  502    0 -0.54531260093E+02  0.33837340798E+02 -0.19306433295E+02  0.67147857197E+02  0.41800000000E+01 0. -1.
         -5    1    3    3    0  502 -0.95723259709E+01 -0.84407474826E+02 -0.26133673634E+02  0.88975797431E+02  0.41800000000E+01 0. -1.
        -11    1    4    4    0    0  0.17218534997E+02 -0.18359509771E+02 -0.27229143837E+02  0.37080666399E+02  0.00000000000E+00 0.  1.
         11    1    4    4    0    0  0.46885051067E+02  0.68929643798E+02  0.21687292142E+02  0.86138507348E+02  0.00000000000E+00 0. -1.
</event>
<event>
 8    1  0.6849590E-009  0.1266189E+03  0.7561462E-02  0.1232561E+00
          2   -1    0    0  501    0  0.00000000000E+00  0.00000000000E+00  0.26350078248E+03  0.26350078248E+03  0.00000000000E+00 0. -1.
         -2   -1    0    0    0  501 -0.00000000000E+00 -0.00000000000E+00 -0.62353876723E+02  0.62353876723E+02  0.00000000000E+00 0.  1.
         25    2    1    2    0    0  0.39049012955E+02  0.53725079457E+02  0.91400412230E+02  0.16856058055E+03  0.12508966538E+03 0.  0.
         23    2    1    2    0    0 -0.39049012955E+02 -0.53725079457E+02  0.10974649352E+03  0.15729407865E+03  0.91027055112E+02 0.  0.
          5    1    3    3  502    0  0.78187646958E+02  0.45111648718E+01  0.54900756622E+02  0.95735177563E+02  0.41800000000E+01 0. -1.
         -5    1    3    3    0  502 -0.39138634004E+02  0.49213914586E+02  0.36499655608E+02  0.72825402986E+02  0.41800000000E+01 0. -1.
        -11    1    4    4    0    0 -0.25198507415E+02 -0.79026109533E+02  0.89670967600E+02  0.12215143550E+03  0.00000000000E+00 0. -1.
         11    1    4    4    0    0 -0.13850505540E+02  0.25301030076E+02  0.20075525923E+02  0.35142643152E+02  0.00000000000E+00 0.  1.
</event>
<event>
 8    1  0.6849590E-009  0.1063753E+03  0.7561462E-02  0.1267433E+00
         -2   -1    0    0    0  501 -0.00000000000E+00  0.00000000000E+00  0.21477196560E+02  0.21477196560E+02  0.00000000000E+00 0.  1.
          2   -1    0    0  501    0  0.00000000000E+00 -0.00000000000E+00 -0.66887915188E+03  0.66887915188E+03  0.00000000000E+00 0. -1.
         25    2    1    2    0    0 -0.50148451957E+01  0.25940204522E+02 -0.49326794200E+03  0.50956846594E+03  0.12509482799E+03 0.  0.
         23    2    1    2    0    0  0.50148451957E+01 -0.25940204522E+02 -0.15413401332E+03  0.18078788250E+03  0.90713403171E+02 0.  0.
          5    1    3    3  502    0  0.24379327256E+02 -0.44761505856E+02 -0.20284620743E+03  0.20919369081E+03  0.41800000000E+01 0.  1.
         -5    1    3    3    0  502 -0.29394172452E+02  0.70701710377E+02 -0.29042173457E+03  0.30037477513E+03  0.41800000000E+01 0.  1.
        -11    1    4    4    0    0  0.42398066446E+02 -0.20689253845E+02 -0.12339402697E+03  0.13210498536E+03  0.00000000000E+00 0. -1.
         11    1    4    4    0    0 -0.37383221250E+02 -0.52509506765E+01 -0.30739986342E+02  0.48682897144E+02  0.00000000000E+00 0.  1.
</event>
<event>
 8    1  0.6849590E-009  0.2294044E+03  0.7561462E-02  0.1127060E+00
          2   -1    0    0  501    0  0.00000000000E+00  0.00000000000E+00  0.11085385741E+04  0.11085385741E+04  0.00000000000E+00 0. -1.
         -2   -1    0    0    0  501 -0.00000000000E+00 -0.00000000000E+00 -0.54561308202E+02  0.54561308202E+02  0.00000000000E+00 0.  1.
         25    2    1    2    0    0 -0.17236450788E+03  0.13580976690E+03  0.56890802182E+03  0.62246048589E+03  0.12508758069E+03 0.  0.
         23    2    1    2    0    0  0.17236450788E+03 -0.13580976690E+03  0.48506924409E+03  0.54063939642E+03  0.94047695552E+02 0.  0.
          5    1    3    3  502    0 -0.12435291555E+03  0.89198232198E+02  0.51238609786E+03  0.53476813472E+03  0.41800000000E+01 0.  1.
         -5    1    3    3    0  502 -0.48011592330E+02  0.46611534705E+02  0.56521923960E+02  0.87692351170E+02  0.41800000000E+01 0.  1.
        -11    1    4    4    0    0  0.81968345904E+02 -0.83275345039E+01  0.17392648372E+03  0.19245409660E+03  0.00000000000E+00 0.  1.
         11    1    4    4    0    0  0.90396161976E+02 -0.12748223240E+03  0.31114276037E+03  0.34818529982E+03  0.00000000000E+00 0. -1.
</event>
<event>
 8    1  0.6849590E-009  0.1224294E+03  0.7561462E-02  0.1239142E+00
         -2   -1    0    0    0  501 -0.00000000000E+00  0.00000000000E+00  0.65923902346E+02  0.65923902346E+02  0.00000000000E+00 0.  1.
          2   -1    0    0  501    0  0.00000000000E+00 -0.00000000000E+00 -0.38673696799E+03  0.38673696799E+03  0.00000000000E+00 0. -1.
         25    2    1    2    0    0  0.10248353385E+03 -0.34533116112E+02 -0.92875241529E+02  0.18964991907E+03  0.12508345413E+03 0.  0.
         23    2    1    2    0    0 -0.10248353385E+03  0.34533116112E+02 -0.22793782411E+03  0.26301095126E+03  0.74321585037E+02 0.  0.
          5    1    3    3  502    0  0.74695820442E+02 -0.53670203873E+02 -0.14243983929E+01  0.92083970842E+02  0.41800000000E+01 0.  1.
         -5    1    3    3    0  502  0.27787713405E+02  0.19137087761E+02 -0.91450843136E+02  0.97565948232E+02  0.41800000000E+01 0.  1.
        -11    1    4    4    0    0 -0.17712278289E+02  0.28815603304E+02 -0.22304269888E+02  0.40515975259E+02  0.00000000000E+00 0.  1.
         11    1    4    4    0    0 -0.84771255558E+02  0.57175128080E+01 -0.20563355423E+03  0.22249497600E+03  0.00000000000E+00 0. -1.
</event>
<event>
 8    1  0.6849590E-009  0.1194828E+03  0.7561462E-02  0.1243953E+00
          1   -1    0    0  501    0  0.00000000000E+00  0.00000000000E+00  0.24962114790E+03  0.24962114790E+03  0.00000000000E+00 0. -1.
         -1   -1    0    0    0  501 -0.00000000000E+00 -0.00000000000E+00 -0.75845661197E+02  0.75845661197E+02  0.00000000000E+00 0.  1.
         25    2    1    2    0    0 -0.81759290332E+02  0.10852300076E+02  0.11303817792E+03  0.18768780656E+03  0.12508688617E+03 0.  0.
         23    2    1    2    0    0  0.81759290332E+02 -0.10852300076E+02  0.60737308785E+02  0.13777900253E+03  0.92150305958E+02 0.  0.
          5    1    3    3  502    0 -0.71756853190E+02  0.62925290793E+02  0.61435351635E+02  0.11357998517E+03  0.41800000000E+01 0.  1.
         -5    1    3    3    0  502 -0.10002437142E+02 -0.52072990716E+02  0.51602826280E+02  0.74107821389E+02  0.41800000000E+01 0.  1.
        -11    1    4    4    0    0  0.61865317343E+02 -0.24045929227E+02 -0.62477666514E+01  0.66667524257E+02  0.00000000000E+00 0.  1.
         11    1    4    4    0    0  0.19893972988E+02  0.13193629150E+02  0.66985075437E+02  0.71111478277E+02  0.00000000000E+00 0. -1.
</event>
<event>
 8    1  0.6849590E-009  0.1131681E+03  0.7561462E-02  0.1254813E+00
          2   -1    0    0  501    0  0.00000000000E+00  0.00000000000E+00  0.39740752121E+03  0.39740752121E+03  0.00000000000E+00 0. -1.
         -2   -1    0    0    0  501 -0.00000000000E+00 -0.00000000000E+00 -0.49077836161E+02  0.49077836161E+02  0.00000000000E+00 0.  1.
         25    2    1    2    0    0 -0.57804879005E+02 -0.65809155070E+02  0.17041738283E+03  0.22882689746E+03  0.12508963067E+03 0.  0.
         23    2    1    2    0    0  0.57804879005E+02  0.65809155070E+02  0.17791230221E+03  0.21765845991E+03  0.89722733818E+02 0.  0.
          5    1    3    3  502    0 -0.29712821086E+02  0.46814214403E+01  0.14581943375E+03  0.14894813561E+03  0.41800000000E+01 0.  1.
         -5    1    3    3    0  502 -0.28092057919E+02 -0.70490576510E+02  0.24597949083E+02  0.79878761846E+02  0.41800000000E+01 0.  1.
        -11    1    4    4    0    0 -0.18762678284E+02  0.30138775666E+02  0.84851794010E+02  0.91979404443E+02  0.00000000000E+00 0. -1.
         11    1    4    4    0    0  0.76567557289E+02  0.35670379404E+02  0.93060508204E+02  0.12567905547E+03  0.00000000000E+00 0.  1.
</event>
<event>
 8    1  0.6849590E-009  0.1862949E+03  0.7561462E-02  0.1161846E+00
         -2   -1    0    0    0  501 -0.00000000000E+00  0.00000000000E+00  0.14105314810E+03  0.14105314810E+03  0.00000000000E+00 0.  1.
          2   -1    0    0  501    0  0.00000000000E+00 -0.00000000000E+00 -0.28211545859E+03  0.28211545859E+03  0.00000000000E+00 0. -1.
         25    2    1    2    0    0  0.14260937154E+03  0.78782952239E+02 -0.36482903627E+02  0.20862018987E+03  0.12508874829E+03 0.  0.
         23    2    1    2    0    0 -0.14260937154E+03 -0.78782952239E+02 -0.10457940687E+03  0.21454841683E+03  0.92466125736E+02 0.  0.
          5    1    3    3  502    0  0.68319884878E+02 -0.23035733445E+02 -0.39813806036E+02  0.82467346485E+02  0.41800000000E+01 0.  1.
         -5    1    3    3    0  502  0.74289486658E+02  0.10181868568E+03  0.33309024097E+01  0.12615284338E+03  0.41800000000E+01 0.  1.
        -11    1    4    4    0    0 -0.84868334664E+02 -0.11572847498E+02 -0.90889747903E+02  0.12488999680E+03  0.00000000000E+00 0. -1.
         11    1    4    4    0    0 -0.57741036872E+02 -0.67210104741E+02 -0.13689658964E+02  0.89658420023E+02  0.00000000000E+00 0.  1.
</event>
<event>
 8    1  0.6849590E-009  0.1077752E+03  0.7561462E-02  0.1264746E+00
          2   -1    0    0  501    0  0.00000000000E+00  0.00000000000E+00  0.14506362249E+04  0.14506362249E+04  0.00000000000E+00 0.  1.
         -2   -1    0    0    0  501 -0.00000000000E+00 -0.00000000000E+00 -0.12484950899E+02  0.12484950899E+02  0.00000000000E+00 0. -1.
         25    2    1    2    0    0  0.33433290897E+02  0.38315918646E+02  0.11186437643E+04  0.11267640133E+04  0.12508947076E+03 0.  0.
         23    2    1    2    0    0 -0.33433290897E+02 -0.38315918646E+02  0.31950750966E+03  0.33635716246E+03  0.92006507637E+02 0.  0.
          5    1    3    3  502    0 -0.29562564032E+02  0.36912986798E+02  0.82699841590E+03  0.82836004617E+03  0.41800000000E+01 0. -1.
         -5    1    3    3    0  502  0.62995854929E+02  0.14029318473E+01  0.29164534844E+03  0.29840396717E+03  0.41800000000E+01 0. -1.
        -11    1    4    4    0    0  0.28253921066E+02  0.61069996962E+01  0.79027383969E+02  0.84148124863E+02  0.00000000000E+00 0. -1.
         11    1    4    4    0    0 -0.61687211963E+02 -0.44422918342E+02  0.24048012569E+03  0.25220903759E+03  0.00000000000E+00 0.  1.
</event>
<event>
 8    1  0.6849590E-009  0.9337852E+02  0.7561462E-02  0.1294870E+00
         -1   -1    0    0    0  501 -0.00000000000E+00  0.00000000000E+00  0.15103009092E+03  0.15103009092E+03  0.00000000000E+00 0.  1.
          1   -1    0    0  501    0  0.00000000000E+00 -0.00000000000E+00 -0.17012050806E+03  0.17012050806E+03  0.00000000000E+00 0. -1.
         25    2    1    2    0    0  0.69489878982E+01  0.15797697747E+02 -0.12578261808E+03  0.17823140033E+03  0.12508920563E+03 0.  0.
         23    2    1    2    0    0 -0.69489878982E+01 -0.15797697747E+02  0.10669220094E+03  0.14291919865E+03  0.93513720458E+02 0.  0.
          5    1    3    3  502    0  0.44807277370E+02 -0.35451275429E+02 -0.84870800416E+02  0.10239633879E+03  0.41800000000E+01 0. -1.
         -5    1    3    3    0  502 -0.37858289472E+02  0.51248973176E+02 -0.40911817665E+02  0.75835061534E+02  0.41800000000E+01 0. -1.
        -11    1    4    4    0    0  0.22386874257E+02  0.11828341184E+02 -0.35276479819E+01  0.25564156439E+02  0.00000000000E+00 0. -1.
         11    1    4    4    0    0 -0.29335862155E+02 -0.27626038931E+02  0.11021984893E+03  0.11735504221E+03  0.00000000000E+00 0.  1.
</event>
<event>
 8    1  0.6849590E-009  0.1579968E+03  0.7561462E-02  0.1190977E+00
         -1   -1    0    0    0  501 -0.00000000000E+00  0.00000000000E+00  0.22928713293E+03  0.22928713293E+03  0.00000000000E+00 0.  1.
          1   -1    0    0  501    0  0.00000000000E+00 -0.00000000000E+00 -0.19704850076E+03  0.19704850076E+03  0.00000000000E+00 0. -1.
         25    2    1    2    0    0  0.41396212689E+02 -0.12998030689E+03 -0.10492172485E+03  0.21275152349E+03  0.12508443467E+03 0.  0.
         23    2    1    2    0    0 -0.41396212689E+02  0.12998030689E+03  0.13716035703E+03  0.21358411021E+03  0.90535528874E+02 0.  0.
          5    1    3    3  502    0  0.54534680741E+02 -0.12655097753E+02 -0.21650897930E+01  0.56181339575E+02  0.41800000000E+01 0. -1.
         -5    1    3    3    0  502 -0.13138468052E+02 -0.11732520914E+03 -0.10275663506E+03  0.15657018391E+03  0.41800000000E+01 0. -1.
        -11    1    4    4    0    0  0.65369841331E+01  0.31802215778E+02 -0.64876609760E+01  0.33108953999E+02  0.00000000000E+00 0.  1.
         11    1    4    4    0    0 -0.47933196822E+02  0.98178091113E+02  0.14364801800E+03  0.18047515621E+03  0.00000000000E+00 0. -1.
</event>
<event>
 8    1  0.6849590E-009  0.9955843E+02  0.7561462E-02  0.1281227E+00
         -1   -1    0    0    0  501 -0.00000000000E+00  0.00000000000E+00  0.91477891916E+02  0.91477891916E+02  0.00000000000E+00 0.  1.
          1   -1    0    0  501    0  0.00000000000E+00 -0.00000000000E+00 -0.19818208475E+03  0.19818208475E+03  0.00000000000E+00 0. -1.
         25    2    1    2    0    0 -0.22052823863E+02 -0.75193695069E+02 -0.67714220772E+02  0.16239042647E+03  0.12508003875E+03 0.  0.
         23    2    1    2    0    0  0.22052823863E+02  0.75193695069E+02 -0.38989972064E+02  0.12726955020E+03  0.92395355231E+02 0.  0.
          5    1    3    3  502    0  0.12115792880E+01 -0.54924981118E+02  0.27953827445E+02  0.61782767371E+02  0.41800000000E+01 0. -1.
         -5    1    3    3    0  502 -0.23264403151E+02 -0.20268713952E+02 -0.95668048217E+02  0.10060765910E+03  0.41800000000E+01 0. -1.
        -11    1    4    4    0    0 -0.30002804900E+02  0.40184931512E+02 -0.40587826170E+02  0.64516421597E+02  0.00000000000E+00 0. -1.
         11    1    4    4    0    0  0.52055628763E+02  0.35008763558E+02  0.15978541063E+01  0.62753128603E+02  0.00000000000E+00 0.  1.
</event>
<event>
 8    1  0.6849590E-009  0.1078430E+03  0.7561462E-02  0.1264617E+00
          1   -1    0    0  501    0  0.00000000000E+00  0.00000000000E+00  0.64592060745E+03  0.64592060745E+03  0.00000000000E+00 0. -1.
         -1   -1    0    0    0  501 -0.00000000000E+00 -0.00000000000E+00 -0.25580755213E+02  0.25580755213E+02  0.00000000000E+00 0.  1.
         25    2    1    2    0    0 -0.38295182700E+02 -0.35408048434E+02  0.22369585649E+03  0.26154689427E+03  0.12508673303E+03 0.  0.
         23    2    1    2    0    0  0.38295182700E+02  0.35408048434E+02  0.39664399575E+03  0.40995446840E+03  0.89531870759E+02 0.  0.
          5    1    3    3  502    0 -0.24625893659E+02 -0.70253698975E+02  0.66521757303E+02  0.99923137725E+02  0.41800000000E+01 0. -1.
         -5    1    3    3    0  502 -0.13669289041E+02  0.34845650542E+02  0.15717409918E+03  0.16162375654E+03  0.41800000000E+01 0. -1.
        -11    1    4    4    0    0 -0.15983727444E+02  0.45522745176E+02  0.17382301202E+03  0.18039467669E+03  0.00000000000E+00 0. -1.
         11    1    4    4    0    0  0.54278910144E+02 -0.10114696742E+02  0.22282098373E+03  0.22955979171E+03  0.00000000000E+00 0.  1.
</event>
<event>
 8    1  0.6849590E-009  0.7265538E+02  0.7561462E-02  0.1351289E+00
         -2   -1    0    0    0  501 -0.00000000000E+00  0.00000000000E+00  0.20403262128E+02  0.20403262128E+02  0.00000000000E+00 0.  1.
          2   -1    0    0  501    0  0.00000000000E+00 -0.00000000000E+00 -0.65268676008E+03  0.65268676008E+03  0.00000000000E+00 0. -1.
         25    2    1    2    0    0  0.36140765422E+02 -0.10103684684E+02 -0.38956971274E+03  0.41087766617E+03  0.12509059159E+03 0.  0.
         23    2    1    2    0    0 -0.36140765422E+02  0.10103684684E+02 -0.24271378521E+03  0.26221235603E+03  0.91853681234E+02 0.  0.
          5    1    3    3  502    0  0.31448767548E+02  0.28797975624E+01 -0.13609985841E+02  0.34641338439E+02  0.41800000000E+01 0. -1.
         -5    1    3    3    0  502  0.46919978741E+01 -0.12983482246E+02 -0.37595972690E+03  0.37623632774E+03  0.41800000000E+01 0. -1.
        -11    1    4    4    0    0 -0.54861481569E+02 -0.24191737527E+02 -0.15484088870E+03  0.16604434088E+03  0.00000000000E+00 0. -1.
         11    1    4    4    0    0  0.18720716147E+02  0.34295422212E+02 -0.87872896506E+02  0.96168015151E+02  0.00000000000E+00 0.  1.
</event>
<event>
 8    1  0.6849590E-009  0.5910571E+02  0.7561462E-02  0.1401623E+00
         -2   -1    0    0    0  501 -0.00000000000E+00  0.00000000000E+00  0.24414103281E+02  0.24414103281E+02  0.00000000000E+00 0.  1.
          2   -1    0    0  501    0  0.00000000000E+00 -0.00000000000E+00 -0.98768614166E+03  0.98768614166E+03  0.00000000000E+00 0. -1.
         25    2    1    2    0    0 -0.18842556665E+02 -0.22210405799E+02 -0.86586869474E+03  0.87534325964E+03  0.12509548989E+03 0.  0.
         23    2    1    2    0    0  0.18842556665E+02  0.22210405799E+02 -0.97403343634E+02  0.13675698530E+03  0.91469763365E+02 0.  0.
          5    1    3    3  502    0 -0.22306426813E+02 -0.31903616166E+02 -0.76870190191E+02  0.86266540105E+02  0.41800000000E+01 0.  1.
         -5    1    3    3    0  502  0.34638701483E+01  0.96932103676E+01 -0.78899850455E+03  0.78907671953E+03  0.41800000000E+01 0.  1.
        -11    1    4    4    0    0  0.73220565207E+01 -0.21517607751E+02 -0.87581063847E+02  0.90482388892E+02  0.00000000000E+00 0. -1.
         11    1    4    4    0    0  0.11520500144E+02  0.43728013550E+02 -0.98222797872E+01  0.46274596409E+02  0.00000000000E+00 0.  1.
</event>
<event>
 8    1  0.6849590E-009  0.1554852E+03  0.7561462E-02  0.1193890E+00
         -2   -1    0    0    0  501 -0.00000000000E+00  0.00000000000E+00  0.16730784919E+03  0.16730784919E+03  0.00000000000E+00 0.  1.
          2   -1    0    0  501    0  0.00000000000E+00 -0.00000000000E+00 -0.66733131497E+03  0.66733131497E+03  0.00000000000E+00 0. -1.
         25    2    1    2    0    0 -0.11045600084E+03  0.46064169721E+02 -0.61872372833E+03  0.64248178835E+03  0.12506542488E+03 0.  0.
         23    2    1    2    0    0  0.11045600084E+03 -0.46064169721E+02  0.11870026256E+03  0.19215737581E+03  0.92261957996E+02 0.  0.
          5    1    3    3  502    0  0.20403997070E+02  0.36025069615E+02 -0.13679801863E+03  0.14298705899E+03  0.41800000000E+01 0. -1.
         -5    1    3    3    0  502 -0.13085999791E+03  0.10039100106E+02 -0.48192570970E+03  0.49949472936E+03  0.41800000000E+01 0. -1.
        -11    1    4    4    0    0  0.54455629305E+02  0.13692908608E+02  0.88620877529E+02  0.10491220731E+03  0.00000000000E+00 0.  1.
         11    1    4    4    0    0  0.56000371532E+02 -0.59757078329E+02  0.30079385027E+02  0.87245168495E+02  0.00000000000E+00 0. -1.
</event>
<event>
 8    1  0.6849590E-009  0.1143134E+03  0.7561462E-02  0.1252784E+00
          2   -1    0    0  501    0  0.00000000000E+00  0.00000000000E+00  0.35174565851E+02  0.35174565851E+02  0.00000000000E+00 0. -1.
         -2   -1    0    0    0  501 -0.00000000000E+00 -0.00000000000E+00 -0.72230420764E+03  0.72230420764E+03  0.00000000000E+00 0.  1.
         25    2    1    2    0    0  0.77679664994E+02 -0.44927213964E+02 -0.55021057730E+03  0.57134236074E+03  0.12509128223E+03 0.  0.
         23    2    1    2    0    0 -0.77679664994E+02  0.44927213964E+02 -0.13691906449E+03  0.18613641276E+03  0.88585264154E+02 0.  0.
          5    1    3    3  502    0 -0.11640447021E+02 -0.59098114421E+01 -0.33237965970E+03  0.33266219571E+03  0.41800000000E+01 0.  1.
         -5    1    3    3    0  502  0.89320112015E+02 -0.39017402522E+02 -0.21783091760E+03  0.23868016502E+03  0.41800000000E+01 0.  1.
        -11    1    4    4    0    0 -0.51281763963E+02  0.66000549349E+02 -0.12489591447E+03  0.15028267126E+03  0.00000000000E+00 0. -1.
         11    1    4    4    0    0 -0.26397901031E+02 -0.21073335385E+02 -0.12023150022E+02  0.35853741500E+02  0.00000000000E+00 0.  1.
</event>
<event>
 8    1  0.6849590E-009  0.1032627E+03  0.7561462E-02  0.1273581E+00
          1   -1    0    0  501    0  0.00000000000E+00  0.00000000000E+00  0.20278570390E+04  0.20278570390E+04  0.00000000000E+00 0. -1.
         -1   -1    0    0    0  501 -0.00000000000E+00 -0.00000000000E+00 -0.92624883903E+01  0.92624883903E+01  0.00000000000E+00 0.  1.
         25    2    1    2    0    0 -0.56596956176E+02 -0.47878759572E+02  0.14258858748E+04  0.14332808656E+04  0.12509164913E+03 0.  0.
         23    2    1    2    0    0  0.56596956176E+02  0.47878759572E+02  0.59270867582E+03  0.60383866179E+03  0.88441868042E+02 0.  0.
          5    1    3    3  502    0 -0.24747063063E+02 -0.55192308925E+02  0.13387914199E+04  0.13401636268E+04  0.41800000000E+01 0. -1.
         -5    1    3    3    0  502 -0.31849893113E+02  0.73135493528E+01  0.87094454916E+02  0.93117238858E+02  0.41800000000E+01 0. -1.
        -11    1    4    4    0    0 -0.53517407741E+01 -0.20204277987E+02  0.68785343937E+02  0.71890733191E+02  0.00000000000E+00 0.  1.
         11    1    4    4    0    0  0.61948696950E+02  0.68083037559E+02  0.52392333188E+03  0.53194792860E+03  0.00000000000E+00 0. -1.
</event>
<event>
 8    1  0.6849590E-009  0.1942858E+03  0.7561462E-02  0.1154652E+00
         -2   -1    0    0    0  501 -0.00000000000E+00  0.00000000000E+00  0.36959485903E+03  0.36959485903E+03  0.00000000000E+00 0. -1.
          2   -1    0    0  501    0  0.00000000000E+00 -0.00000000000E+00 -0.17367767699E+03  0.17367767699E+03  0.00000000000E+00 0.  1.
         25    2    1    2    0    0 -0.18617836190E+03  0.12285361286E+02  0.24228985948E+03  0.33037965139E+03  0.12503209791E+03 0.  0.
         23    2    1    2    0    0  0.18617836190E+03 -0.12285361286E+02 -0.46372677436E+02  0.21289288463E+03  0.91431080989E+02 0.  0.
          5    1    3    3  502    0 -0.19039350128E+03  0.25980889755E+01  0.16419755150E+03  0.25146519385E+03  0.41800000000E+01 0. -1.
         -5    1    3    3    0  502  0.42151393874E+01  0.96872723104E+01  0.78092307972E+02  0.78914457543E+02  0.41800000000E+01 0. -1.
        -11    1    4    4    0    0  0.79440383316E+02 -0.91890043466E+01  0.25775174131E+02  0.84021258641E+02  0.00000000000E+00 0.  1.
         11    1    4    4    0    0  0.10673797858E+03 -0.30963569393E+01 -0.72147851567E+02  0.12887162598E+03  0.00000000000E+00 0. -1.
</event>
<event>
 8    1  0.6849590E-009  0.1799159E+03  0.7561462E-02  0.1167884E+00
         -2   -1    0    0    0  501 -0.00000000000E+00  0.00000000000E+00  0.26574597028E+02  0.26574597028E+02  0.00000000000E+00 0.  1.
          2   -1    0    0  501    0  0.00000000000E+00 -0.00000000000E+00 -0.13531958082E+04  0.13531958082E+04  0.00000000000E+00 0. -1.
         25    2    1    2    0    0  0.11390518100E+03 -0.95246615753E+02 -0.86901760292E+03  0.89044138722E+03  0.12509181358E+03 0.  0.
         23    2    1    2    0    0 -0.11390518100E+03  0.95246615753E+02 -0.45760360823E+03  0.48932901798E+03  0.89417657677E+02 0.  0.
          5    1    3    3  502    0  0.43389182254E+02 -0.11165439403E+03 -0.59763600791E+03  0.60953719755E+03  0.41800000000E+01 0. -1.
         -5    1    3    3    0  502  0.70515998746E+02  0.16407778280E+02 -0.27138159500E+03  0.28090418967E+03  0.41800000000E+01 0. -1.
        -11    1    4    4    0    0 -0.43080573070E+02 -0.64091725446E+01 -0.18231187546E+03  0.18744234634E+03  0.00000000000E+00 0.  1.
         11    1    4    4    0    0 -0.70824607930E+02  0.10165578830E+03 -0.27529173277E+03  0.30188667164E+03  0.00000000000E+00 0. -1.
</event>
<event>
 8    1  0.6849590E-009  0.1033366E+03  0.7561462E-02  0.1273432E+00
          4   -1    0    0  501    0  0.00000000000E+00  0.00000000000E+00  0.54008040608E+03  0.54008040608E+03  0.00000000000E+00 0.  1.
         -4   -1    0    0    0  501 -0.00000000000E+00 -0.00000000000E+00 -0.30454079154E+02  0.30454079154E+02  0.00000000000E+00 0. -1.
         25    2    1    2    0    0 -0.49913196470E+02 -0.41447589408E+02  0.34071193878E+03  0.36870240669E+03  0.12509040582E+03 0.  0.
         23    2    1    2    0    0  0.49913196470E+02  0.41447589408E+02  0.16891438815E+03  0.20183207854E+03  0.89414135091E+02 0.  0.
          5    1    3    3  502    0 -0.42460956894E+02 -0.70815536039E+02  0.32288292083E+03  0.33329960391E+03  0.41800000000E+01 0.  1.
         -5    1    3    3    0  502 -0.74522395758E+01  0.29367946631E+02  0.17829017951E+02  0.35402802787E+02  0.41800000000E+01 0.  1.
        -11    1    4    4    0    0 -0.16846200283E+02  0.64832909865E+01  0.13502372230E+01  0.18101123351E+02  0.00000000000E+00 0. -1.
         11    1    4    4    0    0  0.66759396753E+02  0.34964298421E+02  0.16756415092E+03  0.18373095519E+03  0.00000000000E+00 0.  1.
</event>
<event>
 8    1  0.6849590E-009  0.6043920E+02  0.7561462E-02  0.1395998E+00
         -1   -1    0    0    0  501 -0.00000000000E+00  0.00000000000E+00  0.58590441106E+02  0.58590441106E+02  0.00000000000E+00 0.  1.
          1   -1    0    0  501    0  0.00000000000E+00 -0.00000000000E+00 -0.19757705633E+03  0.19757705633E+03  0.00000000000E+00 0. -1.
         25    2    1    2    0    0  0.36833878496E+02  0.27751340819E+02 -0.10308845512E+03  0.16852755604E+03  0.12508971198E+03 0.  0.
         23    2    1    2    0    0 -0.36833878496E+02 -0.27751340819E+02 -0.35898160098E+02  0.87639941393E+02  0.65308574527E+02 0.  0.
          5    1    3    3  502    0 -0.14308434833E+02  0.89467771035E+01  0.24318857927E+02  0.29894069291E+02  0.41800000000E+01 0. -1.
         -5    1    3    3    0  502  0.51142313329E+02  0.18804563715E+02 -0.12740731305E+03  0.13863348675E+03  0.41800000000E+01 0. -1.
        -11    1    4    4    0    0 -0.25881409315E+02 -0.95236831932E+01 -0.53398630375E+02  0.60099597467E+02  0.00000000000E+00 0. -1.
         11    1    4    4    0    0 -0.10952469181E+02 -0.18227657626E+02  0.17500470277E+02  0.27540343927E+02  0.00000000000E+00 0.  1.
</event>
<event>
 8    1  0.6849590E-009  0.1624586E+03  0.7561462E-02  0.1185949E+00
         -1   -1    0    0    0  501 -0.00000000000E+00  0.00000000000E+00  0.59539925615E+02  0.59539925615E+02  0.00000000000E+00 0.  1.
          1   -1    0    0  501    0  0.00000000000E+00 -0.00000000000E+00 -0.78988406554E+03  0.78988406554E+03  0.00000000000E+00 0. -1.
         25    2    1    2    0    0  0.16112059344E+02  0.15096452372E+03 -0.59442820732E+03  0.62613282312E+03  0.12509009814E+03 0.  0.
         23    2    1    2    0    0 -0.16112059344E+02 -0.15096452372E+03 -0.13591593260E+03  0.22329116803E+03  0.91301254686E+02 0.  0.
          5    1    3    3  502    0 -0.14023315482E+02  0.13711115618E+03 -0.56504161528E+03  0.58162326460E+03  0.41800000000E+01 0.  1.
         -5    1    3    3    0  502  0.30135374826E+02  0.13853367538E+02 -0.29386592045E+02  0.44509558524E+02  0.41800000000E+01 0.  1.
        -11    1    4    4    0    0 -0.98798448797E+01 -0.18380204524E+02 -0.73895385400E+02  0.76785227984E+02  0.00000000000E+00 0. -1.
         11    1    4    4    0    0 -0.62322144647E+01 -0.13258431920E+03 -0.62020547204E+02  0.14650594005E+03  0.00000000000E+00 0.  1.
</event>
<event>
 8    1  0.6849590E-009  0.1136017E+03  0.7561462E-02  0.1254042E+00
          1   -1    0    0  501    0  0.00000000000E+00  0.00000000000E+00  0.77673796974E+03  0.77673796974E+03  0.00000000000E+00 0. -1.
         -1   -1    0    0    0  501 -0.00000000000E+00 -0.00000000000E+00 -0.19717146056E+02  0.19717146056E+02  0.00000000000E+00 0.  1.
         25    2    1    2    0    0 -0.65333798762E+01  0.46169232299E+02  0.30633617983E+03  0.33416816502E+03  0.12510885010E+03 0.  0.
         23    2    1    2    0    0  0.65333798762E+01 -0.46169232299E+02  0.45068464385E+03  0.46228695078E+03  0.91751259358E+02 0.  0.
          5    1    3    3  502    0  0.29564480312E+02  0.73236221745E+02  0.24797502838E+03  0.26028194285E+03  0.41800000000E+01 0.  1.
         -5    1    3    3    0  502 -0.36097860189E+02 -0.27066989446E+02  0.58361151452E+02  0.73886222171E+02  0.41800000000E+01 0.  1.
        -11    1    4    4    0    0 -0.36978321864E+02 -0.46346323476E+02  0.24893574729E+03  0.25589916817E+03  0.00000000000E+00 0.  1.
         11    1    4    4    0    0  0.43511701740E+02  0.17709117728E+00  0.20174889656E+03  0.20638778261E+03  0.00000000000E+00 0. -1.
</event>
<event>
 8    1  0.6849590E-009  0.1024210E+03  0.7561462E-02  0.1275286E+00
          1   -1    0    0  501    0  0.00000000000E+00  0.00000000000E+00  0.32021799056E+03  0.32021799056E+03  0.00000000000E+00 0. -1.
         -1   -1    0    0    0  501 -0.00000000000E+00 -0.00000000000E+00 -0.60239403141E+02  0.60239403141E+02  0.00000000000E+00 0.  1.
         25    2    1    2    0    0 -0.14590758321E+02  0.45970219632E+02  0.43520753850E+02  0.14095674830E+03  0.12509435461E+03 0.  0.
         23    2    1    2    0    0  0.14590758321E+02 -0.45970219632E+02  0.21645783357E+03  0.23950064540E+03  0.90445641757E+02 0.  0.
          5    1    3    3  502    0  0.32708858333E+01 -0.42456137572E+02  0.61729110317E+01  0.43229614181E+02  0.41800000000E+01 0. -1.
         -5    1    3    3    0  502 -0.17861644154E+02  0.88426357203E+02  0.37347842819E+02  0.97727134120E+02  0.41800000000E+01 0. -1.
        -11    1    4    4    0    0  0.33526806158E+02 -0.39327829377E+02  0.21294752274E+03  0.21912866616E+03  0.00000000000E+00 0. -1.
         11    1    4    4    0    0 -0.18936047838E+02 -0.66423902550E+01  0.35103108349E+01  0.20371979241E+02  0.00000000000E+00 0.  1.
</event>
<event>
 8    1  0.6849590E-009  0.2004548E+03  0.7561462E-02  0.1149356E+00
         -2   -1    0    0    0  501 -0.00000000000E+00  0.00000000000E+00  0.19914449776E+03  0.19914449776E+03  0.00000000000E+00 0.  1.
          2   -1    0    0  501    0  0.00000000000E+00 -0.00000000000E+00 -0.25271178387E+03  0.25271178387E+03  0.00000000000E+00 0. -1.
         25    2    1    2    0    0 -0.11390509235E+03  0.12956737373E+03  0.65881815754E+02  0.22303327101E+03  0.12506539062E+03 0.  0.
         23    2    1    2    0    0  0.11390509235E+03 -0.12956737373E+03 -0.11944910186E+03  0.22882301063E+03  0.91267781059E+02 0.  0.
          5    1    3    3  502    0 -0.12020484958E+03  0.14763746544E+03  0.70232046192E+02  0.20296807576E+03  0.41800000000E+01 0. -1.
         -5    1    3    3    0  502  0.62997572296E+01 -0.18070091710E+02 -0.43502304384E+01  0.20065195250E+02  0.41800000000E+01 0. -1.
        -11    1    4    4    0    0  0.12961379499E+02 -0.75062055594E+02 -0.24829527671E+02  0.80117507406E+02  0.00000000000E+00 0. -1.
         11    1    4    4    0    0  0.10094371285E+03 -0.54505318138E+02 -0.94619574193E+02  0.14870550322E+03  0.00000000000E+00 0.  1.
</event>
<event>
 8    1  0.6849590E-009  0.1134038E+03  0.7561462E-02  0.1254393E+00
         -1   -1    0    0    0  501 -0.00000000000E+00  0.00000000000E+00  0.19819753999E+02  0.19819753999E+02  0.00000000000E+00 0.  1.
          1   -1    0    0  501    0  0.00000000000E+00 -0.00000000000E+00 -0.77395640182E+03  0.77395640182E+03  0.00000000000E+00 0. -1.
         25    2    1    2    0    0 -0.22798163027E+02  0.50868613845E+02 -0.46831039856E+03  0.48792339184E+03  0.12508890756E+03 0.  0.
         23    2    1    2    0    0  0.22798163027E+02 -0.50868613845E+02 -0.28582624926E+03  0.30585276398E+03  0.93498108833E+02 0.  0.
          5    1    3    3  502    0 -0.20521235857E+02 -0.30298116690E+02 -0.28526388241E+03  0.28763179936E+03  0.41800000000E+01 0. -1.
         -5    1    3    3    0  502 -0.22769271697E+01  0.81166730536E+02 -0.18304651615E+03  0.20029159248E+03  0.41800000000E+01 0. -1.
        -11    1    4    4    0    0 -0.16654491233E+01 -0.74581302883E+02 -0.18777351658E+03  0.20204959289E+03  0.00000000000E+00 0.  1.
         11    1    4    4    0    0  0.24463612150E+02  0.23712689038E+02 -0.98052732684E+02  0.10380317109E+03  0.00000000000E+00 0. -1.
</event>
<event>
 8    1  0.6849590E-009  0.1320208E+03  0.7561462E-02  0.1224488E+00
         -1   -1    0    0    0  501 -0.00000000000E+00  0.00000000000E+00  0.42554326063E+03  0.42554326063E+03  0.00000000000E+00 0.  1.
          1   -1    0    0  501    0  0.00000000000E+00 -0.00000000000E+00 -0.50983922795E+02  0.50983922795E+02  0.00000000000E+00 0. -1.
         25    2    1    2    0    0  0.96626460235E+02 -0.13401796606E+02  0.17646170500E+03  0.23728037416E+03  0.12508781578E+03 0.  0.
         23    2    1    2    0    0 -0.96626460235E+02  0.13401796606E+02  0.19809763283E+03  0.23924680927E+03  0.92087364184E+02 0.  0.
          5    1    3    3  502    0  0.10149221306E+03  0.36777640131E+02  0.11891934002E+03  0.16066283315E+03  0.41800000000E+01 0. -1.
         -5    1    3    3    0  502 -0.48657528254E+01 -0.50179436737E+02  0.57542364981E+02  0.76617541003E+02  0.41800000000E+01 0. -1.
        -11    1    4    4    0    0 -0.23222670367E+02  0.21406454088E+02  0.43201090417E+01  0.31877767138E+02  0.00000000000E+00 0.  1.
         11    1    4    4    0    0 -0.73403789868E+02 -0.80046574821E+01  0.19377752379E+03  0.20736904213E+03  0.00000000000E+00 0. -1.
</event>
<event>
 8    1  0.6849590E-009  0.1616549E+03  0.7561462E-02  0.1186841E+00
         -2   -1    0    0    0  501 -0.00000000000E+00  0.00000000000E+00  0.55092781270E+02  0.55092781270E+02  0.00000000000E+00 0. -1.
          2   -1    0    0  501    0  0.00000000000E+00 -0.00000000000E+00 -0.68359059243E+03  0.68359059243E+03  0.00000000000E+00 0.  1.
         25    2    1    2    0    0  0.25493919308E+02 -0.14914851474E+03 -0.43061705614E+03  0.47325773058E+03  0.12508641472E+03 0.  0.
         23    2    1    2    0    0 -0.25493919308E+02  0.14914851474E+03 -0.19788075502E+03  0.26542564312E+03  0.91644745863E+02 0.  0.
          5    1    3    3  502    0  0.78230140310E+01 -0.15197471015E+03 -0.42852458321E+03  0.45476180896E+03  0.41800000000E+01 0.  1.
         -5    1    3    3    0  502  0.17670905277E+02  0.28261954056E+01 -0.20924729310E+01  0.18495921625E+02  0.41800000000E+01 0.  1.
        -11    1    4    4    0    0 -0.17475823709E+02  0.13720835714E+03 -0.11096165075E+03  0.17732463343E+03  0.00000000000E+00 0. -1.
         11    1    4    4    0    0 -0.80180955989E+01  0.11940157604E+02 -0.86919104274E+02  0.88101009690E+02  0.00000000000E+00 0.  1.
</event>
<event>
 8    1  0.6849590E-009  0.2247888E+03  0.7561462E-02  0.1130362E+00
         -1   -1    0    0    0  501 -0.00000000000E+00  0.00000000000E+00  0.56087523114E+02  0.56087523114E+02  0.00000000000E+00 0.  1.
          1   -1    0    0  501    0  0.00000000000E+00 -0.00000000000E+00 -0.93837311038E+03  0.93837311038E+03  0.00000000000E+00 0. -1.
         25    2    1    2    0    0 -0.11710250034E+03 -0.16423235803E+03 -0.44156947373E+03  0.50131408950E+03  0.12508778194E+03 0.  0.
         23    2    1    2    0    0  0.11710250034E+03  0.16423235803E+03 -0.44071611354E+03  0.49314654400E+03  0.90981086564E+02 0.  0.
          5    1    3    3  502    0 -0.24924749127E+02 -0.13955997843E+03 -0.26356204571E+03  0.29930027571E+03  0.41800000000E+01 0. -1.
         -5    1    3    3    0  502 -0.92177751212E+02 -0.24672379604E+02 -0.17800742801E+03  0.20201381379E+03  0.41800000000E+01 0. -1.
        -11    1    4    4    0    0  0.27385077405E+02  0.27766894235E+01 -0.21119115585E+02  0.34693940562E+02  0.00000000000E+00 0.  1.
         11    1    4    4    0    0  0.89717422934E+02  0.16145566861E+03 -0.41959699795E+03  0.45845260344E+03  0.00000000000E+00 0. -1.
</event>
<event>
 8    1  0.6849590E-009  0.1026890E+03  0.7561462E-02  0.1274741E+00
          1   -1    0    0  501    0  0.00000000000E+00  0.00000000000E+00  0.11708700491E+03  0.11708700491E+03  0.00000000000E+00 0.  1.
         -1   -1    0    0    0  501 -0.00000000000E+00 -0.00000000000E+00 -0.12171261336E+03  0.12171261336E+03  0.00000000000E+00 0. -1.
         25    2    1    2    0    0 -0.32268691235E+02 -0.62147597477E+01  0.33013585206E+02  0.13348250152E+03  0.12509112571E+03 0.  0.
         23    2    1    2    0    0  0.32268691235E+02  0.62147597477E+01 -0.37639193655E+02  0.10531711675E+03  0.92709732549E+02 0.  0.
          5    1    3    3  502    0  0.40678958224E+02 -0.11377347919E+02  0.41964138850E+02  0.59688215230E+02  0.41800000000E+01 0. -1.
         -5    1    3    3    0  502 -0.72947649460E+02  0.51625881714E+01 -0.89505536441E+01  0.73794286289E+02  0.41800000000E+01 0. -1.
        -11    1    4    4    0    0  0.26091907691E+02 -0.37416620982E+02  0.25355212563E+01  0.45686103366E+02  0.00000000000E+00 0.  1.
         11    1    4    4    0    0  0.61767835442E+01  0.43631380730E+02 -0.40174714912E+02  0.59631013387E+02  0.00000000000E+00 0. -1.
</event>
<event>
 8    1  0.6849590E-009  0.1595235E+03  0.7561462E-02  0.1189236E+00
          1   -1    0    0  501    0  0.00000000000E+00  0.00000000000E+00  0.74529104521E+02  0.74529104521E+02  0.00000000000E+00 0. -1.
         -1   -1    0    0    0  501 -0.00000000000E+00 -0.00000000000E+00 -0.38548295820E+03  0.38548295820E+03  0.00000000000E+00 0.  1.
         25    2    1    2    0    0 -0.67009904506E+02  0.10907059847E+03 -0.20673734752E+03  0.27345408331E+03  0.12510028804E+03 0.  0.
         23    2    1    2    0    0  0.67009904506E+02 -0.10907059847E+03 -0.10421650615E+03  0.18655797941E+03  0.86925696858E+02 0.  0.
          5    1    3    3  502    0 -0.37814688530E+02  0.13086810771E+03 -0.18819254607E+03  0.23235816981E+03  0.41800000000E+01 0.  1.
         -5    1    3    3    0  502 -0.29195215976E+02 -0.21797509244E+02 -0.18544801459E+02  0.41095913499E+02  0.41800000000E+01 0.  1.
        -11    1    4    4    0    0  0.39707675178E+01  0.10330126323E+02  0.57051662136E+01  0.12451001006E+02  0.00000000000E+00 0.  1.
         11    1    4    4    0    0  0.63039136988E+02 -0.11940072479E+03 -0.10992167237E+03  0.17410697840E+03  0.00000000000E+00 0. -1.
</event>
<event>
 8    1  0.6849590E-009  0.1003550E+03  0.7561462E-02  0.1279551E+00
         -2   -1    0    0    0  501 -0.00000000000E+00  0.00000000000E+00  0.17848442909E+02  0.17848442909E+02  0.00000000000E+00 0.  1.
          2   -1    0    0  501    0  0.00000000000E+00 -0.00000000000E+00 -0.12298528224E+04  0.12298528224E+04  0.00000000000E+00 0. -1.
         25    2    1    2    0    0 -0.68296980130E+02  0.43085980736E+02 -0.90396855010E+03  0.91614792311E+03  0.12508796192E+03 0.  0.
         23    2    1    2    0    0  0.68296980130E+02 -0.43085980736E+02 -0.30803582943E+03  0.33155334224E+03  0.92307460729E+02 0.  0.
          5    1    3    3  502    0  0.52643142718E+01 -0.20938509373E+02 -0.50259122541E+03  0.50307210859E+03  0.41800000000E+01 0. -1.
         -5    1    3    3    0  502 -0.73561294402E+02  0.64024490110E+02 -0.40137732469E+03  0.41307581453E+03  0.41800000000E+01 0. -1.
        -11    1    4    4    0    0  0.25872993933E+02 -0.12037252809E+02 -0.12118990684E+02  0.31002858020E+02  0.00000000000E+00 0.  1.
         11    1    4    4    0    0  0.42423986197E+02 -0.31048727927E+02 -0.29591683875E+03  0.30055048422E+03  0.00000000000E+00 0. -1.
</event>
<event>
 8    1  0.6849590E-009  0.1075096E+03  0.7561462E-02  0.1265252E+00
          1   -1    0    0  501    0  0.00000000000E+00  0.00000000000E+00  0.99679751150E+02  0.99679751150E+02  0.00000000000E+00 0.  1.
         -1   -1    0    0    0  501 -0.00000000000E+00 -0.00000000000E+00 -0.13372724667E+03  0.13372724667E+03  0.00000000000E+00 0. -1.
         25    2    1    2    0    0  0.25276464969E+01  0.31133028812E+02 -0.43334656527E+02  0.13599899339E+03  0.12506869819E+03 0.  0.
         23    2    1    2    0    0 -0.25276464969E+01 -0.31133028812E+02  0.92871610080E+01  0.97408004427E+02  0.91795498185E+02 0.  0.
          5    1    3    3  502    0 -0.55695897912E+02  0.12188557150E+02  0.56923145218E+01  0.57449706825E+02  0.41800000000E+01 0.  1.
         -5    1    3    3    0  502  0.58223544409E+02  0.18944471662E+02 -0.49026971049E+02  0.78549286568E+02  0.41800000000E+01 0.  1.
        -11    1    4    4    0    0 -0.44150912178E+02 -0.32520790314E+02  0.10080199518E+02  0.55754060580E+02  0.00000000000E+00 0.  1.
         11    1    4    4    0    0  0.41623265681E+02  0.13877615019E+01 -0.79303850975E+00  0.41653943847E+02  0.00000000000E+00 0. -1.
</event>
<event>
 8    1  0.6849590E-009  0.1003894E+03  0.7561462E-02  0.1279479E+00
          2   -1    0    0  501    0  0.00000000000E+00  0.00000000000E+00  0.41590038344E+03  0.41590038344E+03  0.00000000000E+00 0. -1.
         -2   -1    0    0    0  501 -0.00000000000E+00 -0.00000000000E+00 -0.40130743438E+02  0.40130743438E+02  0.00000000000E+00 0.  1.
         25    2    1    2    0    0 -0.63654937494E+02 -0.10951334243E+02  0.15565681010E+03  0.20987640078E+03  0.12508868169E+03 0.  0.
         23    2    1    2    0    0  0.63654937494E+02  0.10951334243E+02  0.22011282990E+03  0.24615472610E+03  0.89278264446E+02 0.  0.
          5    1    3    3  502    0 -0.39734768293E+02  0.40880352511E+02  0.13895248699E+03  0.15025086047E+03  0.41800000000E+01 0. -1.
         -5    1    3    3    0  502 -0.23920169201E+02 -0.51831686754E+02  0.16704323107E+02  0.59625540306E+02  0.41800000000E+01 0. -1.
        -11    1    4    4    0    0  0.38477598407E+01 -0.19073589784E+02  0.39297595269E+01  0.19850695025E+02  0.00000000000E+00 0.  1.
         11    1    4    4    0    0  0.59807177653E+02  0.30024924027E+02  0.21618307038E+03  0.22630403107E+03  0.00000000000E+00 0. -1.
</event>
<event>
 8    1  0.6849590E-009  0.1121735E+03  0.7561462E-02  0.1256597E+00
         -2   -1    0    0    0  501 -0.00000000000E+00  0.00000000000E+00  0.66158225984E+02  0.66158225984E+02  0.00000000000E+00 0.  1.
          2   -1    0    0  501    0  0.00000000000E+00 -0.00000000000E+00 -0.28644722112E+03  0.28644722112E+03  0.00000000000E+00 0. -1.
         25    2    1    2    0    0  0.68191044757E+02 -0.18120217240E+02 -0.17925545084E+03  0.22969048143E+03  0.12508732848E+03 0.  0.
         23    2    1    2    0    0 -0.68191044757E+02  0.18120217240E+02 -0.41033544303E+02  0.12291496568E+03  0.91901992210E+02 0.  0.
          5    1    3    3  502    0 -0.11349913491E+02  0.35876865264E+02 -0.93196422026E+02  0.10059331725E+03  0.41800000000E+01 0. -1.
         -5    1    3    3    0  502  0.79540958248E+02 -0.53997082504E+02 -0.86059028809E+02  0.12909716417E+03  0.41800000000E+01 0. -1.
        -11    1    4    4    0    0  0.74698754426E+00  0.21236106144E+02 -0.49037929241E+02  0.53443883642E+02  0.00000000000E+00 0. -1.
         11    1    4    4    0    0 -0.68938032301E+02 -0.31158889042E+01  0.80043849381E+01  0.69471082037E+02  0.00000000000E+00 0.  1.
</event>
<event>
 8    1  0.6849590E-009  0.1577537E+03  0.7561462E-02  0.1191256E+00
          2   -1    0    0  501    0  0.00000000000E+00  0.00000000000E+00  0.68839272795E+02  0.68839272795E+02  0.00000000000E+00 0. -1.
         -2   -1    0    0    0  501 -0.00000000000E+00 -0.00000000000E+00 -0.42003629926E+03  0.42003629926E+03  0.00000000000E+00 0.  1.
         25    2    1    2    0    0  0.58953181611E+01  0.12972787242E+03 -0.16387006207E+03  0.24365032950E+03  0.12509200679E+03 0.  0.
         23    2    1    2    0    0 -0.58953181611E+01 -0.12972787242E+03 -0.18732696440E+03  0.24522524256E+03  0.90443088953E+02 0.  0.
          5    1    3    3  502    0  0.47297800767E+02  0.13023570809E+03 -0.12306286807E+03  0.18536548631E+03  0.41800000000E+01 0.  1.
         -5    1    3    3    0  502 -0.41402482606E+02 -0.50783566341E+00 -0.40807193996E+02  0.58284843183E+02  0.41800000000E+01 0.  1.
        -11    1    4    4    0    0 -0.21179597564E+02 -0.53798308167E+02 -0.14687508618E+03  0.15784525414E+03  0.00000000000E+00 0.  1.
         11    1    4    4    0    0  0.15284279403E+02 -0.75929564255E+02 -0.40451878217E+02  0.87379988419E+02  0.00000000000E+00 0. -1.
</event>
<event>
 8    1  0.6849590E-009  0.1193852E+03  0.7561462E-02  0.1244115E+00
          2   -1    0    0  501    0  0.00000000000E+00  0.00000000000E+00  0.33034563671E+03  0.33034563671E+03  0.00000000000E+00 0. -1.
         -2   -1    0    0    0  501 -0.00000000000E+00 -0.00000000000E+00 -0.54597141871E+02  0.54597141871E+02  0.00000000000E+00 0.  1.
         25    2    1    2    0    0 -0.32355473790E+02 -0.56325851677E+02  0.22287688997E+03  0.26370666997E+03  0.12509045309E+03 0.  0.
         23    2    1    2    0    0  0.32355473790E+02  0.56325851677E+02  0.52871604866E+02  0.12123610861E+03  0.87654487492E+02 0.  0.
          5    1    3    3  502    0  0.24574275555E+02 -0.70663963872E+02  0.16472922527E+03  0.18097093929E+03  0.41800000000E+01 0. -1.
         -5    1    3    3    0  502 -0.56929749345E+02  0.14338112195E+02  0.58147664706E+02  0.82735730688E+02  0.41800000000E+01 0. -1.
        -11    1    4    4    0    0 -0.18627861325E+02  0.50307177860E+02  0.43466091641E+02  0.69044264674E+02  0.00000000000E+00 0. -1.
         11    1    4    4    0    0  0.50983335115E+02  0.60186738172E+01  0.94055132247E+01  0.52191843932E+02  0.00000000000E+00 0.  1.
</event>
<event>
 8    1  0.6849590E-009  0.1778740E+03  0.7561462E-02  0.1169877E+00
          2   -1    0    0  501    0  0.00000000000E+00  0.00000000000E+00  0.14679536929E+03  0.14679536929E+03  0.00000000000E+00 0.  1.
         -2   -1    0    0    0  501 -0.00000000000E+00 -0.00000000000E+00 -0.29043815189E+03  0.29043815189E+03  0.00000000000E+00 0. -1.
         25    2    1    2    0    0 -0.14450137378E+03  0.87446499397E+02 -0.12412002337E+03  0.24408844761E+03  0.12508338329E+03 0.  0.
         23    2    1    2    0    0  0.14450137378E+03 -0.87446499397E+02 -0.19522759233E+02  0.19314507357E+03  0.91631566813E+02 0.  0.
          5    1    3    3  502    0 -0.15312544766E+03  0.73454453581E+02 -0.63863905181E+02  0.18149112997E+03  0.41800000000E+01 0. -1.
         -5    1    3    3    0  502  0.86240738835E+01  0.13992045816E+02 -0.60256118193E+02  0.62597317644E+02  0.41800000000E+01 0. -1.
        -11    1    4    4    0    0  0.81442569790E+02 -0.49949123886E+02  0.34988898703E+02  0.10174492706E+03  0.00000000000E+00 0.  1.
         11    1    4    4    0    0  0.63058803987E+02 -0.37497375511E+02 -0.54511657936E+02  0.91400146506E+02  0.00000000000E+00 0. -1.
</event>
<event>
 8    1  0.6849590E-009  0.1170902E+03  0.7561462E-02  0.1247976E+00
          2   -1    0    0  501    0  0.00000000000E+00  0.00000000000E+00  0.48063851092E+03  0.48063851092E+03  0.00000000000E+00 0. -1.
         -2   -1    0    0    0  501 -0.00000000000E+00 -0.00000000000E+00 -0.30507080231E+02  0.30507080231E+02  0.00000000000E+00 0.  1.
         25    2    1    2    0    0 -0.54372792286E+02 -0.11427666621E+02  0.25485455336E+03  0.28928322571E+03  0.12508776602E+03 0.  0.
         23    2    1    2    0    0  0.54372792286E+02  0.11427666621E+02  0.19527687733E+03  0.22186236543E+03  0.89458695891E+02 0.  0.
          5    1    3    3  502    0  0.39181618296E+02 -0.13523354944E+02  0.59531325436E+02  0.72660384319E+02  0.41800000000E+01 0. -1.
         -5    1    3    3    0  502 -0.93554410582E+02  0.20956883233E+01  0.19532322792E+03  0.21662284140E+03  0.41800000000E+01 0. -1.
        -11    1    4    4    0    0  0.76210556187E+02  0.11055182557E+02  0.17823419807E+03  0.19415894339E+03  0.00000000000E+00 0. -1.
         11    1    4    4    0    0 -0.21837763902E+02  0.37248406394E+00  0.17042679255E+02  0.27703422041E+02  0.00000000000E+00 0.  1.
</event>
<event>
 8    1  0.6849590E-009  0.1539401E+03  0.7561462E-02  0.1195713E+00
          2   -1    0    0  501    0  0.00000000000E+00  0.00000000000E+00  0.34361012662E+03  0.34361012662E+03  0.00000000000E+00 0. -1.
         -2   -1    0    0    0  501 -0.00000000000E+00 -0.00000000000E+00 -0.11409187891E+03  0.11409187891E+03  0.00000000000E+00 0.  1.
         25    2    1    2    0    0  0.52187661554E+02  0.95995505888E+02 -0.23152135129E+02  0.16769824154E+03  0.12509192494E+03 0.  0.
         23    2    1    2    0    0 -0.52187661554E+02 -0.95995505888E+02  0.25267038284E+03  0.29000376398E+03  0.91220455980E+02 0.  0.
          5    1    3    3  502    0  0.28744280444E+02 -0.27655372317E+02 -0.75734214199E+01  0.40815222506E+02  0.41800000000E+01 0.  1.
         -5    1    3    3    0  502  0.23443381110E+02  0.12365087821E+03 -0.15578713709E+02  0.12688301904E+03  0.41800000000E+01 0.  1.
        -11    1    4    4    0    0 -0.57686570300E+02 -0.13594905840E+02  0.93894998793E+02  0.11103527663E+03  0.00000000000E+00 0. -1.
         11    1    4    4    0    0  0.54989087454E+01 -0.82400600048E+02  0.15877538405E+03  0.17896848735E+03  0.00000000000E+00 0.  1.
</event>
<event>
 8    1  0.6849590E-009  0.1888599E+03  0.7561462E-02  0.1159494E+00
          2   -1    0    0  501    0  0.00000000000E+00  0.00000000000E+00  0.96271026480E+03  0.96271026480E+03  0.00000000000E+00 0. -1.
         -2   -1    0    0    0  501 -0.00000000000E+00 -0.00000000000E+00 -0.91906394445E+02  0.91906394445E+02  0.00000000000E+00 0.  1.
         25    2    1    2    0    0 -0.54723319687E+02 -0.16979069660E+03  0.81944160942E+03  0.84791232648E+03  0.12508892747E+03 0.  0.
         23    2    1    2    0    0  0.54723319687E+02  0.16979069660E+03  0.51362260927E+02  0.20670433276E+03  0.90912468693E+02 0.  0.
          5    1    3    3  502    0 -0.33713515136E+02 -0.66121871384E+02  0.12489020853E+03  0.14534008244E+03  0.41800000000E+01 0. -1.
         -5    1    3    3    0  502 -0.21009804551E+02 -0.10366882522E+03  0.69455140090E+03  0.70257224404E+03  0.41800000000E+01 0. -1.
        -11    1    4    4    0    0  0.65674065500E+02  0.65832152412E+02  0.73368597050E+01  0.93277996767E+02  0.00000000000E+00 0.  1.
         11    1    4    4    0    0 -0.10950745813E+02  0.10395854419E+03  0.44025401222E+02  0.11342633599E+03  0.00000000000E+00 0. -1.
</event>
<event>
 8    1  0.6849590E-009  0.1590454E+03  0.7561462E-02  0.1189779E+00
         -2   -1    0    0    0  501 -0.00000000000E+00  0.00000000000E+00  0.86759927726E+02  0.86759927726E+02  0.00000000000E+00 0.  1.
          2   -1    0    0  501    0  0.00000000000E+00 -0.00000000000E+00 -0.51166446373E+03  0.51166446373E+03  0.00000000000E+00 0. -1.
         25    2    1    2    0    0  0.33501677434E+02  0.15300062986E+03 -0.93847032198E+02  0.22132748760E+03  0.12508811369E+03 0.  0.
         23    2    1    2    0    0 -0.33501677434E+02 -0.15300062986E+03 -0.33105750380E+03  0.37709690385E+03  0.89841242972E+02 0.  0.
          5    1    3    3  502    0  0.20783580457E+02  0.84193654744E+02 -0.11860467316E+03  0.14698663072E+03  0.41800000000E+01 0.  1.
         -5    1    3    3    0  502  0.12718096978E+02  0.68806975121E+02  0.24757640960E+02  0.74340856882E+02  0.41800000000E+01 0.  1.
        -11    1    4    4    0    0  0.16788938991E+01 -0.81183155200E+02 -0.81532315008E+02  0.11506972566E+03  0.00000000000E+00 0.  1.
         11    1    4    4    0    0 -0.35180571333E+02 -0.71817474664E+02 -0.24952518879E+03  0.26202717819E+03  0.00000000000E+00 0. -1.
</event>
<event>
 8    1  0.6849590E-009  0.1002661E+03  0.7561462E-02  0.1279737E+00
         -2   -1    0    0    0  501 -0.00000000000E+00  0.00000000000E+00  0.27333603798E+03  0.27333603798E+03  0.00000000000E+00 0.  1.
          2   -1    0    0  501    0  0.00000000000E+00 -0.00000000000E+00 -0.71481263664E+02  0.71481263664E+02  0.00000000000E+00 0. -1.
         25    2    1    2    0    0  0.72804637148E+02 -0.45390875879E+02  0.13819364776E+03  0.20519706224E+03  0.12508998069E+03 0.  0.
         23    2    1    2    0    0 -0.72804637148E+02  0.45390875879E+02  0.63661126549E+02  0.13962023940E+03  0.89890074046E+02 0.  0.
          5    1    3    3  502    0 -0.49383343317E+01 -0.35655378764E+02 -0.99321051178E+01  0.37574090712E+02  0.41800000000E+01 0. -1.
         -5    1    3    3    0  502  0.77742971480E+02 -0.97354971152E+01  0.14812575288E+03  0.16762297153E+03  0.41800000000E+01 0. -1.
        -11    1    4    4    0    0 -0.37296633043E+02  0.21754587224E+02  0.82402274329E+02  0.93029219691E+02  0.00000000000E+00 0.  1.
         11    1    4    4    0    0 -0.35508004106E+02  0.23636288655E+02 -0.18741147781E+02  0.46591019704E+02  0.00000000000E+00 0. -1.
</event>
<event>
 8    1  0.6849590E-009  0.8241026E+02  0.7561462E-02  0.1322347E+00
         -1   -1    0    0    0  501 -0.00000000000E+00  0.00000000000E+00  0.16222042310E+02  0.16222042310E+02  0.00000000000E+00 0.  1.
          1   -1    0    0  501    0  0.00000000000E+00 -0.00000000000E+00 -0.10345420912E+04  0.10345420912E+04  0.00000000000E+00 0. -1.
         25    2    1    2    0    0 -0.14624104844E+02 -0.47530547935E+02 -0.65175976217E+03  0.66551596569E+03  0.12509074932E+03 0.  0.
         23    2    1    2    0    0  0.14624104844E+02  0.47530547935E+02 -0.36656028672E+03  0.38524816782E+03  0.10759502583E+03 0.  0.
          5    1    3    3  502    0  0.25148766428E+02 -0.35662924296E+02 -0.58602193464E+03  0.58765932725E+03  0.41800000000E+01 0. -1.
         -5    1    3    3    0  502 -0.39772871272E+02 -0.11867623639E+02 -0.65737827529E+02  0.77856638434E+02  0.41800000000E+01 0. -1.
        -11    1    4    4    0    0  0.94819745191E+01  0.62615574580E+02 -0.36355539333E+03  0.36903000154E+03  0.00000000000E+00 0. -1.
         11    1    4    4    0    0  0.51421303251E+01 -0.15085026645E+02 -0.30048933866E+01  0.16218166278E+02  0.00000000000E+00 0.  1.
</event>
<event>
 8    1  0.6849590E-009  0.9292469E+02  0.7561462E-02  0.1295920E+00
          3   -1    0    0  501    0  0.00000000000E+00  0.00000000000E+00  0.88761782487E+02  0.88761782487E+02  0.00000000000E+00 0. -1.
         -3   -1    0    0    0  501 -0.00000000000E+00 -0.00000000000E+00 -0.16272675403E+03  0.16272675403E+03  0.00000000000E+00 0.  1.
         25    2    1    2    0    0 -0.89612531959E+01  0.48038758458E+02 -0.60019548658E+02  0.14709739619E+03  0.12508905376E+03 0.  0.
         23    2    1    2    0    0  0.89612531959E+01 -0.48038758458E+02 -0.13945422880E+02  0.10439114032E+03  0.91186671096E+02 0.  0.
          5    1    3    3  502    0  0.31826114188E+02  0.22247365659E+02  0.27017438986E+02  0.47489590779E+02  0.41800000000E+01 0. -1.
         -5    1    3    3    0  502 -0.40787367384E+02  0.25791392800E+02 -0.87036987644E+02  0.99607805411E+02  0.41800000000E+01 0. -1.
        -11    1    4    4    0    0 -0.37615855279E+02 -0.31054861362E+02  0.92636020759E+01  0.49650491498E+02  0.00000000000E+00 0. -1.
         11    1    4    4    0    0  0.46577108475E+02 -0.16983897097E+02 -0.23209024956E+02  0.54740648826E+02  0.00000000000E+00 0.  1.
</event>
<event>
 8    1  0.6849590E-009  0.9510355E+02  0.7561462E-02  0.1290943E+00
         -1   -1    0    0    0  501 -0.00000000000E+00  0.00000000000E+00  0.12534273913E+03  0.12534273913E+03  0.00000000000E+00 0.  1.
          1   -1    0    0  501    0  0.00000000000E+00 -0.00000000000E+00 -0.14833121755E+03  0.14833121755E+03  0.00000000000E+00 0. -1.
         25    2    1    2    0    0 -0.18710000817E+02  0.76431743307E+02 -0.42029244639E+02  0.15364023148E+03  0.12508792032E+03 0.  0.
         23    2    1    2    0    0  0.18710000817E+02 -0.76431743307E+02  0.19040766218E+02  0.12003372519E+03  0.88620928057E+02 0.  0.
          5    1    3    3  502    0  0.14108550438E+02 -0.34252430316E+01  0.34834412997E+02  0.37969622254E+02  0.41800000000E+01 0. -1.
         -5    1    3    3    0  502 -0.32818551256E+02  0.79856986339E+02 -0.76863657636E+02  0.11567060923E+03  0.41800000000E+01 0. -1.
        -11    1    4    4    0    0  0.31760030322E+02 -0.57044002198E+02  0.49291454224E+02  0.81806877293E+02  0.00000000000E+00 0.  1.
         11    1    4    4    0    0 -0.13050029505E+02 -0.19387741109E+02 -0.30250688007E+02  0.38226847899E+02  0.00000000000E+00 0. -1.
</event>
<event>
 8    1  0.6849590E-009  0.1208423E+03  0.7561462E-02  0.1241714E+00
          2   -1    0    0  501    0  0.00000000000E+00  0.00000000000E+00  0.17177393521E+03  0.17177393521E+03  0.00000000000E+00 0. -1.
         -2   -1    0    0    0  501 -0.00000000000E+00 -0.00000000000E+00 -0.94778421070E+02  0.94778421070E+02  0.00000000000E+00 0.  1.
         25    2    1    2    0    0 -0.55825391846E+02 -0.36905100375E+02  0.41955740976E+02  0.14793939660E+03  0.12508924837E+03 0.  0.
         23    2    1    2    0    0  0.55825391846E+02  0.36905100375E+02  0.35039773169E+02  0.11861295968E+03  0.91448278786E+02 0.  0.
          5    1    3    3  502    0 -0.86299152440E+02 -0.86139102989E+01 -0.25788575862E+01  0.86866944628E+02  0.41800000000E+01 0. -1.
         -5    1    3    3    0  502  0.30473760595E+02 -0.28291190076E+02  0.44534598562E+02  0.61072451971E+02  0.41800000000E+01 0. -1.
        -11    1    4    4    0    0  0.79087915826E+02  0.13810002305E+02  0.28455525089E+02  0.85178233730E+02  0.00000000000E+00 0. -1.
         11    1    4    4    0    0 -0.23262523980E+02  0.23095098071E+02  0.65842480799E+01  0.33434725954E+02  0.00000000000E+00 0.  1.
</event>
<event>
 8    1  0.6849590E-009  0.1772529E+03  0.7561462E-02  0.1170488E+00
         -2   -1    0    0    0  501 -0.00000000000E+00  0.00000000000E+00  0.24492727993E+02  0.24492727993E+02  0.00000000000E+00 0. -1.
          2   -1    0    0  501    0  0.00000000000E+00 -0.00000000000E+00 -0.15480016366E+04  0.15480016366E+04  0.00000000000E+00 0.  1.
         25    2    1    2    0    0 -0.11849523160E+03  0.10806831374E+03 -0.74852181061E+03  0.77566247093E+03  0.12508991770E+03 0.  0.
         23    2    1    2    0    0  0.11849523160E+03 -0.10806831374E+03 -0.77498709803E+03  0.79683189369E+03  0.92823404078E+02 0.  0.
          5    1    3    3  502    0  0.35774735037E+01  0.42063640502E+02 -0.37105592151E+03  0.37347304783E+03  0.41800000000E+01 0. -1.
         -5    1    3    3    0  502 -0.12207270511E+03  0.66004673238E+02 -0.37746588910E+03  0.40218942310E+03  0.41800000000E+01 0. -1.
        -11    1    4    4    0    0  0.15451560174E+02 -0.55416710251E+02 -0.13953413016E+03  0.15092891031E+03  0.00000000000E+00 0. -1.
         11    1    4    4    0    0  0.10304367143E+03 -0.52651603489E+02 -0.63545296787E+03  0.64590298338E+03  0.00000000000E+00 0.  1.
</event>
<event>
 8    1  0.6849590E-009  0.1112244E+03  0.7561462E-02  0.1258319E+00
         -2   -1    0    0    0  501 -0.00000000000E+00  0.00000000000E+00  0.11229198804E+04  0.11229198804E+04  0.00000000000E+00 0.  1.
          2   -1    0    0  501    0  0.00000000000E+00 -0.00000000000E+00 -0.11162371730E+02  0.11162371730E+02  0.00000000000E+00 0. -1.
         25    2    1    2    0    0  0.21521332953E+02 -0.20513998236E+02  0.66572474273E+03  0.67802692223E+03  0.12508829797E+03 0.  0.
         23    2    1    2    0    0 -0.21521332953E+02  0.20513998236E+02  0.44603276590E+03  0.45605532986E+03  0.90317460887E+02 0.  0.
          5    1    3    3  502    0  0.57155161589E+02 -0.54121664295E+02  0.37778810832E+03  0.38592381921E+03  0.41800000000E+01 0. -1.
         -5    1    3    3    0  502 -0.35633828635E+02  0.33607666058E+02  0.28793663441E+03  0.29210310302E+03  0.41800000000E+01 0. -1.
        -11    1    4    4    0    0 -0.65286346584E+00  0.54542333739E+02  0.23138348378E+03  0.23772591144E+03  0.00000000000E+00 0. -1.
         11    1    4    4    0    0 -0.20868469488E+02 -0.34028335503E+02  0.21464928212E+03  0.21832941843E+03  0.00000000000E+00 0.  1.
</event>
<event>
 8    1  0.6849590E-009  0.1850216E+03  0.7561462E-02  0.1163030E+00
          2   -1    0    0  501    0  0.00000000000E+00  0.00000000000E+00  0.39108083843E+03  0.39108083843E+03  0.00000000000E+00 0. -1.
         -2   -1    0    0    0  501 -0.00000000000E+00 -0.00000000000E+00 -0.91935944361E+02  0.91935944361E+02  0.00000000000E+00 0.  1.
         25    2    1    2    0    0 -0.55859425182E+01 -0.14909653290E+03  0.19317950738E+03  0.27427678751E+03  0.12509378570E+03 0.  0.
         23    2    1    2    0    0  0.55859425182E+01  0.14909653290E+03  0.10596538669E+03  0.20873999528E+03  0.10041286559E+03 0.  0.
          5    1    3    3  502    0  0.56456771236E+02 -0.10108877795E+03  0.10780806644E+03  0.15826041715E+03  0.41800000000E+01 0.  1.
         -5    1    3    3    0  502 -0.62042713754E+02 -0.48007754946E+02  0.85371440941E+02  0.11601637037E+03  0.41800000000E+01 0.  1.
        -11    1    4    4    0    0 -0.38601340649E+02  0.30927566438E+02  0.51248982173E+02  0.71225248609E+02  0.00000000000E+00 0. -1.
         11    1    4    4    0    0  0.44187283167E+02  0.11816896646E+03  0.54716404520E+02  0.13751474667E+03  0.00000000000E+00 0.  1.
</event>
<event>
 8    1  0.6849590E-009  0.1015249E+03  0.7561462E-02  0.1277122E+00
         -2   -1    0    0    0  501 -0.00000000000E+00  0.00000000000E+00  0.67807643133E+02  0.67807643133E+02  0.00000000000E+00 0.  1.
          2   -1    0    0  501    0  0.00000000000E+00 -0.00000000000E+00 -0.22510834007E+03  0.22510834007E+03  0.00000000000E+00 0. -1.
         25    2    1    2    0    0  0.38466366458E+02 -0.14397637848E+02 -0.14679444806E+03  0.19718827922E+03  0.12509058380E+03 0.  0.
         23    2    1    2    0    0 -0.38466366458E+02  0.14397637848E+02 -0.10506248880E+02  0.95727703991E+02  0.85828076536E+02 0.  0.
          5    1    3    3  502    0  0.77010479720E+02 -0.37179292648E+02 -0.10783363994E+03  0.13768979661E+03  0.41800000000E+01 0. -1.
         -5    1    3    3    0  502 -0.38544113263E+02  0.22781654800E+02 -0.38960808124E+02  0.59498482605E+02  0.41800000000E+01 0. -1.
        -11    1    4    4    0    0  0.13532445529E+02  0.15341185543E+02 -0.33190618393E+02  0.38988411165E+02  0.00000000000E+00 0. -1.
         11    1    4    4    0    0 -0.51998811986E+02 -0.94354769453E+00  0.22684369513E+02  0.56739292826E+02  0.00000000000E+00 0.  1.
</event>
<event>
 8    1  0.6849590E-009  0.1868141E+03  0.7561462E-02  0.1161367E+00
          1   -1    0    0  501    0  0.00000000000E+00  0.00000000000E+00  0.51389539488E+03  0.51389539488E+03  0.00000000000E+00 0. -1.
         -1   -1    0    0    0  501 -0.00000000000E+00 -0.00000000000E+00 -0.87117555826E+02  0.87117555826E+02  0.00000000000E+00 0.  1.
         25    2    1    2    0    0 -0.13547691244E+03  0.11762170596E+03  0.25882363796E+03  0.33886094666E+03  0.12509278990E+03 0.  0.
         23    2    1    2    0    0  0.13547691244E+03 -0.11762170596E+03  0.16795420109E+03  0.26215200405E+03  0.91248013928E+02 0.  0.
          5    1    3    3  502    0 -0.10551240750E+03  0.50662891691E+02  0.70477437706E+02  0.13668993510E+03  0.41800000000E+01 0.  1.
         -5    1    3    3    0  502 -0.29964504938E+02  0.66958814266E+02  0.18834620025E+03  0.20217101156E+03  0.41800000000E+01 0.  1.
        -11    1    4    4    0    0  0.20354710791E+02 -0.29943775780E+01 -0.85359674261E+01  0.22274274138E+02  0.00000000000E+00 0.  1.
         11    1    4    4    0    0  0.11512220165E+03 -0.11462732838E+03  0.17649016852E+03  0.23987772991E+03  0.00000000000E+00 0. -1.
</event>
<event>
 8    1  0.6849590E-009  0.1429127E+03  0.7561462E-02  0.1209463E+00
          2   -1    0    0  501    0  0.00000000000E+00  0.00000000000E+00  0.32877562942E+03  0.32877562942E+03  0.00000000000E+00 0. -1.
         -2   -1    0    0    0  501 -0.00000000000E+00 -0.00000000000E+00 -0.70863475406E+02  0.70863475406E+02  0.00000000000E+00 0.  1.
         25    2    1    2    0    0 -0.22373765771E+02  0.10070017191E+03  0.17329946308E+03  0.23732188438E+03  0.12509141810E+03 0.  0.
         23    2    1    2    0    0  0.22373765771E+02 -0.10070017191E+03  0.84612690929E+02  0.16231722045E+03  0.92447079837E+02 0.  0.
          5    1    3    3  502    0 -0.16636856556E+01 -0.29677047310E+02  0.34284152088E+02  0.45567208291E+02  0.41800000000E+01 0. -1.
         -5    1    3    3    0  502 -0.20710080115E+02  0.13037721922E+03  0.13901531100E+03  0.19175467609E+03  0.41800000000E+01 0. -1.
        -11    1    4    4    0    0 -0.69370741322E+01 -0.93224404504E+02  0.92020436182E+02  0.13117420961E+03  0.00000000000E+00 0. -1.
         11    1    4    4    0    0  0.29310839903E+02 -0.74757674053E+01 -0.74077452528E+01  0.31143010834E+02  0.00000000000E+00 0.  1.
</event>
<event>
 8    1  0.6849590E-009  0.8754031E+02  0.7561462E-02  0.1308920E+00
         -1   -1    0    0    0  501 -0.00000000000E+00  0.00000000000E+00  0.61393202481E+02  0.61393202481E+02  0.00000000000E+00 0.  1.
          1   -1    0    0  501    0  0.00000000000E+00 -0.00000000000E+00 -0.28267521631E+03  0.28267521631E+03  0.00000000000E+00 0. -1.
         25    2    1    2    0    0  0.73185737184E+02  0.65223948413E+01 -0.13749710190E+03  0.19987844114E+03  0.12508894612E+03 0.  0.
         23    2    1    2    0    0 -0.73185737184E+02 -0.65223948413E+01 -0.83784911935E+02  0.14418997765E+03  0.91499423083E+02 0.  0.
          5    1    3    3  502    0  0.40370392438E+01 -0.22154639347E+02 -0.12094833202E+03  0.12309791691E+03  0.41800000000E+01 0.  1.
         -5    1    3    3    0  502  0.69148697941E+02  0.28677034189E+02 -0.16548769878E+02  0.76780524231E+02  0.41800000000E+01 0.  1.
        -11    1    4    4    0    0 -0.39481871236E+02  0.83599167495E+01 -0.96990317940E+02  0.10505154991E+03  0.00000000000E+00 0. -1.
         11    1    4    4    0    0 -0.33703865948E+02 -0.14882311591E+02  0.13205406004E+02  0.39138427739E+02  0.00000000000E+00 0.  1.
</event>
<event>
 8    1  0.6849590E-009  0.1103440E+03  0.7561462E-02  0.1259934E+00
         -1   -1    0    0    0  501 -0.00000000000E+00  0.00000000000E+00  0.34645839577E+02  0.34645839577E+02  0.00000000000E+00 0.  1.
          1   -1    0    0  501    0  0.00000000000E+00 -0.00000000000E+00 -0.52621333473E+03  0.52621333473E+03  0.00000000000E+00 0. -1.
         25    2    1    2    0    0  0.78356365696E+02 -0.53214991841E+01 -0.25332291563E+03  0.29323586393E+03  0.12508690544E+03 0.  0.
         23    2    1    2    0    0 -0.78356365696E+02  0.53214991841E+01 -0.23824457952E+03  0.26762331037E+03  0.93240110398E+02 0.  0.
          5    1    3    3  502    0  0.87660102082E+02 -0.85812347444E+01 -0.26386538383E+03  0.27820917360E+03  0.41800000000E+01 0.  1.
         -5    1    3    3    0  502 -0.93037363862E+01  0.32597355603E+01  0.10542468201E+02  0.15026690336E+02  0.41800000000E+01 0.  1.
        -11    1    4    4    0    0 -0.61302266527E+02 -0.40121185538E+02 -0.13777523910E+03  0.15604388459E+03  0.00000000000E+00 0.  1.
         11    1    4    4    0    0 -0.17054099169E+02  0.45442684722E+02 -0.10046934042E+03  0.11157942578E+03  0.00000000000E+00 0. -1.
</event>
<event>
 8    1  0.6849590E-009  0.7978304E+02  0.7561462E-02  0.1329668E+00
         -2   -1    0    0    0  501 -0.00000000000E+00  0.00000000000E+00  0.43204209830E+02  0.43204209830E+02  0.00000000000E+00 0. -1.
          2   -1    0    0  501    0  0.00000000000E+00 -0.00000000000E+00 -0.32301266788E+03  0.32301266788E+03  0.00000000000E+00 0.  1.
         25    2    1    2    0    0  0.21125232725E+01  0.14440048574E+02 -0.23109681426E+03  0.26318487426E+03  0.12509021833E+03 0.  0.
         23    2    1    2    0    0 -0.21125232725E+01 -0.14440048574E+02 -0.48711643795E+02  0.10303200345E+03  0.89609105212E+02 0.  0.
          5    1    3    3  502    0  0.54753878853E+01 -0.46930763695E+02 -0.16971904948E+03  0.17622288333E+03  0.41800000000E+01 0.  1.
         -5    1    3    3    0  502 -0.33628646128E+01  0.61370812269E+02 -0.61377764776E+02  0.86961990926E+02  0.41800000000E+01 0.  1.
        -11    1    4    4    0    0 -0.25266310838E+02 -0.74675150771E+01 -0.67467763019E+02  0.72429616122E+02  0.00000000000E+00 0.  1.
         11    1    4    4    0    0  0.23153787565E+02 -0.69725334969E+01  0.18756119224E+02  0.30602387331E+02  0.00000000000E+00 0. -1.
</event>
<event>
 8    1  0.6849590E-009  0.1330044E+03  0.7561462E-02  0.1223065E+00
         -2   -1    0    0    0  501 -0.00000000000E+00  0.00000000000E+00  0.19475223584E+03  0.19475223584E+03  0.00000000000E+00 0.  1.
          2   -1    0    0  501    0  0.00000000000E+00 -0.00000000000E+00 -0.23900992159E+03  0.23900992159E+03  0.00000000000E+00 0. -1.
         25    2    1    2    0    0 -0.65645522236E+02 -0.85774475737E+02 -0.17615516906E+03  0.24153295278E+03  0.12506369743E+03 0.  0.
         23    2    1    2    0    0  0.65645522236E+02  0.85774475737E+02  0.13189748330E+03  0.19222920465E+03  0.88817372969E+02 0.  0.
          5    1    3    3  502    0 -0.82236317302E+02 -0.17197066969E+02 -0.13691450363E+03  0.16069102246E+03  0.41800000000E+01 0.  1.
         -5    1    3    3    0  502  0.16590795067E+02 -0.68577408768E+02 -0.39240665427E+02  0.80841930317E+02  0.41800000000E+01 0.  1.
        -11    1    4    4    0    0  0.16834968330E+02  0.63630212463E+01 -0.11384187389E+02  0.21295631490E+02  0.00000000000E+00 0. -1.
         11    1    4    4    0    0  0.48810553906E+02  0.79411454491E+02  0.14328167069E+03  0.17093357316E+03  0.00000000000E+00 0.  1.
</event>
<event>
 8    1  0.6849590E-009  0.1413296E+03  0.7561462E-02  0.1211551E+00
          2   -1    0    0  501    0  0.00000000000E+00  0.00000000000E+00  0.52002424970E+03  0.52002424970E+03  0.00000000000E+00 0. -1.
         -2   -1    0    0    0  501 -0.00000000000E+00 -0.00000000000E+00 -0.62299223988E+02  0.62299223988E+02  0.00000000000E+00 0.  1.
         25    2    1    2    0    0  0.10415732907E+03 -0.68011245438E+01  0.83266347285E+02  0.18295511587E+03  0.12507711756E+03 0.  0.
         23    2    1    2    0    0 -0.10415732907E+03  0.68011245438E+01  0.37445867843E+03  0.39936835782E+03  0.91546594049E+02 0.  0.
          5    1    3    3  502    0  0.98801956804E+02 -0.42593020734E+02  0.96108388834E+02  0.14432701371E+03  0.41800000000E+01 0.  1.
         -5    1    3    3    0  502  0.53553722697E+01  0.35791896190E+02 -0.12842041548E+02  0.38628102155E+02  0.41800000000E+01 0.  1.
        -11    1    4    4    0    0 -0.39216990955E+02  0.47744185193E+02  0.17970637360E+03  0.19003120878E+03  0.00000000000E+00 0. -1.
         11    1    4    4    0    0 -0.64940338119E+02 -0.40943060649E+02  0.19475230483E+03  0.20933714904E+03  0.00000000000E+00 0.  1.
</event>
<event>
 8    1  0.6849590E-009  0.9692072E+02  0.7561462E-02  0.1286908E+00
         -2   -1    0    0    0  501 -0.00000000000E+00  0.00000000000E+00  0.51107690716E+02  0.51107690716E+02  0.00000000000E+00 0.  1.
          2   -1    0    0  501    0  0.00000000000E+00 -0.00000000000E+00 -0.23458554003E+03  0.23458554003E+03  0.00000000000E+00 0. -1.
         25    2    1    2    0    0  0.18542779283E+01  0.31085452623E+02 -0.14429300323E+03  0.19349075159E+03  0.12509379064E+03 0.  0.
         23    2    1    2    0    0 -0.18542779283E+01 -0.31085452623E+02 -0.39184846084E+02  0.92202479157E+02  0.77434496762E+02 0.  0.
          5    1    3    3  502    0  0.55231089307E+02 -0.98712746785E+01 -0.38959478547E+02  0.68434119111E+02  0.41800000000E+01 0.  1.
         -5    1    3    3    0  502 -0.53376811379E+02  0.40956727301E+02 -0.10533352468E+03  0.12505663248E+03  0.41800000000E+01 0.  1.
        -11    1    4    4    0    0  0.30299409812E+02 -0.10872188389E+02 -0.43350176172E+02  0.53995337665E+02  0.00000000000E+00 0. -1.
         11    1    4    4    0    0 -0.32153687740E+02 -0.20213264234E+02  0.41653300887E+01  0.38207141493E+02  0.00000000000E+00 0.  1.
</event>
<event>
 8    1  0.6849590E-009  0.1170017E+03  0.7561462E-02  0.1248127E+00
          1   -1    0    0  501    0  0.00000000000E+00  0.00000000000E+00  0.94436068950E+03  0.94436068950E+03  0.00000000000E+00 0.  1.
         -1   -1    0    0    0  501 -0.00000000000E+00 -0.00000000000E+00 -0.29333135794E+02  0.29333135794E+02  0.00000000000E+00 0. -1.
         25    2    1    2    0    0 -0.10486784683E+03  0.35248714526E+02  0.67259445859E+03  0.69301534175E+03  0.12508885243E+03 0.  0.
         23    2    1    2    0    0  0.10486784683E+03 -0.35248714526E+02  0.24243309511E+03  0.28067848354E+03  0.88129837976E+02 0.  0.
          5    1    3    3  502    0 -0.41784100655E+02  0.10729222926E+02  0.55930819258E+03  0.56098498553E+03  0.41800000000E+01 0.  1.
         -5    1    3    3    0  502 -0.63083746174E+02  0.24519491599E+02  0.11328626600E+03  0.13203035622E+03  0.41800000000E+01 0.  1.
        -11    1    4    4    0    0  0.16496096529E+02  0.14041522347E+02  0.11954169000E+03  0.12148868753E+03  0.00000000000E+00 0.  1.
         11    1    4    4    0    0  0.88371750300E+02 -0.49290236873E+02  0.12289140512E+03  0.15918979601E+03  0.00000000000E+00 0. -1.
</event>
<event>
 8    1  0.6849590E-009  0.8403828E+02  0.7561462E-02  0.1317967E+00
         -2   -1    0    0    0  501 -0.00000000000E+00  0.00000000000E+00  0.43764631407E+02  0.43764631407E+02  0.00000000000E+00 0.  1.
          2   -1    0    0  501    0  0.00000000000E+00 -0.00000000000E+00 -0.30433438710E+03  0.30433438710E+03  0.00000000000E+00 0. -1.
         25    2    1    2    0    0 -0.55443617338E+00 -0.20022490161E+02 -0.94937864485E+02  0.15830897488E+03  0.12508927174E+03 0.  0.
         23    2    1    2    0    0  0.55443617338E+00  0.20022490161E+02 -0.16563189121E+03  0.18979004363E+03  0.90471706970E+02 0.  0.
          5    1    3    3  502    0  0.35637703952E+02 -0.55867870747E+02 -0.82140743727E+02  0.10562120575E+03  0.41800000000E+01 0. -1.
         -5    1    3    3    0  502 -0.36192140125E+02  0.35845380586E+02 -0.12797120758E+02  0.52687769130E+02  0.41800000000E+01 0. -1.
        -11    1    4    4    0    0  0.11320495141E+01 -0.15249517478E+02  0.45787092943E+01  0.15962264821E+02  0.00000000000E+00 0.  1.
         11    1    4    4    0    0 -0.57761334068E+00  0.35272007639E+02 -0.17021060051E+03  0.17382777881E+03  0.00000000000E+00 0. -1.
</event>
<event>
 8    1  0.6849590E-009  0.1213431E+03  0.7561462E-02  0.1240898E+00
          1   -1    0    0  501    0  0.00000000000E+00  0.00000000000E+00  0.75711930613E+03  0.75711930613E+03  0.00000000000E+00 0. -1.
         -1   -1    0    0    0  501 -0.00000000000E+00 -0.00000000000E+00 -0.26117189196E+02  0.26117189196E+02  0.00000000000E+00 0.  1.
         25    2    1    2    0    0  0.73869817593E+02 -0.11600280984E+02  0.50626222693E+03  0.52682112569E+03  0.12509092525E+03 0.  0.
         23    2    1    2    0    0 -0.73869817593E+02  0.11600280984E+02  0.22473989000E+03  0.25641536964E+03  0.98231904999E+02 0.  0.
          5    1    3    3  502    0 -0.15303349749E+02  0.22607109302E+02  0.28877991207E+02  0.39958537018E+02  0.41800000000E+01 0. -1.
         -5    1    3    3    0  502  0.89173167341E+02 -0.34207390286E+02  0.47738423573E+03  0.48686258867E+03  0.41800000000E+01 0. -1.
        -11    1    4    4    0    0 -0.34398518930E+02  0.52411475461E+02  0.85301648093E+02  0.10586119228E+03  0.00000000000E+00 0.  1.
         11    1    4    4    0    0 -0.39471298663E+02 -0.40811194476E+02  0.13943824191E+03  0.15055417736E+03  0.00000000000E+00 0. -1.
</event>
<event>
 8    1  0.6849590E-009  0.1567606E+03  0.7561462E-02  0.1192403E+00
         -1   -1    0    0    0  501 -0.00000000000E+00  0.00000000000E+00  0.21724085285E+02  0.21724085285E+02  0.00000000000E+00 0.  1.
          1   -1    0    0  501    0  0.00000000000E+00 -0.00000000000E+00 -0.16539990546E+04  0.16539990546E+04  0.00000000000E+00 0. -1.
         25    2    1    2    0    0 -0.42941968845E+02  0.11500316525E+03 -0.12856560127E+04  0.12975475135E+04  0.12509366845E+03 0.  0.
         23    2    1    2    0    0  0.42941968845E+02 -0.11500316525E+03 -0.34661895661E+03  0.37817562646E+03  0.88330983592E+02 0.  0.
          5    1    3    3  502    0  0.27147370000E+02  0.78798274378E+02 -0.90143135840E+03  0.90528565328E+03  0.41800000000E+01 0.  1.
         -5    1    3    3    0  502 -0.70089338844E+02  0.36204890868E+02 -0.38422465434E+03  0.39226186017E+03  0.41800000000E+01 0.  1.
        -11    1    4    4    0    0  0.48898529809E+02 -0.15361408628E+02 -0.10945527427E+03  0.12086147507E+03  0.00000000000E+00 0. -1.
         11    1    4    4    0    0 -0.59565609642E+01 -0.99641756618E+02 -0.23716368235E+03  0.25731415139E+03  0.00000000000E+00 0.  1.
</event>
<event>
 8    1  0.6849590E-009  0.1398807E+03  0.7561462E-02  0.1213490E+00
          2   -1    0    0  501    0  0.00000000000E+00  0.00000000000E+00  0.91616016650E+03  0.91616016650E+03  0.00000000000E+00 0. -1.
         -2   -1    0    0    0  501 -0.00000000000E+00 -0.00000000000E+00 -0.22566736297E+02  0.22566736297E+02  0.00000000000E+00 0.  1.
         25    2    1    2    0    0 -0.83858282074E+02 -0.32207303625E+02  0.53693285029E+03  0.55858207210E+03  0.12509006223E+03 0.  0.
         23    2    1    2    0    0  0.83858282074E+02  0.32207303625E+02  0.35666057991E+03  0.38014483070E+03  0.96092669667E+02 0.  0.
          5    1    3    3  502    0 -0.67303219611E+02  0.37017220203E+02  0.20216428123E+03  0.21630503223E+03  0.41800000000E+01 0.  1.
         -5    1    3    3    0  502 -0.16555062463E+02 -0.69224523828E+02  0.33476856906E+03  0.34227703987E+03  0.41800000000E+01 0.  1.
        -11    1    4    4    0    0  0.56898786406E+02 -0.29576973073E+02  0.17555209565E+03  0.18689785316E+03  0.00000000000E+00 0.  1.
         11    1    4    4    0    0  0.26959495668E+02  0.61784276698E+02  0.18110848427E+03  0.19324697754E+03  0.00000000000E+00 0. -1.
</event>
<event>
 8    1  0.6849590E-009  0.2085947E+03  0.7561462E-02  0.1142684E+00
          2   -1    0    0  501    0  0.00000000000E+00  0.00000000000E+00  0.16048593108E+03  0.16048593108E+03  0.00000000000E+00 0. -1.
         -2   -1    0    0    0  501 -0.00000000000E+00 -0.00000000000E+00 -0.38848076194E+03  0.38848076194E+03  0.00000000000E+00 0.  1.
         25    2    1    2    0    0 -0.17291986752E+03 -0.11004776138E+03 -0.21498607261E+03  0.32229951740E+03  0.12508467984E+03 0.  0.
         23    2    1    2    0    0  0.17291986752E+03  0.11004776138E+03 -0.13008758255E+02  0.22666717562E+03  0.95900940275E+02 0.  0.
          5    1    3    3  502    0 -0.54952962655E+02 -0.27841456851E+02 -0.15426517018E+03  0.16616314259E+03  0.41800000000E+01 0. -1.
         -5    1    3    3    0  502 -0.11796690486E+03 -0.82206304527E+02 -0.60720902433E+02  0.15613637481E+03  0.41800000000E+01 0. -1.
        -11    1    4    4    0    0  0.12393092191E+03  0.10485120091E+03  0.25256643394E+02  0.16428799644E+03  0.00000000000E+00 0. -1.
         11    1    4    4    0    0  0.48988945607E+02  0.51965604708E+01 -0.38265401649E+02  0.62379179185E+02  0.00000000000E+00 0.  1.
</event>
<event>
 8    1  0.6849590E-009  0.1464762E+03  0.7561462E-02  0.1204871E+00
         -2   -1    0    0    0  501 -0.00000000000E+00  0.00000000000E+00  0.37575292061E+02  0.37575292061E+02  0.00000000000E+00 0.  1.
          2   -1    0    0  501    0  0.00000000000E+00 -0.00000000000E+00 -0.70887742810E+03  0.70887742810E+03  0.00000000000E+00 0. -1.
         25    2    1    2    0    0  0.99951581633E+02  0.10059485099E+02 -0.51856006036E+03  0.54281199549E+03  0.12509522111E+03 0.  0.
         23    2    1    2    0    0 -0.99951581633E+02 -0.10059485099E+02 -0.15274207568E+03  0.20364072467E+03  0.89710039281E+02 0.  0.
          5    1    3    3  502    0  0.28536790991E+01  0.52307050481E+02 -0.21338127961E+03  0.21975717030E+03  0.41800000000E+01 0. -1.
         -5    1    3    3    0  502  0.97097902534E+02 -0.42247565382E+02 -0.30517878075E+03  0.32305482519E+03  0.41800000000E+01 0. -1.
        -11    1    4    4    0    0 -0.21899336190E+02  0.37211359236E+02 -0.43315212173E+02  0.61159412909E+02  0.00000000000E+00 0. -1.
         11    1    4    4    0    0 -0.78052245443E+02 -0.47270844335E+02 -0.10942686351E+03  0.14248131176E+03  0.00000000000E+00 0.  1.
</event>
<event>
 8    1  0.6849590E-009  0.1562231E+03  0.7561462E-02  0.1193028E+00
          2   -1    0    0  501    0  0.00000000000E+00  0.00000000000E+00  0.11700673110E+03  0.11700673110E+03  0.00000000000E+00 0. -1.
         -2   -1    0    0    0  501 -0.00000000000E+00 -0.00000000000E+00 -0.23331357390E+03  0.23331357390E+03  0.00000000000E+00 0.  1.
         25    2    1    2    0    0 -0.67039621679E+02  0.10231393793E+03 -0.43036481710E+02  0.18017296873E+03  0.12509079555E+03 0.  0.
         23    2    1    2    0    0  0.67039621679E+02 -0.10231393793E+03 -0.73270361089E+02  0.17014733627E+03  0.92839202153E+02 0.  0.
          5    1    3    3  502    0 -0.22364943647E+02  0.11298308416E+03 -0.61333744803E+02  0.13055523223E+03  0.41800000000E+01 0. -1.
         -5    1    3    3    0  502 -0.44674678032E+02 -0.10669146229E+02  0.18297263093E+02  0.49617736498E+02  0.41800000000E+01 0. -1.
        -11    1    4    4    0    0  0.74657038656E+02 -0.33480774609E+02 -0.54787978626E+02  0.98470088307E+02  0.00000000000E+00 0.  1.
         11    1    4    4    0    0 -0.76174169765E+01 -0.68833163322E+02 -0.18482382462E+02  0.71677247964E+02  0.00000000000E+00 0. -1.
</event>
<event>
 8    1  0.6849590E-009  0.7880720E+02  0.7561462E-02  0.1332471E+00
          2   -1    0    0  501    0  0.00000000000E+00  0.00000000000E+00  0.11828530031E+03  0.11828530031E+03  0.00000000000E+00 0. -1.
         -2   -1    0    0    0  501 -0.00000000000E+00 -0.00000000000E+00 -0.10333680568E+03  0.10333680568E+03  0.00000000000E+00 0.  1.
         25    2    1    2    0    0 -0.37600689036E+01 -0.14711362156E+02 -0.82132891911E+00  0.12601090426E+03  0.12509001206E+03 0.  0.
         23    2    1    2    0    0  0.37600689036E+01  0.14711362156E+02  0.15769823541E+02  0.95611201727E+02  0.93071221473E+02 0.  0.
          5    1    3    3  502    0  0.28900164345E+02 -0.54512516500E+02 -0.27722246165E+02  0.67770416014E+02  0.41800000000E+01 0.  1.
         -5    1    3    3    0  502 -0.32660233249E+02  0.39801154343E+02  0.26900917246E+02  0.58240488250E+02  0.41800000000E+01 0.  1.
        -11    1    4    4    0    0 -0.18620055375E+02  0.10395527071E+02 -0.34418645744E+02  0.40489710053E+02  0.00000000000E+00 0.  1.
         11    1    4    4    0    0  0.22380124279E+02  0.43158350849E+01  0.50188469285E+02  0.55121491674E+02  0.00000000000E+00 0. -1.
</event>
<event>
 8    1  0.6849590E-009  0.2383446E+03  0.7561462E-02  0.1120901E+00
         -1   -1    0    0    0  501 -0.00000000000E+00  0.00000000000E+00  0.42186329958E+03  0.42186329958E+03  0.00000000000E+00 0.  1.
          1   -1    0    0  501    0  0.00000000000E+00 -0.00000000000E+00 -0.15913288484E+03  0.15913288484E+03  0.00000000000E+00 0. -1.
         25    2    1    2    0    0  0.11905231547E+02  0.22429958381E+03  0.57957375386E+02  0.26355035883E+03  0.12509075282E+03 0.  0.
         23    2    1    2    0    0 -0.11905231547E+02 -0.22429958381E+03  0.20477303935E+03  0.31744582559E+03  0.91585024457E+02 0.  0.
          5    1    3    3  502    0  0.52254286375E+02  0.17565688454E+03  0.74840960111E+02  0.19800124555E+03  0.41800000000E+01 0. -1.
         -5    1    3    3    0  502 -0.40349054828E+02  0.48642699275E+02 -0.16883584725E+02  0.65549113277E+02  0.41800000000E+01 0. -1.
        -11    1    4    4    0    0  0.17544826788E+02 -0.13186497533E+03  0.16659728239E+03  0.21319204292E+03  0.00000000000E+00 0. -1.
         11    1    4    4    0    0 -0.29450058335E+02 -0.92434608485E+02  0.38175756960E+02  0.10425378267E+03  0.00000000000E+00 0.  1.
</event>
<event>
 8    1  0.6849590E-009  0.1226615E+03  0.7561462E-02  0.1238770E+00
         -2   -1    0    0    0  501 -0.00000000000E+00  0.00000000000E+00  0.33285737348E+02  0.33285737348E+02  0.00000000000E+00 0.  1.
          2   -1    0    0  501    0  0.00000000000E+00 -0.00000000000E+00 -0.47029416224E+03  0.47029416224E+03  0.00000000000E+00 0. -1.
         25    2    1    2    0    0  0.46073833057E+02  0.38891842687E+02 -0.20593009430E+03  0.24837431389E+03  0.12508885857E+03 0.  0.
         23    2    1    2    0    0 -0.46073833057E+02 -0.38891842687E+02 -0.23107833058E+03  0.25520558570E+03  0.89985124249E+02 0.  0.
          5    1    3    3  502    0  0.88347803181E+02  0.13779831457E+02 -0.13311762684E+03  0.16041506494E+03  0.41800000000E+01 0.  1.
         -5    1    3    3    0  502 -0.42273970124E+02  0.25112011231E+02 -0.72812467459E+02  0.87959248949E+02  0.41800000000E+01 0.  1.
        -11    1    4    4    0    0 -0.50346089569E+02  0.14896902010E+02 -0.90498230138E+02  0.10462588629E+03  0.00000000000E+00 0. -1.
         11    1    4    4    0    0  0.42722565115E+01 -0.53788744698E+02 -0.14058010045E+03  0.15057969941E+03  0.00000000000E+00 0.  1.
</event>
<event>
 8    1  0.6849590E-009  0.1361431E+03  0.7561462E-02  0.1218615E+00
         -2   -1    0    0    0  501 -0.00000000000E+00  0.00000000000E+00  0.23161062250E+02  0.23161062250E+02  0.00000000000E+00 0.  1.
          2   -1    0    0  501    0  0.00000000000E+00 -0.00000000000E+00 -0.21391693036E+04  0.21391693036E+04  0.00000000000E+00 0. -1.
         25    2    1    2    0    0  0.57100680645E+02  0.98037351960E+02 -0.18625738520E+04  0.18702140772E+04  0.12509008932E+03 0.  0.
         23    2    1    2    0    0 -0.57100680645E+02 -0.98037351960E+02 -0.25343438935E+03  0.29211628861E+03  0.90725554592E+02 0.  0.
          5    1    3    3  502    0  0.38811725336E+02  0.10151827313E+03 -0.18233939028E+04  0.18266349134E+04  0.41800000000E+01 0. -1.
         -5    1    3    3    0  502  0.18288955309E+02 -0.34809211734E+01 -0.39179949159E+02  0.43579163767E+02  0.41800000000E+01 0. -1.
        -11    1    4    4    0    0 -0.53743113168E+02 -0.11511166746E+03 -0.23202365746E+03  0.26452598326E+03  0.00000000000E+00 0.  1.
         11    1    4    4    0    0 -0.33575674768E+01  0.17074315500E+02 -0.21410731885E+02  0.27590305344E+02  0.00000000000E+00 0. -1.
</event>
<event>
 8    1  0.6849590E-009  0.1134326E+03  0.7561462E-02  0.1254342E+00
         -2   -1    0    0    0  501 -0.00000000000E+00  0.00000000000E+00  0.10345179194E+02  0.10345179194E+02  0.00000000000E+00 0.  1.
          2   -1    0    0  501    0  0.00000000000E+00 -0.00000000000E+00 -0.20884891316E+04  0.20884891316E+04  0.00000000000E+00 0. -1.
         25    2    1    2    0    0  0.49750507655E+01 -0.57403924661E+01 -0.17339103070E+04  0.17384345518E+04  0.12510809270E+03 0.  0.
         23    2    1    2    0    0 -0.49750507655E+01  0.57403924661E+01 -0.34423364546E+03  0.36039975907E+03  0.10645882037E+03 0.  0.
          5    1    3    3  502    0 -0.55128525920E+02 -0.26204419729E+02 -0.92968809533E+03  0.93169912149E+03  0.41800000000E+01 0. -1.
         -5    1    3    3    0  502  0.60103576685E+02  0.20464027263E+02 -0.80422221166E+03  0.80673543028E+03  0.41800000000E+01 0. -1.
        -11    1    4    4    0    0  0.47356094988E+02  0.13277415679E+02 -0.11370525886E+03  0.12388613882E+03  0.00000000000E+00 0.  1.
         11    1    4    4    0    0 -0.52331145753E+02 -0.75370232131E+01 -0.23052838660E+03  0.23651362025E+03  0.00000000000E+00 0. -1.
</event>
<event>
 8    1  0.6849590E-009  0.1868172E+03  0.7561462E-02  0.1161364E+00
          2   -1    0    0  501    0  0.00000000000E+00  0.00000000000E+00  0.66231199650E+03  0.66231199650E+03  0.00000000000E+00 0. -1.
         -2   -1    0    0    0  501 -0.00000000000E+00 -0.00000000000E+00 -0.80360642520E+02  0.80360642520E+02  0.00000000000E+00 0.  1.
         25    2    1    2    0    0 -0.11969659456E+03  0.13713713252E+03  0.17701339344E+03  0.28304586173E+03  0.12508937013E+03 0.  0.
         23    2    1    2    0    0  0.11969659456E+03 -0.13713713252E+03  0.40493796054E+03  0.45962677729E+03  0.11894601569E+03 0.  0.
          5    1    3    3  502    0 -0.63293150625E+02  0.35190688103E+02  0.17641774845E+01  0.72560265762E+02  0.41800000000E+01 0. -1.
         -5    1    3    3    0  502 -0.56403443938E+02  0.10194644442E+03  0.17524921595E+03  0.21048559597E+03  0.41800000000E+01 0. -1.
        -11    1    4    4    0    0  0.41141226771E+02 -0.26925469876E+02  0.24602589458E+03  0.25089105658E+03  0.00000000000E+00 0. -1.
         11    1    4    4    0    0  0.78555367792E+02 -0.11021166265E+03  0.15891206596E+03  0.20873572071E+03  0.00000000000E+00 0.  1.
</event>
<event>
 8    1  0.6849590E-009  0.9950181E+02  0.7561462E-02  0.1281347E+00
         -2   -1    0    0    0  501 -0.00000000000E+00  0.00000000000E+00  0.26592868815E+03  0.26592868815E+03  0.00000000000E+00 0. -1.
          2   -1    0    0  501    0  0.00000000000E+00 -0.00000000000E+00 -0.59884063489E+02  0.59884063489E+02  0.00000000000E+00 0.  1.
         25    2    1    2    0    0 -0.11720309090E+02  0.35119448485E+02  0.18398503379E+03  0.22554173041E+03  0.12509131940E+03 0.  0.
         23    2    1    2    0    0  0.11720309090E+02 -0.35119448485E+02  0.22059590871E+02  0.10027102123E+03  0.90536792757E+02 0.  0.
          5    1    3    3  502    0 -0.43706158938E+02 -0.30049029634E+02  0.49564096811E+02  0.72713441699E+02  0.41800000000E+01 0.  1.
         -5    1    3    3    0  502  0.31985849848E+02  0.65168478119E+02  0.13442093698E+03  0.15282828871E+03  0.41800000000E+01 0.  1.
        -11    1    4    4    0    0 -0.13898480761E+02 -0.43865023967E+02 -0.20064564542E+02  0.50198554216E+02  0.00000000000E+00 0.  1.
         11    1    4    4    0    0  0.25618789851E+02  0.87455754820E+01  0.42124155413E+02  0.50072467018E+02  0.00000000000E+00 0. -1.
</event>
<event>
 8    1  0.6849590E-009  0.1203436E+03  0.7561462E-02  0.1242531E+00
          2   -1    0    0  501    0  0.00000000000E+00  0.00000000000E+00  0.12423874460E+04  0.12423874460E+04  0.00000000000E+00 0. -1.
         -2   -1    0    0    0  501 -0.00000000000E+00 -0.00000000000E+00 -0.18149877773E+02  0.18149877773E+02  0.00000000000E+00 0.  1.
         25    2    1    2    0    0 -0.61692440883E+01 -0.68171492308E+02  0.99175539782E+03  0.10019541690E+04  0.12509186910E+03 0.  0.
         23    2    1    2    0    0  0.61692440883E+01  0.68171492308E+02  0.23248217045E+03  0.25858315482E+03  0.90176917481E+02 0.  0.
          5    1    3    3  502    0 -0.57081993785E+02 -0.38307676520E+02  0.30620397428E+03  0.31385375314E+03  0.41800000000E+01 0.  1.
         -5    1    3    3    0  502  0.50912749696E+02 -0.29863815788E+02  0.68555142354E+03  0.68810041585E+03  0.41800000000E+01 0.  1.
        -11    1    4    4    0    0  0.47035261624E+02  0.47494847910E+02  0.12499970584E+03  0.14174978968E+03  0.00000000000E+00 0.  1.
         11    1    4    4    0    0 -0.40866017536E+02  0.20676644398E+02  0.10748246461E+03  0.11683336515E+03  0.00000000000E+00 0. -1.
</event>
<event>
 8    1  0.9233432E-009  0.7657012E+02  0.7561462E-02  0.1339077E+00
         -2   -1    0    0    0  501 -0.00000000000E+00  0.00000000000E+00  0.82951907326E+02  0.82951907326E+02  0.00000000000E+00 0.  1.
          2   -1    0    0  501    0  0.00000000000E+00 -0.00000000000E+00 -0.11557323366E+03  0.11557323366E+03  0.00000000000E+00 0. -1.
         25    2    1    2    0    0  0.21818331858E+02 -0.45319767006E+01 -0.30374202213E+02  0.13063256039E+03  0.12508275363E+03 0.  0.
         23    2    1    2    0    0 -0.21818331858E+02  0.45319767006E+01 -0.22471241196E+01  0.67892580594E+02  0.64091922386E+02 0.  0.
          5    1    3    3  502    0 -0.19308891091E+02 -0.44125256874E+02  0.21935799251E+02  0.53089766039E+02  0.41800000000E+01 0. -1.
         -5    1    3    3    0  502  0.41127222950E+02  0.39593280173E+02 -0.52310001464E+02  0.77542794350E+02  0.41800000000E+01 0. -1.
        -11    1    4    4    0    0 -0.37697010136E+01  0.22068353684E+02  0.23104243830E+02  0.32171866016E+02  0.00000000000E+00 0.  1.
         11    1    4    4    0    0 -0.18048630845E+02 -0.17536376983E+02 -0.25351367949E+02  0.35720714578E+02  0.00000000000E+00 0. -1.
</event>
<event>
 8    1  0.6849590E-009  0.9763166E+02  0.7561462E-02  0.1285357E+00
         -2   -1    0    0    0  501 -0.00000000000E+00  0.00000000000E+00  0.35003141747E+03  0.35003141747E+03  0.00000000000E+00 0.  1.
          2   -1    0    0  501    0  0.00000000000E+00 -0.00000000000E+00 -0.54982773977E+02  0.54982773977E+02  0.00000000000E+00 0. -1.
         25    2    1    2    0    0 -0.47275936372E+02  0.44091489335E+02  0.78596710647E+02  0.16126199083E+03  0.12509561611E+03 0.  0.
         23    2    1    2    0    0  0.47275936372E+02 -0.44091489335E+02  0.21645193285E+03  0.24375220062E+03  0.91567584231E+02 0.  0.
          5    1    3    3  502    0 -0.35217098222E+02 -0.19220067160E+02  0.87227334951E+02  0.96102733319E+02  0.41800000000E+01 0.  1.
         -5    1    3    3    0  502 -0.12058838150E+02  0.63311556494E+02 -0.86306243036E+01  0.65159257509E+02  0.41800000000E+01 0.  1.
        -11    1    4    4    0    0  0.58285308754E+02 -0.16411976473E+02  0.20153969956E+03  0.21043949413E+03  0.00000000000E+00 0.  1.
         11    1    4    4    0    0 -0.11009372382E+02 -0.27679512861E+02  0.14912233289E+02  0.33312706497E+02  0.00000000000E+00 0. -1.
</event>
<event>
 8    1  0.6849590E-009  0.1815520E+03  0.7561462E-02  0.1166309E+00
          2   -1    0    0  501    0  0.00000000000E+00  0.00000000000E+00  0.17585277303E+04  0.17585277303E+04  0.00000000000E+00 0. -1.
         -2   -1    0    0    0  501 -0.00000000000E+00 -0.00000000000E+00 -0.21263846806E+02  0.21263846806E+02  0.00000000000E+00 0.  1.
         25    2    1    2    0    0  0.15977433091E+03 -0.54841138463E+01  0.94774276281E+03  0.96923766301E+03  0.12508953035E+03 0.  0.
         23    2    1    2    0    0 -0.15977433091E+03  0.54841138463E+01  0.78952112065E+03  0.81055391407E+03  0.89978527083E+02 0.  0.
          5    1    3    3  502    0  0.80105197262E+02  0.39191684153E+02  0.24866559393E+03  0.26420613305E+03  0.41800000000E+01 0. -1.
         -5    1    3    3    0  502  0.79669133653E+02 -0.44675797999E+02  0.69907716888E+03  0.70503152996E+03  0.41800000000E+01 0. -1.
        -11    1    4    4    0    0 -0.63894978450E+02  0.45558591426E+02  0.29725918281E+03  0.30744296266E+03  0.00000000000E+00 0.  1.
         11    1    4    4    0    0 -0.95879352465E+02 -0.40074477579E+02  0.49226193784E+03  0.50311095141E+03  0.00000000000E+00 0. -1.
</event>
<event>
 8    1  0.6849590E-009  0.1517101E+03  0.7561462E-02  0.1198387E+00
         -2   -1    0    0    0  501 -0.00000000000E+00  0.00000000000E+00  0.52803871752E+02  0.52803871752E+02  0.00000000000E+00 0. -1.
          2   -1    0    0  501    0  0.00000000000E+00 -0.00000000000E+00 -0.55757704772E+03  0.55757704772E+03  0.00000000000E+00 0.  1.
         25    2    1    2    0    0 -0.13063888410E+03 -0.16099397711E+02 -0.25212907442E+03  0.31072790698E+03  0.12512814775E+03 0.  0.
         23    2    1    2    0    0  0.13063888410E+03  0.16099397711E+02 -0.25264410155E+03  0.29965301250E+03  0.92936414844E+02 0.  0.
          5    1    3    3  502    0 -0.10958763838E+03  0.35972207028E+02 -0.21263566715E+03  0.24193976422E+03  0.41800000000E+01 0.  1.
         -5    1    3    3    0  502 -0.21051245724E+02 -0.52071604740E+02 -0.39493407272E+02  0.68788142762E+02  0.41800000000E+01 0.  1.
        -11    1    4    4    0    0  0.49570091939E+02  0.79803048610E+01 -0.21587452440E+02  0.54652514886E+02  0.00000000000E+00 0.  1.
         11    1    4    4    0    0  0.81068792165E+02  0.81190928505E+01 -0.23105664911E+03  0.24500049761E+03  0.00000000000E+00 0. -1.
</event>
<event>
 8    1  0.6849590E-009  0.1660309E+03  0.7561462E-02  0.1182051E+00
         -2   -1    0    0    0  501 -0.00000000000E+00  0.00000000000E+00  0.17431117783E+02  0.17431117783E+02  0.00000000000E+00 0.  1.
          2   -1    0    0  501    0  0.00000000000E+00 -0.00000000000E+00 -0.18962837471E+04  0.18962837471E+04  0.00000000000E+00 0. -1.
         25    2    1    2    0    0  0.85405828332E+02  0.10072970580E+03 -0.13230810888E+04  0.13355266183E+04  0.12508857471E+03 0.  0.
         23    2    1    2    0    0 -0.85405828332E+02 -0.10072970580E+03 -0.55577154052E+03  0.57818824658E+03  0.89325327226E+02 0.  0.
          5    1    3    3  502    0  0.11183890094E+03  0.49733731566E+02 -0.98359649205E+03  0.99119166431E+03  0.41800000000E+01 0. -1.
         -5    1    3    3    0  502 -0.26433072605E+02  0.50995974238E+02 -0.33948459671E+03  0.34433495396E+03  0.41800000000E+01 0. -1.
        -11    1    4    4    0    0  0.12656328438E+02 -0.25281401385E+02 -0.49385216984E+02  0.56905461619E+02  0.00000000000E+00 0.  1.
         11    1    4    4    0    0 -0.98062156769E+02 -0.75448304420E+02 -0.50638632354E+03  0.52128278496E+03  0.00000000000E+00 0. -1.
</event>
<event>
 8    1  0.6849590E-009  0.1211025E+03  0.7561462E-02  0.1241289E+00
          2   -1    0    0  501    0  0.00000000000E+00  0.00000000000E+00  0.38672395154E+03  0.38672395154E+03  0.00000000000E+00 0. -1.
         -2   -1    0    0    0  501 -0.00000000000E+00 -0.00000000000E+00 -0.70058242090E+02  0.70058242090E+02  0.00000000000E+00 0.  1.
         25    2    1    2    0    0 -0.85208799778E+02 -0.65653677138E+02  0.25445739711E+03  0.30326042057E+03  0.12508945141E+03 0.  0.
         23    2    1    2    0    0  0.85208799778E+02  0.65653677138E+02  0.62208312333E+02  0.15352177306E+03  0.90156063573E+02 0.  0.
          5    1    3    3  502    0 -0.79203434945E+01 -0.53459835051E+01  0.17945015666E+03  0.17975300416E+03  0.41800000000E+01 0.  1.
         -5    1    3    3    0  502 -0.77288456283E+02 -0.60307693633E+02  0.75007240455E+02  0.12350741640E+03  0.41800000000E+01 0.  1.
        -11    1    4    4    0    0  0.84663925434E+02  0.18710922380E+02  0.61969384680E+02  0.10657524818E+03  0.00000000000E+00 0. -1.
         11    1    4    4    0    0  0.54487434354E+00  0.46942754757E+02  0.23892765328E+00  0.46946524884E+02  0.00000000000E+00 0.  1.
</event>
<event>
 8    1  0.6849590E-009  0.6367650E+02  0.7561462E-02  0.1383020E+00
         -3   -1    0    0    0  501 -0.00000000000E+00  0.00000000000E+00  0.24212393477E+02  0.24212393477E+02  0.00000000000E+00 0.  1.
          3   -1    0    0  501    0  0.00000000000E+00 -0.00000000000E+00 -0.53176287128E+03  0.53176287128E+03  0.00000000000E+00 0. -1.
         25    2    1    2    0    0 -0.24758147140E+02  0.25654910191E+02 -0.26328809978E+03  0.29366515805E+03  0.12508981293E+03 0.  0.
         23    2    1    2    0    0  0.24758147140E+02 -0.25654910191E+02 -0.24426237802E+03  0.26231010671E+03  0.88720586661E+02 0.  0.
          5    1    3    3  502    0 -0.96449098893E+01  0.24618887425E+02 -0.27357582647E+03  0.27488237327E+03  0.41800000000E+01 0.  1.
         -5    1    3    3    0  502 -0.15113237250E+02  0.10360227666E+01  0.10287726694E+02  0.18782784775E+02  0.41800000000E+01 0.  1.
        -11    1    4    4    0    0  0.50514840279E+02 -0.29995309435E+02 -0.10233863919E+03  0.11800281669E+03  0.00000000000E+00 0.  1.
         11    1    4    4    0    0 -0.25756693139E+02  0.43403992439E+01 -0.14192373883E+03  0.14430729001E+03  0.00000000000E+00 0. -1.
</event>
<event>
 8    1  0.6849590E-009  0.9364905E+02  0.7561462E-02  0.1294248E+00
          3   -1    0    0  501    0  0.00000000000E+00  0.00000000000E+00  0.32476130837E+02  0.32476130837E+02  0.00000000000E+00 0. -1.
         -3   -1    0    0    0  501 -0.00000000000E+00 -0.00000000000E+00 -0.53153126445E+03  0.53153126445E+03  0.00000000000E+00 0.  1.
         25    2    1    2    0    0  0.74505520493E+02 -0.55175753048E+00 -0.31516310508E+03  0.34717025312E+03  0.12509206539E+03 0.  0.
         23    2    1    2    0    0 -0.74505520493E+02  0.55175753048E+00 -0.18389202853E+03  0.21683714217E+03  0.87468228785E+02 0.  0.
          5    1    3    3  502    0  0.47811376208E+02  0.15766080498E+02 -0.26992711335E+02  0.57276311459E+02  0.41800000000E+01 0. -1.
         -5    1    3    3    0  502  0.26694144285E+02 -0.16317838029E+02 -0.28817039375E+03  0.28989394166E+03  0.41800000000E+01 0. -1.
        -11    1    4    4    0    0 -0.13305785164E+01  0.27280357357E+02 -0.15759700428E+02  0.31533418690E+02  0.00000000000E+00 0.  1.
         11    1    4    4    0    0 -0.73174941976E+02 -0.26728599827E+02 -0.16813232810E+03  0.18530372348E+03  0.00000000000E+00 0. -1.
</event>
<event>
 8    1  0.6849590E-009  0.9731785E+02  0.7561462E-02  0.1286039E+00
          3   -1    0    0  501    0  0.00000000000E+00  0.00000000000E+00  0.92783252338E+02  0.92783252338E+02  0.00000000000E+00 0. -1.
         -3   -1    0    0    0  501 -0.00000000000E+00 -0.00000000000E+00 -0.13437987384E+03  0.13437987384E+03  0.00000000000E+00 0.  1.
         25    2    1    2    0    0 -0.15357252428E+02 -0.20332231334E+02 -0.36966734823E+02  0.13290456245E+03  0.12509132025E+03 0.  0.
         23    2    1    2    0    0  0.15357252428E+02  0.20332231334E+02 -0.46298866757E+01  0.94258563729E+02  0.90631099256E+02 0.  0.
          5    1    3    3  502    0 -0.27816961268E+02 -0.55956989207E+02 -0.61436153558E+02  0.87731643888E+02  0.41800000000E+01 0.  1.
         -5    1    3    3    0  502  0.12459708840E+02  0.35624757873E+02  0.24469418735E+02  0.45172918559E+02  0.41800000000E+01 0.  1.
        -11    1    4    4    0    0  0.90080112685E+01 -0.36120130683E+02  0.39430438856E+00  0.37228531847E+02  0.00000000000E+00 0.  1.
         11    1    4    4    0    0  0.63492411598E+01  0.56452362017E+02 -0.50241910643E+01  0.57030031882E+02  0.00000000000E+00 0. -1.
</event>
<event>
 8    1  0.6849590E-009  0.2947673E+03  0.7561462E-02  0.1087886E+00
         -1   -1    0    0    0  501 -0.00000000000E+00  0.00000000000E+00  0.19896666330E+03  0.19896666330E+03  0.00000000000E+00 0.  1.
          1   -1    0    0  501    0  0.00000000000E+00 -0.00000000000E+00 -0.55841932508E+03  0.55841932508E+03  0.00000000000E+00 0. -1.
         25    2    1    2    0    0  0.22881255468E+03 -0.18168912340E+03 -0.48433643920E+02  0.32149499584E+03  0.12508833578E+03 0.  0.
         23    2    1    2    0    0 -0.22881255468E+03  0.18168912340E+03 -0.31101901787E+03  0.43589099254E+03  0.88893223374E+02 0.  0.
          5    1    3    3  502    0  0.14791224090E+03 -0.14388584455E+03 -0.87196757144E+02  0.22405783657E+03  0.41800000000E+01 0.  1.
         -5    1    3    3    0  502  0.80900313776E+02 -0.37803278853E+02  0.38763113224E+02  0.97437159277E+02  0.41800000000E+01 0.  1.
        -11    1    4    4    0    0 -0.12484368353E+03  0.79764452533E+02 -0.21638774350E+03  0.26224410144E+03  0.00000000000E+00 0. -1.
         11    1    4    4    0    0 -0.10396887114E+03  0.10192467087E+03 -0.94631274372E+02  0.17364689110E+03  0.00000000000E+00 0.  1.
</event>
<event>
 8    1  0.6849590E-009  0.1086161E+03  0.7561462E-02  0.1263154E+00
         -2   -1    0    0    0  501 -0.00000000000E+00  0.00000000000E+00  0.60300810619E+03  0.60300810619E+03  0.00000000000E+00 0.  1.
          2   -1    0    0  501    0  0.00000000000E+00 -0.00000000000E+00 -0.38692521070E+02  0.38692521070E+02  0.00000000000E+00 0. -1.
         25    2    1    2    0    0 -0.24707312544E+02  0.56460440108E+02  0.48893630284E+03  0.50843113328E+03  0.12508107956E+03 0.  0.
         23    2    1    2    0    0  0.24707312544E+02 -0.56460440108E+02  0.75379282281E+02  0.13326949398E+03  0.90997193572E+02 0.  0.
          5    1    3    3  502    0  0.33264117840E+02  0.17351316695E+01  0.31805655573E+03  0.31982332194E+03  0.41800000000E+01 0. -1.
         -5    1    3    3    0  502 -0.57971430385E+02  0.54725308439E+02  0.17087974711E+03  0.18860781134E+03  0.41800000000E+01 0. -1.
        -11    1    4    4    0    0 -0.20410051768E+02 -0.55027192396E+02  0.20403078116E+02  0.62135720103E+02  0.00000000000E+00 0. -1.
         11    1    4    4    0    0  0.45117364312E+02 -0.14332477123E+01  0.54976204165E+02  0.71133773876E+02  0.00000000000E+00 0.  1.
</event>
<event>
 8    1  0.6849590E-009  0.8746000E+02  0.7561462E-02  0.1309122E+00
          1   -1    0    0  501    0  0.00000000000E+00  0.00000000000E+00  0.16033595946E+02  0.16033595946E+02  0.00000000000E+00 0. -1.
         -1   -1    0    0    0  501 -0.00000000000E+00 -0.00000000000E+00 -0.80979124128E+03  0.80979124128E+03  0.00000000000E+00 0.  1.
         25    2    1    2    0    0  0.17468053346E+02  0.84381307399E+01 -0.59010889895E+03  0.60353398825E+03  0.12509367458E+03 0.  0.
         23    2    1    2    0    0 -0.17468053346E+02 -0.84381307399E+01 -0.20364874639E+03  0.22229084898E+03  0.86971689041E+02 0.  0.
          5    1    3    3  502    0  0.51420765950E+02  0.76055502227E+01 -0.54196481536E+03  0.54446788064E+03  0.41800000000E+01 0.  1.
         -5    1    3    3    0  502 -0.33952712604E+02  0.83258051725E+00 -0.48144083590E+02  0.59066107610E+02  0.41800000000E+01 0.  1.
        -11    1    4    4    0    0  0.23534516292E+02 -0.33168457728E+02 -0.10599048595E+03  0.11352534148E+03  0.00000000000E+00 0. -1.
         11    1    4    4    0    0 -0.41002569639E+02  0.24730326988E+02 -0.97658260436E+02  0.10876550750E+03  0.00000000000E+00 0.  1.
</event>
<event>
 8    1  0.6849590E-009  0.9927218E+02  0.7561462E-02  0.1281834E+00
          2   -1    0    0  501    0  0.00000000000E+00  0.00000000000E+00  0.31241241694E+02  0.31241241694E+02  0.00000000000E+00 0.  1.
         -2   -1    0    0    0  501 -0.00000000000E+00 -0.00000000000E+00 -0.14357732150E+04  0.14357732150E+04  0.00000000000E+00 0. -1.
         25    2    1    2    0    0  0.49877962224E+02  0.24820426962E+02 -0.13287433282E+04  0.13357809666E+04  0.12509234095E+03 0.  0.
         23    2    1    2    0    0 -0.49877962224E+02 -0.24820426962E+02 -0.75788645075E+02  0.13123349007E+03  0.91511996391E+02 0.  0.
          5    1    3    3  502    0 -0.17242962087E+02 -0.19876212661E+02 -0.83918006680E+03  0.83960290643E+03  0.41800000000E+01 0. -1.
         -5    1    3    3    0  502  0.67120924311E+02  0.44696639623E+02 -0.48956326144E+03  0.49617806020E+03  0.41800000000E+01 0. -1.
        -11    1    4    4    0    0 -0.67899972737E+02 -0.26849713330E+02 -0.84023089618E+02  0.11131573560E+03  0.00000000000E+00 0.  1.
         11    1    4    4    0    0  0.18022010513E+02  0.20292863680E+01  0.82344445437E+01  0.19917754468E+02  0.00000000000E+00 0. -1.
</event>
<event>
 8    1  0.6849590E-009  0.9847916E+02  0.7561462E-02  0.1283527E+00
          1   -1    0    0  501    0  0.00000000000E+00  0.00000000000E+00  0.84909174692E+02  0.84909174692E+02  0.00000000000E+00 0. -1.
         -1   -1    0    0    0  501 -0.00000000000E+00 -0.00000000000E+00 -0.13962220006E+03  0.13962220006E+03  0.00000000000E+00 0.  1.
         25    2    1    2    0    0  0.13371482776E+02  0.28039234556E+02 -0.34083309662E+02  0.13331768031E+03  0.12508771586E+03 0.  0.
         23    2    1    2    0    0 -0.13371482776E+02 -0.28039234556E+02 -0.20629715708E+02  0.91213694443E+02  0.83242763395E+02 0.  0.
          5    1    3    3  502    0  0.11222937750E+02 -0.43331678625E+02  0.14054595885E+02  0.47101940191E+02  0.41800000000E+01 0.  1.
         -5    1    3    3    0  502  0.21485450261E+01  0.71370913181E+02 -0.48137905547E+02  0.86215740120E+02  0.41800000000E+01 0.  1.
        -11    1    4    4    0    0  0.30543966556E+02 -0.52214610058E+01  0.10535090553E+02  0.32728973112E+02  0.00000000000E+00 0. -1.
         11    1    4    4    0    0 -0.43915449333E+02 -0.22817773550E+02 -0.31164806261E+02  0.58484721331E+02  0.00000000000E+00 0.  1.
</event>
<event>
 8    1  0.6849590E-009  0.7667759E+02  0.7561462E-02  0.1338753E+00
         -2   -1    0    0    0  501 -0.00000000000E+00  0.00000000000E+00  0.56239747462E+02  0.56239747462E+02  0.00000000000E+00 0.  1.
          2   -1    0    0  501    0  0.00000000000E+00 -0.00000000000E+00 -0.24320871632E+03  0.24320871632E+03  0.00000000000E+00 0. -1.
         25    2    1    2    0    0 -0.37800329381E+02  0.26305937077E+02 -0.99916847379E+02  0.16658581499E+03  0.12508633075E+03 0.  0.
         23    2    1    2    0    0  0.37800329381E+02 -0.26305937077E+02 -0.87052121474E+02  0.13286264878E+03  0.89182646079E+02 0.  0.
          5    1    3    3  502    0 -0.43119290056E+02 -0.16941928777E+02  0.10605904885E+02  0.47710163949E+02  0.41800000000E+01 0.  1.
         -5    1    3    3    0  502  0.53189606759E+01  0.43247865853E+02 -0.11052275226E+03  0.11887565105E+03  0.41800000000E+01 0.  1.
        -11    1    4    4    0    0  0.31202566544E+02  0.45313066383E+01  0.81561245579E+01  0.32567702814E+02  0.00000000000E+00 0.  1.
         11    1    4    4    0    0  0.65977628362E+01 -0.30837243715E+02 -0.95208246032E+02  0.10029494597E+03  0.00000000000E+00 0. -1.
</event>
<event>
 8    1  0.6849590E-009  0.8626114E+02  0.7561462E-02  0.1312167E+00
          2   -1    0    0  501    0  0.00000000000E+00  0.00000000000E+00  0.96693945062E+03  0.96693945062E+03  0.00000000000E+00 0. -1.
         -2   -1    0    0    0  501 -0.00000000000E+00 -0.00000000000E+00 -0.17301423793E+02  0.17301423793E+02  0.00000000000E+00 0.  1.
         25    2    1    2    0    0 -0.32902386651E+02  0.51563610710E+02  0.40343056672E+03  0.42678454354E+03  0.12508977354E+03 0.  0.
         23    2    1    2    0    0  0.32902386651E+02 -0.51563610710E+02  0.54620746011E+03  0.55745633087E+03  0.93132155333E+02 0.  0.
          5    1    3    3  502    0 -0.15665926580E+02  0.25971537490E+02  0.39263811139E+03  0.39383004067E+03  0.41800000000E+01 0. -1.
         -5    1    3    3    0  502 -0.17236460071E+02  0.25592073220E+02  0.10792455327E+02  0.32954502871E+02  0.41800000000E+01 0. -1.
        -11    1    4    4    0    0 -0.29654036476E+02  0.71061274963E-01  0.17447214162E+03  0.17697427816E+03  0.00000000000E+00 0. -1.
         11    1    4    4    0    0  0.62556423127E+02 -0.51634671985E+02  0.37173531849E+03  0.38048205271E+03  0.00000000000E+00 0.  1.
</event>
<event>
 8    1  0.6849590E-009  0.9294416E+02  0.7561462E-02  0.1295875E+00
          3   -1    0    0  501    0  0.00000000000E+00  0.00000000000E+00  0.34502170217E+03  0.34502170217E+03  0.00000000000E+00 0. -1.
         -3   -1    0    0    0  501 -0.00000000000E+00 -0.00000000000E+00 -0.39376248571E+02  0.39376248571E+02  0.00000000000E+00 0.  1.
         25    2    1    2    0    0 -0.18903693859E+02 -0.30838249556E+02  0.20563577439E+03  0.24339300723E+03  0.12508292043E+03 0.  0.
         23    2    1    2    0    0  0.18903693859E+02  0.30838249556E+02  0.10000967922E+03  0.14100494352E+03  0.92585694804E+02 0.  0.
          5    1    3    3  502    0  0.40412693380E+02 -0.45121846449E+02  0.59653068662E+02  0.85118316560E+02  0.41800000000E+01 0. -1.
         -5    1    3    3    0  502 -0.59316387239E+02  0.14283596894E+02  0.14598270572E+03  0.15827469067E+03  0.41800000000E+01 0. -1.
        -11    1    4    4    0    0 -0.17086611865E+02  0.74664302168E+00  0.91799580151E+02  0.93379187707E+02  0.00000000000E+00 0. -1.
         11    1    4    4    0    0  0.35990305725E+02  0.30091606534E+02  0.82100990651E+01  0.47625755811E+02  0.00000000000E+00 0.  1.
</event>
<event>
 8    1  0.6849590E-009  0.1038616E+03  0.7561462E-02  0.1272379E+00
         -2   -1    0    0    0  501 -0.00000000000E+00  0.00000000000E+00  0.32021924205E+02  0.32021924205E+02  0.00000000000E+00 0.  1.
          2   -1    0    0  501    0  0.00000000000E+00 -0.00000000000E+00 -0.43038911153E+03  0.43038911153E+03  0.00000000000E+00 0. -1.
         25    2    1    2    0    0  0.12101347984E+02  0.13830200273E+02 -0.14018224185E+03  0.18877535187E+03  0.12508938997E+03 0.  0.
         23    2    1    2    0    0 -0.12101347984E+02 -0.13830200273E+02 -0.25818494548E+03  0.27363568386E+03  0.88765445688E+02 0.  0.
          5    1    3    3  502    0 -0.46345012785E+02  0.31690407699E+02 -0.10224983562E+03  0.11672464793E+03  0.41800000000E+01 0. -1.
         -5    1    3    3    0  502  0.58446360769E+02 -0.17860207426E+02 -0.37932406224E+02  0.72050703941E+02  0.41800000000E+01 0. -1.
        -11    1    4    4    0    0 -0.47361170736E+02  0.89345656407E+01 -0.12386792649E+03  0.13291414586E+03  0.00000000000E+00 0.  1.
         11    1    4    4    0    0  0.35259822752E+02 -0.22764765914E+02 -0.13431701899E+03  0.14072153801E+03  0.00000000000E+00 0. -1.
</event>
<event>
 8    1  0.6849590E-009  0.8730635E+02  0.7561462E-02  0.1309509E+00
          2   -1    0    0  501    0  0.00000000000E+00  0.00000000000E+00  0.12452814352E+03  0.12452814352E+03  0.00000000000E+00 0. -1.
         -2   -1    0    0    0  501 -0.00000000000E+00 -0.00000000000E+00 -0.19298836883E+03  0.19298836883E+03  0.00000000000E+00 0.  1.
         25    2    1    2    0    0  0.12367497431E+02 -0.42917529210E+02 -0.14025028138E+03  0.19319597796E+03  0.12513862380E+03 0.  0.
         23    2    1    2    0    0 -0.12367497431E+02  0.42917529210E+02  0.71790056068E+02  0.12432053438E+03  0.91142272373E+02 0.  0.
          5    1    3    3  502    0 -0.49953149231E+02 -0.30972887068E+02 -0.10521379993E+03  0.12059043472E+03  0.41800000000E+01 0.  1.
         -5    1    3    3    0  502  0.62320646662E+02 -0.11944642141E+02 -0.35036481450E+02  0.72605543236E+02  0.41800000000E+01 0.  1.
        -11    1    4    4    0    0 -0.20944388894E+02  0.29860921032E+02  0.91889808352E+02  0.98863941405E+02  0.00000000000E+00 0. -1.
         11    1    4    4    0    0  0.85768914631E+01  0.13056608177E+02 -0.20099752284E+02  0.25456592980E+02  0.00000000000E+00 0.  1.
</event>
<event>
 8    1  0.6849590E-009  0.1614925E+03  0.7561462E-02  0.1187022E+00
          2   -1    0    0  501    0  0.00000000000E+00  0.00000000000E+00  0.10759203778E+04  0.10759203778E+04  0.00000000000E+00 0.  1.
         -2   -1    0    0    0  501 -0.00000000000E+00 -0.00000000000E+00 -0.28432285421E+02  0.28432285421E+02  0.00000000000E+00 0. -1.
         25    2    1    2    0    0 -0.13671360987E+03  0.12313204348E+02  0.58569932183E+03  0.61443417053E+03  0.12507369105E+03 0.  0.
         23    2    1    2    0    0  0.13671360987E+03 -0.12313204348E+02  0.46178877054E+03  0.48991849268E+03  0.89045127627E+02 0.  0.
          5    1    3    3  502    0  0.26318109880E+01  0.40276900157E+02  0.18072737098E+03  0.18522691526E+03  0.41800000000E+01 0. -1.
         -5    1    3    3    0  502 -0.13934542086E+03 -0.27963695809E+02  0.40497195084E+03  0.42920725526E+03  0.41800000000E+01 0. -1.
        -11    1    4    4    0    0  0.90443838103E+02  0.55717772130E+01  0.40269271643E+03  0.41276210632E+03  0.00000000000E+00 0.  1.
         11    1    4    4    0    0  0.46269771769E+02 -0.17884981561E+02  0.59096054109E+02  0.77156386361E+02  0.00000000000E+00 0. -1.
</event>
<event>
 8    1  0.6849590E-009  0.1073751E+03  0.7561462E-02  0.1265509E+00
         -3   -1    0    0    0  501 -0.00000000000E+00  0.00000000000E+00  0.17784895383E+03  0.17784895383E+03  0.00000000000E+00 0.  1.
          3   -1    0    0  501    0  0.00000000000E+00 -0.00000000000E+00 -0.74381424503E+02  0.74381424503E+02  0.00000000000E+00 0. -1.
         25    2    1    2    0    0 -0.13208135536E+02 -0.19975990541E+02  0.37776655330E+02  0.13287020043E+03  0.12511562425E+03 0.  0.
         23    2    1    2    0    0  0.13208135536E+02  0.19975990541E+02  0.65690873997E+02  0.11936017791E+03  0.96737097855E+02 0.  0.
          5    1    3    3  502    0 -0.59478707710E+02 -0.35052192106E+02  0.46377278640E+02  0.83274829429E+02  0.41800000000E+01 0. -1.
         -5    1    3    3    0  502  0.46270572174E+02  0.15076201565E+02 -0.86006233104E+01  0.49595370996E+02  0.41800000000E+01 0. -1.
        -11    1    4    4    0    0 -0.16900701404E+02  0.50868678576E+02  0.50446207731E+02  0.73607581420E+02  0.00000000000E+00 0. -1.
         11    1    4    4    0    0  0.30108836940E+02 -0.30892688035E+02  0.15244666266E+02  0.45752596489E+02  0.00000000000E+00 0.  1.
</event>
<event>
 8    1  0.6849590E-009  0.1358690E+03  0.7561462E-02  0.1218998E+00
          2   -1    0    0  501    0  0.00000000000E+00  0.00000000000E+00  0.53197322767E+03  0.53197322767E+03  0.00000000000E+00 0. -1.
         -2   -1    0    0    0  501 -0.00000000000E+00 -0.00000000000E+00 -0.53808267663E+02  0.53808267663E+02  0.00000000000E+00 0.  1.
         25    2    1    2    0    0 -0.12664186158E+03  0.57617037026E+00  0.30630886912E+03  0.35427598935E+03  0.12509140760E+03 0.  0.
         23    2    1    2    0    0  0.12664186158E+03 -0.57617037026E+00  0.17185609089E+03  0.23150550598E+03  0.89564447439E+02 0.  0.
          5    1    3    3  502    0 -0.84981715527E+01  0.17995205273E+02  0.17717211902E+03  0.17833529793E+03  0.41800000000E+01 0. -1.
         -5    1    3    3    0  502 -0.11814369003E+03 -0.17419034903E+02  0.12913675010E+03  0.17594069142E+03  0.41800000000E+01 0. -1.
        -11    1    4    4    0    0  0.91630736581E+02 -0.17069682866E+02  0.16862330697E+03  0.19266910913E+03  0.00000000000E+00 0. -1.
         11    1    4    4    0    0  0.35011125002E+02  0.16493512496E+02  0.32327839212E+01  0.38836396849E+02  0.00000000000E+00 0.  1.
</event>
<event>
 8    1  0.6849590E-009  0.2453983E+03  0.7561462E-02  0.1116248E+00
          2   -1    0    0  501    0  0.00000000000E+00  0.00000000000E+00  0.65765230469E+03  0.65765230469E+03  0.00000000000E+00 0. -1.
         -2   -1    0    0    0  501 -0.00000000000E+00 -0.00000000000E+00 -0.19326196947E+03  0.19326196947E+03  0.00000000000E+00 0.  1.
         25    2    1    2    0    0  0.17778389862E+02 -0.22802481876E+03  0.53474650913E+03  0.59490387663E+03  0.12508159054E+03 0.  0.
         23    2    1    2    0    0 -0.17778389862E+02  0.22802481876E+03 -0.70356173912E+02  0.25601039753E+03  0.90994193873E+02 0.  0.
          5    1    3    3  502    0  0.52489930730E+02 -0.11321182232E+03  0.17004559267E+03  0.21096228460E+03  0.41800000000E+01 0.  1.
         -5    1    3    3    0  502 -0.34711540868E+02 -0.11481299644E+03  0.36470091646E+03  0.38394159203E+03  0.41800000000E+01 0.  1.
        -11    1    4    4    0    0 -0.53699911971E+02  0.10766099990E+03 -0.39988638388E+02  0.12678194921E+03  0.00000000000E+00 0. -1.
         11    1    4    4    0    0  0.35921522109E+02  0.12036381886E+03 -0.30367535525E+02  0.12922844832E+03  0.00000000000E+00 0.  1.
</event>
<event>
 8    1  0.6849590E-009  0.1183217E+03  0.7561462E-02  0.1245892E+00
         -3   -1    0    0    0  501 -0.00000000000E+00  0.00000000000E+00  0.74408670835E+02  0.74408670835E+02  0.00000000000E+00 0.  1.
          3   -1    0    0  501    0  0.00000000000E+00 -0.00000000000E+00 -0.22395551076E+03  0.22395551076E+03  0.00000000000E+00 0. -1.
         25    2    1    2    0    0 -0.53968251498E+02  0.49523422767E+00 -0.31466693731E+02  0.13983274854E+03  0.12510086860E+03 0.  0.
         23    2    1    2    0    0  0.53968251498E+02 -0.49523422767E+00 -0.11808014619E+03  0.15853143305E+03  0.90975144483E+02 0.  0.
          5    1    3    3  502    0 -0.60142306698E+02  0.54121756093E+02 -0.10170922012E+02  0.81652811294E+02  0.41800000000E+01 0.  1.
         -5    1    3    3    0  502  0.61740552006E+01 -0.53626521865E+02 -0.21295771719E+02  0.58179937247E+02  0.41800000000E+01 0.  1.
        -11    1    4    4    0    0 -0.78163186979E+01  0.31115789481E+02 -0.59977238952E+02  0.68018794354E+02  0.00000000000E+00 0. -1.
         11    1    4    4    0    0  0.61784570196E+02 -0.31611023708E+02 -0.58102907238E+02  0.90512638696E+02  0.00000000000E+00 0.  1.
</event>
<event>
 8    1  0.6849590E-009  0.9879386E+02  0.7561462E-02  0.1282853E+00
          1   -1    0    0  501    0  0.00000000000E+00  0.00000000000E+00  0.22605466574E+02  0.22605466574E+02  0.00000000000E+00 0. -1.
         -1   -1    0    0    0  501 -0.00000000000E+00 -0.00000000000E+00 -0.60635467027E+03  0.60635467027E+03  0.00000000000E+00 0.  1.
         25    2    1    2    0    0  0.18781757383E+02  0.46505786029E+02 -0.33053999597E+03  0.35695963417E+03  0.12509176212E+03 0.  0.
         23    2    1    2    0    0 -0.18781757383E+02 -0.46505786029E+02 -0.25320920773E+03  0.27200050267E+03  0.85754463624E+02 0.  0.
          5    1    3    3  502    0 -0.85725870928E+01  0.70500528661E+02 -0.95517342698E+02  0.11910016350E+03  0.41800000000E+01 0. -1.
         -5    1    3    3    0  502  0.27354344476E+02 -0.23994742632E+02 -0.23502265327E+03  0.23785947067E+03  0.41800000000E+01 0. -1.
        -11    1    4    4    0    0  0.14906443704E+02  0.14074873353E+02 -0.19746250761E+02  0.28464338090E+02  0.00000000000E+00 0. -1.
         11    1    4    4    0    0 -0.33688201087E+02 -0.60580659382E+02 -0.23346295697E+03  0.24353616458E+03  0.00000000000E+00 0.  1.
</event>
<event>
 8    1  0.6849590E-009  0.9610535E+02  0.7561462E-02  0.1288706E+00
         -2   -1    0    0    0  501 -0.00000000000E+00  0.00000000000E+00  0.16407531432E+02  0.16407531432E+02  0.00000000000E+00 0. -1.
          2   -1    0    0  501    0  0.00000000000E+00 -0.00000000000E+00 -0.11476682060E+04  0.11476682060E+04  0.00000000000E+00 0.  1.
         25    2    1    2    0    0  0.62261949174E+02  0.53237524060E+02 -0.64701011391E+03  0.66406474746E+03  0.12509643096E+03 0.  0.
         23    2    1    2    0    0 -0.62261949174E+02 -0.53237524060E+02 -0.48425056063E+03  0.50001098994E+03  0.93816844475E+02 0.  0.
          5    1    3    3  502    0  0.24312102254E+02  0.37588178062E+02 -0.59931136479E+03  0.60099545241E+03  0.41800000000E+01 0. -1.
         -5    1    3    3    0  502  0.37949846920E+02  0.15649345998E+02 -0.47698749116E+02  0.63069295055E+02  0.41800000000E+01 0. -1.
        -11    1    4    4    0    0 -0.70811423569E+02 -0.61727870270E+02 -0.47652922709E+03  0.48570020789E+03  0.00000000000E+00 0.  1.
         11    1    4    4    0    0  0.85494743945E+01  0.84903462100E+01 -0.77213335415E+01  0.14310782049E+02  0.00000000000E+00 0. -1.
</event>
<event>
 8    1  0.6849590E-009  0.1316370E+03  0.7561462E-02  0.1225047E+00
         -2   -1    0    0    0  501 -0.00000000000E+00  0.00000000000E+00  0.80042524257E+02  0.80042524257E+02  0.00000000000E+00 0.  1.
          2   -1    0    0  501    0  0.00000000000E+00 -0.00000000000E+00 -0.32456882668E+03  0.32456882668E+03  0.00000000000E+00 0. -1.
         25    2    1    2    0    0 -0.10203445870E+03  0.55081458074E+02 -0.16821125828E+03  0.23955930063E+03  0.12509449756E+03 0.  0.
         23    2    1    2    0    0  0.10203445870E+03 -0.55081458074E+02 -0.76315044140E+02  0.16505205031E+03  0.89292752014E+02 0.  0.
          5    1    3    3  502    0 -0.45038096336E+02 -0.20447275363E+02 -0.37566572105E+01  0.49780579192E+02  0.41800000000E+01 0. -1.
         -5    1    3    3    0  502 -0.56996362364E+02  0.75528733437E+02 -0.16445460107E+03  0.18977872144E+03  0.41800000000E+01 0. -1.
        -11    1    4    4    0    0  0.35172912988E+02 -0.33734030202E+02  0.13967118136E+02  0.50697130005E+02  0.00000000000E+00 0.  1.
         11    1    4    4    0    0  0.66861545713E+02 -0.21347427872E+02 -0.90282162276E+02  0.11435492030E+03  0.00000000000E+00 0. -1.
</event>
<event>
 8    1  0.6849590E-009  0.2163447E+03  0.7561462E-02  0.1136638E+00
         -4   -1    0    0    0  501 -0.00000000000E+00  0.00000000000E+00  0.65527076025E+03  0.65527076025E+03  0.00000000000E+00 0.  1.
          4   -1    0    0  501    0  0.00000000000E+00 -0.00000000000E+00 -0.73104996633E+02  0.73104996633E+02  0.00000000000E+00 0. -1.
         25    2    1    2    0    0 -0.15940096132E+03 -0.10298589294E+03  0.28616843818E+03  0.36545173171E+03  0.12509129699E+03 0.  0.
         23    2    1    2    0    0  0.15940096132E+03  0.10298589294E+03  0.29599732543E+03  0.36292402518E+03  0.89914797298E+02 0.  0.
          5    1    3    3  502    0  0.16617330045E+02 -0.31516274393E+02  0.61527488448E+02  0.71221593946E+02  0.41800000000E+01 0.  1.
         -5    1    3    3    0  502 -0.17601829136E+03 -0.71469618545E+02  0.22464094973E+03  0.29423013776E+03  0.41800000000E+01 0.  1.
        -11    1    4    4    0    0  0.14636833460E+03  0.53848603595E+02  0.19362386990E+03  0.24862333856E+03  0.00000000000E+00 0. -1.
         11    1    4    4    0    0  0.13032626722E+02  0.49137289343E+02  0.10237345553E+03  0.11430068661E+03  0.00000000000E+00 0.  1.
</event>
<event>
 8    1  0.6849590E-009  0.1078415E+03  0.7561462E-02  0.1264620E+00
          2   -1    0    0  501    0  0.00000000000E+00  0.00000000000E+00  0.55680731255E+02  0.55680731255E+02  0.00000000000E+00 0. -1.
         -2   -1    0    0    0  501 -0.00000000000E+00 -0.00000000000E+00 -0.36381896472E+03  0.36381896472E+03  0.00000000000E+00 0.  1.
         25    2    1    2    0    0 -0.73881843264E+02  0.31169439295E+02 -0.23399733361E+03  0.27718627176E+03  0.12508963350E+03 0.  0.
         23    2    1    2    0    0  0.73881843264E+02 -0.31169439295E+02 -0.74140899860E+02  0.14231342422E+03  0.91247887482E+02 0.  0.
          5    1    3    3  502    0 -0.75776157960E+02  0.63296843352E+02 -0.10508952854E+03  0.14425601513E+03  0.41800000000E+01 0. -1.
         -5    1    3    3    0  502  0.18943146965E+01 -0.32127404057E+02 -0.12890780507E+03  0.13293025663E+03  0.41800000000E+01 0. -1.
        -11    1    4    4    0    0  0.69798076149E+02 -0.20140436580E+02 -0.56996181669E+01  0.72869021312E+02  0.00000000000E+00 0. -1.
         11    1    4    4    0    0  0.40837671142E+01 -0.11029002715E+02 -0.68441281693E+02  0.69444402903E+02  0.00000000000E+00 0.  1.
</event>
<event>
 8    1  0.6849590E-009  0.1771261E+03  0.7561462E-02  0.1170614E+00
         -2   -1    0    0    0  501 -0.00000000000E+00  0.00000000000E+00  0.88925207869E+02  0.88925207869E+02  0.00000000000E+00 0.  1.
          2   -1    0    0  501    0  0.00000000000E+00 -0.00000000000E+00 -0.48130753066E+03  0.48130753066E+03  0.00000000000E+00 0. -1.
         25    2    1    2    0    0 -0.10447297631E+03  0.13995087002E+03 -0.23497775132E+03  0.31837494938E+03  0.12508883235E+03 0.  0.
         23    2    1    2    0    0  0.10447297631E+03 -0.13995087002E+03 -0.15740457147E+03  0.25185778915E+03  0.90306688782E+02 0.  0.
          5    1    3    3  502    0 -0.86480621242E+02  0.12852964018E+03 -0.10641401666E+03  0.18798984440E+03  0.41800000000E+01 0. -1.
         -5    1    3    3    0  502 -0.17992355068E+02  0.11421229839E+02 -0.12856373466E+03  0.13038510498E+03  0.41800000000E+01 0. -1.
        -11    1    4    4    0    0  0.64102928293E+02 -0.59079300936E+02 -0.13160714985E+03  0.15786066992E+03  0.00000000000E+00 0. -1.
         11    1    4    4    0    0  0.40370048017E+02 -0.80871569080E+02 -0.25797421624E+02  0.93997119237E+02  0.00000000000E+00 0.  1.
</event>
<event>
 8    1  0.6849590E-009  0.9144877E+02  0.7561462E-02  0.1299381E+00
         -1   -1    0    0    0  501 -0.00000000000E+00  0.00000000000E+00  0.33492909138E+02  0.33492909138E+02  0.00000000000E+00 0.  1.
          1   -1    0    0  501    0  0.00000000000E+00 -0.00000000000E+00 -0.44084442976E+03  0.44084442976E+03  0.00000000000E+00 0. -1.
         25    2    1    2    0    0  0.48490138707E+02  0.74660768630E+01 -0.27236873606E+03  0.30371049281E+03  0.12509316210E+03 0.  0.
         23    2    1    2    0    0 -0.48490138707E+02 -0.74660768630E+01 -0.13498278456E+03  0.17062684609E+03  0.92120207458E+02 0.  0.
          5    1    3    3  502    0 -0.16005369812E+02 -0.11099623479E+02  0.30931084696E+01  0.20159693058E+02  0.41800000000E+01 0.  1.
         -5    1    3    3    0  502  0.64495508518E+02  0.18565700342E+02 -0.27546184453E+03  0.28355079975E+03  0.41800000000E+01 0.  1.
        -11    1    4    4    0    0 -0.61925291526E+02  0.20067279817E+02 -0.55851415442E+02  0.85771895494E+02  0.00000000000E+00 0.  1.
         11    1    4    4    0    0  0.13435152819E+02 -0.27533356680E+02 -0.79131369120E+02  0.84854950593E+02  0.00000000000E+00 0. -1.
</event>
<event>
 8    1  0.6849590E-009  0.1219889E+03  0.7561462E-02  0.1239852E+00
          1   -1    0    0  501    0  0.00000000000E+00  0.00000000000E+00  0.41340115065E+02  0.41340115065E+02  0.00000000000E+00 0. -1.
         -1   -1    0    0    0  501 -0.00000000000E+00 -0.00000000000E+00 -0.59903851871E+03  0.59903851871E+03  0.00000000000E+00 0.  1.
         25    2    1    2    0    0 -0.47390961450E+02  0.80686188608E+02 -0.16755234301E+03  0.22907940578E+03  0.12508965684E+03 0.  0.
         23    2    1    2    0    0  0.47390961450E+02 -0.80686188608E+02 -0.39014606064E+03  0.41129922799E+03  0.90536965140E+02 0.  0.
          5    1    3    3  502    0 -0.37286811012E+02  0.28577743831E+01  0.64251705237E+01  0.38173660633E+02  0.41800000000E+01 0. -1.
         -5    1    3    3    0  502 -0.10104150438E+02  0.77828414225E+02 -0.17397751353E+03  0.19090574515E+03  0.41800000000E+01 0. -1.
        -11    1    4    4    0    0  0.73160952247E+02 -0.56847737579E+02 -0.24406316269E+03  0.26105749862E+03  0.00000000000E+00 0. -1.
         11    1    4    4    0    0 -0.25769990797E+02 -0.23838451029E+02 -0.14608289795E+03  0.15024172938E+03  0.00000000000E+00 0.  1.
</event>
<event>
 8    1  0.6849590E-009  0.7072821E+02  0.7561462E-02  0.1357634E+00
         -4   -1    0    0    0  501 -0.00000000000E+00  0.00000000000E+00  0.11215250105E+03  0.11215250105E+03  0.00000000000E+00 0.  1.
          4   -1    0    0  501    0  0.00000000000E+00 -0.00000000000E+00 -0.11662830285E+03  0.11662830285E+03  0.00000000000E+00 0. -1.
         25    2    1    2    0    0 -0.10275621127E+02  0.65010806364E+01  0.30981994447E+02  0.12944082493E+03  0.12508873147E+03 0.  0.
         23    2    1    2    0    0  0.10275621127E+02 -0.65010806364E+01 -0.35457796248E+02  0.99339978968E+02  0.91996324207E+02 0.  0.
          5    1    3    3  502    0  0.13263567866E+02 -0.32389981505E+02  0.64024001718E+02  0.73086102170E+02  0.41800000000E+01 0. -1.
         -5    1    3    3    0  502 -0.23539188993E+02  0.38891062141E+02 -0.33042007270E+02  0.56354722760E+02  0.41800000000E+01 0. -1.
        -11    1    4    4    0    0 -0.21198934400E+02  0.11683587474E+02  0.21098176163E+02  0.32109719298E+02  0.00000000000E+00 0.  1.
         11    1    4    4    0    0  0.31474555528E+02 -0.18184668110E+02 -0.56555972411E+02  0.67230259670E+02  0.00000000000E+00 0. -1.
</event>
<event>
 8    1  0.6849590E-009  0.1251351E+03  0.7561462E-02  0.1234858E+00
          2   -1    0    0  501    0  0.00000000000E+00  0.00000000000E+00  0.36552152069E+03  0.36552152069E+03  0.00000000000E+00 0.  1.
         -2   -1    0    0    0  501 -0.00000000000E+00 -0.00000000000E+00 -0.47774792802E+02  0.47774792802E+02  0.00000000000E+00 0. -1.
         25    2    1    2    0    0 -0.54877214226E+02 -0.47630141031E+02  0.14586358691E+03  0.20543298277E+03  0.12508551254E+03 0.  0.
         23    2    1    2    0    0  0.54877214226E+02  0.47630141031E+02  0.17188314098E+03  0.20786333073E+03  0.91559877306E+02 0.  0.
          5    1    3    3  502    0 -0.76268367299E+02 -0.75736955550E+02  0.12175639733E+03  0.16246551319E+03  0.41800000000E+01 0.  1.
         -5    1    3    3    0  502  0.21391153073E+02  0.28106814519E+02  0.24107189586E+02  0.42967469578E+02  0.41800000000E+01 0.  1.
        -11    1    4    4    0    0 -0.10849256426E+02  0.39436504869E+02  0.28295277092E+02  0.49734967447E+02  0.00000000000E+00 0. -1.
         11    1    4    4    0    0  0.65726470651E+02  0.81936361619E+01  0.14358786389E+03  0.15812836328E+03  0.00000000000E+00 0.  1.
</event>
<event>
 8    1  0.6849590E-009  0.1626807E+03  0.7561462E-02  0.1185703E+00
          3   -1    0    0  501    0  0.00000000000E+00  0.00000000000E+00  0.63870528339E+03  0.63870528339E+03  0.00000000000E+00 0. -1.
         -3   -1    0    0    0  501 -0.00000000000E+00 -0.00000000000E+00 -0.51979080394E+02  0.51979080394E+02  0.00000000000E+00 0.  1.
         25    2    1    2    0    0 -0.79136722628E+02 -0.11890982708E+03  0.25199006911E+03  0.31551199803E+03  0.12508660251E+03 0.  0.
         23    2    1    2    0    0  0.79136722628E+02  0.11890982708E+03  0.33473613388E+03  0.37517236575E+03  0.91125500557E+02 0.  0.
          5    1    3    3  502    0  0.10169162068E+02 -0.18572626958E+02 -0.78577504645E+01  0.22968913158E+02  0.41800000000E+01 0. -1.
         -5    1    3    3    0  502 -0.89305884696E+02 -0.10033720012E+03  0.25984781958E+03  0.29254308487E+03  0.41800000000E+01 0. -1.
        -11    1    4    4    0    0  0.43688637307E+02 -0.16558146131E+01  0.82878781976E+02  0.93703421781E+02  0.00000000000E+00 0. -1.
         11    1    4    4    0    0  0.35448085322E+02  0.12056564169E+03  0.25185735191E+03  0.28146894397E+03  0.00000000000E+00 0.  1.
</event>
<event>
 8    1  0.6849590E-009  0.3829482E+02  0.7561462E-02  0.1521148E+00
         -2   -1    0    0    0  501 -0.00000000000E+00  0.00000000000E+00  0.62376936901E+02  0.62376936901E+02  0.00000000000E+00 0.  1.
          2   -1    0    0  501    0  0.00000000000E+00 -0.00000000000E+00 -0.21036990407E+03  0.21036990407E+03  0.00000000000E+00 0. -1.
         25    2    1    2    0    0 -0.27808255331E+02 -0.13510475717E+02 -0.10919954271E+03  0.16890179752E+03  0.12508974801E+03 0.  0.
         23    2    1    2    0    0  0.27808255331E+02  0.13510475717E+02 -0.38793424458E+02  0.10384504345E+03  0.91230648632E+02 0.  0.
          5    1    3    3  502    0 -0.24844475570E+02 -0.12349674755E+02 -0.13739011405E+03  0.14022581172E+03  0.41800000000E+01 0. -1.
         -5    1    3    3    0  502 -0.29637797612E+01 -0.11608009619E+01  0.28190571338E+02  0.28675985802E+02  0.41800000000E+01 0. -1.
        -11    1    4    4    0    0  0.30233647447E+02  0.70187916749E+00 -0.66594365209E+02  0.73139425414E+02  0.00000000000E+00 0. -1.
         11    1    4    4    0    0 -0.24253921165E+01  0.12808596550E+02  0.27800940751E+02  0.30705618038E+02  0.00000000000E+00 0.  1.
</event>
<event>
 8    1  0.6849590E-009  0.1235283E+03  0.7561462E-02  0.1237387E+00
         -2   -1    0    0    0  501 -0.00000000000E+00  0.00000000000E+00  0.85730008453E+01  0.85730008453E+01  0.00000000000E+00 0.  1.
          2   -1    0    0  501    0  0.00000000000E+00 -0.00000000000E+00 -0.25315071702E+04  0.25315071702E+04  0.00000000000E+00 0. -1.
         25    2    1    2    0    0 -0.47413821320E+02 -0.35664359146E+02 -0.20559929558E+04  0.20606492012E+04  0.12509228346E+03 0.  0.
         23    2    1    2    0    0  0.47413821320E+02  0.35664359146E+02 -0.46694121360E+03  0.47943096983E+03  0.91104011495E+02 0.  0.
          5    1    3    3  502    0  0.52135482491E+01 -0.73306292873E+02 -0.10948333395E+04  0.10973051113E+04  0.41800000000E+01 0. -1.
         -5    1    3    3    0  502 -0.52627369569E+02  0.37641933727E+02 -0.96115961626E+03  0.96334408989E+03  0.41800000000E+01 0. -1.
        -11    1    4    4    0    0  0.47199898805E+02 -0.21200572802E+02 -0.21162885777E+03  0.21786249832E+03  0.00000000000E+00 0.  1.
         11    1    4    4    0    0  0.21392251558E+00  0.56864931949E+02 -0.25531235582E+03  0.26156847150E+03  0.00000000000E+00 0. -1.
</event>
<event>
 8    1  0.6849590E-009  0.1109005E+03  0.7561462E-02  0.1258911E+00
          4   -1    0    0  501    0  0.00000000000E+00  0.00000000000E+00  0.56997108387E+03  0.56997108387E+03  0.00000000000E+00 0. -1.
         -4   -1    0    0    0  501 -0.00000000000E+00 -0.00000000000E+00 -0.23825144485E+02  0.23825144485E+02  0.00000000000E+00 0.  1.
         25    2    1    2    0    0  0.27570565217E+02 -0.27912132942E+02  0.26270586854E+03  0.29359633440E+03  0.12508081778E+03 0.  0.
         23    2    1    2    0    0 -0.27570565217E+02  0.27912132942E+02  0.28344007084E+03  0.30019989395E+03  0.90788101300E+02 0.  0.
          5    1    3    3  502    0  0.72437021944E+02 -0.24421386962E+01  0.19700135383E+03  0.20995259465E+03  0.41800000000E+01 0.  1.
         -5    1    3    3    0  502 -0.44866456727E+02 -0.25469994246E+02  0.65704514704E+02  0.83643739745E+02  0.41800000000E+01 0.  1.
        -11    1    4    4    0    0  0.19447123232E+02  0.43709803428E+02  0.16493606627E+03  0.17173422337E+03  0.00000000000E+00 0.  1.
         11    1    4    4    0    0 -0.47017688449E+02 -0.15797670486E+02  0.11850400457E+03  0.12846567059E+03  0.00000000000E+00 0. -1.
</event>
<event>
 8    1  0.6849590E-009  0.2147538E+03  0.7561462E-02  0.1137856E+00
         -2   -1    0    0    0  501 -0.00000000000E+00  0.00000000000E+00  0.49466075115E+02  0.49466075115E+02  0.00000000000E+00 0.  1.
          2   -1    0    0  501    0  0.00000000000E+00 -0.00000000000E+00 -0.12416124487E+04  0.12416124487E+04  0.00000000000E+00 0. -1.
         25    2    1    2    0    0 -0.57980363196E+02 -0.20424147903E+03 -0.66221759289E+03  0.70658337301E+03  0.12510642837E+03 0.  0.
         23    2    1    2    0    0  0.57980363196E+02  0.20424147903E+03 -0.52992878067E+03  0.58449515077E+03  0.12543430321E+03 0.  0.
          5    1    3    3  502    0 -0.88894876673E+01 -0.64715006928E+02 -0.68667000306E+02  0.94866666663E+02  0.41800000000E+01 0. -1.
         -5    1    3    3    0  502 -0.49090875529E+02 -0.13952647210E+03 -0.59355059258E+03  0.61171670635E+03  0.41800000000E+01 0. -1.
        -11    1    4    4    0    0  0.35354683139E+02  0.17780048709E+03 -0.51616268925E+03  0.54707119153E+03  0.00000000000E+00 0.  1.
         11    1    4    4    0    0  0.22625680058E+02  0.26440991932E+02 -0.13766091426E+02  0.37423959245E+02  0.00000000000E+00 0. -1.
</event>
<event>
 8    1  0.6849590E-009  0.1581265E+03  0.7561462E-02  0.1190828E+00
          1   -1    0    0  501    0  0.00000000000E+00  0.00000000000E+00  0.42990785058E+03  0.42990785058E+03  0.00000000000E+00 0. -1.
         -1   -1    0    0    0  501 -0.00000000000E+00 -0.00000000000E+00 -0.65782383943E+02  0.65782383943E+02  0.00000000000E+00 0.  1.
         25    2    1    2    0    0  0.11950799589E+03 -0.46200088441E+02  0.20032172046E+03  0.26868735703E+03  0.12508994718E+03 0.  0.
         23    2    1    2    0    0 -0.11950799589E+03  0.46200088441E+02  0.16380374618E+03  0.22700287750E+03  0.91005658484E+02 0.  0.
          5    1    3    3  502    0  0.80613461284E+02 -0.86827613598E+02  0.10728552389E+03  0.15989127762E+03  0.41800000000E+01 0. -1.
         -5    1    3    3    0  502  0.38894534603E+02  0.40627525156E+02  0.93036196568E+02  0.10879607941E+03  0.41800000000E+01 0. -1.
        -11    1    4    4    0    0 -0.11389810084E+03  0.21422405565E+02  0.83679077885E+02  0.14294714027E+03  0.00000000000E+00 0.  1.
         11    1    4    4    0    0 -0.56098950433E+01  0.24777682876E+02  0.80124668295E+02  0.84055737225E+02  0.00000000000E+00 0. -1.
</event>
<event>
 8    1  0.6849590E-009  0.2416525E+03  0.7561462E-02  0.1118697E+00
         -1   -1    0    0    0  501 -0.00000000000E+00  0.00000000000E+00  0.44759719667E+02  0.44759719667E+02  0.00000000000E+00 0.  1.
          1   -1    0    0  501    0  0.00000000000E+00 -0.00000000000E+00 -0.15786008545E+04  0.15786008545E+04  0.00000000000E+00 0. -1.
         25    2    1    2    0    0  0.21727156830E+03  0.82748128820E+02 -0.10026590844E+04  0.10368370639E+04  0.12510663597E+03 0.  0.
         23    2    1    2    0    0 -0.21727156830E+03 -0.82748128820E+02 -0.53118205037E+03  0.58652351018E+03  0.88324799179E+02 0.  0.
          5    1    3    3  502    0  0.10765013511E+03  0.71385100248E+02 -0.75148103922E+03  0.76251269422E+03  0.41800000000E+01 0. -1.
         -5    1    3    3    0  502  0.10962143319E+03  0.11363028572E+02 -0.25117804519E+03  0.27432436972E+03  0.41800000000E+01 0. -1.
        -11    1    4    4    0    0 -0.50243047465E+01 -0.22634540030E+02 -0.23628280032E+02  0.33103801260E+02  0.00000000000E+00 0.  1.
         11    1    4    4    0    0 -0.21224726356E+03 -0.60113588790E+02 -0.50755377033E+03  0.55341970892E+03  0.00000000000E+00 0. -1.
</event>
<event>
 8    1  0.6849590E-009  0.1387464E+03  0.7561462E-02  0.1215026E+00
          1   -1    0    0  501    0  0.00000000000E+00  0.00000000000E+00  0.54763426481E+03  0.54763426481E+03  0.00000000000E+00 0. -1.
         -1   -1    0    0    0  501 -0.00000000000E+00 -0.00000000000E+00 -0.43658713565E+02  0.43658713565E+02  0.00000000000E+00 0.  1.
         25    2    1    2    0    0 -0.63676824390E+02  0.61287975095E+02  0.39426764816E+03  0.42297220080E+03  0.12509016912E+03 0.  0.
         23    2    1    2    0    0  0.63676824390E+02 -0.61287975095E+02  0.10970790308E+03  0.16832077757E+03  0.92114636772E+02 0.  0.
          5    1    3    3  502    0  0.30236030049E+02  0.46688783903E+02  0.18211607295E+03  0.19046731080E+03  0.41800000000E+01 0.  1.
         -5    1    3    3    0  502 -0.93912854439E+02  0.14599191192E+02  0.21215157521E+03  0.23250489001E+03  0.41800000000E+01 0.  1.
        -11    1    4    4    0    0  0.82759283419E+02 -0.26495616151E+02  0.64835600833E+02  0.10841942539E+03  0.00000000000E+00 0.  1.
         11    1    4    4    0    0 -0.19082459029E+02 -0.34792358944E+02  0.44872302250E+02  0.59901352178E+02  0.00000000000E+00 0. -1.
</event>
<event>
 8    1  0.6849590E-009  0.9383586E+02  0.7561462E-02  0.1293820E+00
          2   -1    0    0  501    0  0.00000000000E+00  0.00000000000E+00  0.16712873528E+03  0.16712873528E+03  0.00000000000E+00 0. -1.
         -2   -1    0    0    0  501 -0.00000000000E+00 -0.00000000000E+00 -0.72807441614E+02  0.72807441614E+02  0.00000000000E+00 0.  1.
         25    2    1    2    0    0  0.33408369806E+01  0.10566735377E+02  0.36290897714E+02  0.13072084145E+03  0.12509233407E+03 0.  0.
         23    2    1    2    0    0 -0.33408369806E+01 -0.10566735377E+02  0.58030395953E+02  0.10921533545E+03  0.91856657649E+02 0.  0.
          5    1    3    3  502    0 -0.45656877480E+02  0.43869709247E+01  0.60114492552E+02  0.75729918723E+02  0.41800000000E+01 0. -1.
         -5    1    3    3    0  502  0.48997714460E+02  0.61797644523E+01 -0.23823594837E+02  0.54990922724E+02  0.41800000000E+01 0. -1.
        -11    1    4    4    0    0 -0.28504088613E+02 -0.42637483125E+02  0.37764448531E+02  0.63691377813E+02  0.00000000000E+00 0. -1.
         11    1    4    4    0    0  0.25163251633E+02  0.32070747748E+02  0.20265947422E+02  0.45523957635E+02  0.00000000000E+00 0.  1.
</event>
<event>
 8    1  0.6849590E-009  0.1376399E+03  0.7561462E-02  0.1216540E+00
         -2   -1    0    0    0  501 -0.00000000000E+00  0.00000000000E+00  0.55977249543E+02  0.55977249543E+02  0.00000000000E+00 0.  1.
          2   -1    0    0  501    0  0.00000000000E+00 -0.00000000000E+00 -0.40065883701E+03  0.40065883701E+03  0.00000000000E+00 0. -1.
         25    2    1    2    0    0  0.80199920554E+02 -0.56639353672E+02 -0.22536938898E+03  0.27582563814E+03  0.12509347515E+03 0.  0.
         23    2    1    2    0    0 -0.80199920554E+02  0.56639353672E+02 -0.11931219848E+03  0.18081044841E+03  0.93898742828E+02 0.  0.
          5    1    3    3  502    0  0.74420232372E+02  0.14020441800E+02 -0.62975563722E+02  0.98581630138E+02  0.41800000000E+01 0. -1.
         -5    1    3    3    0  502  0.57796881823E+01 -0.70659795472E+02 -0.16239382526E+03  0.17724400800E+03  0.41800000000E+01 0. -1.
        -11    1    4    4    0    0 -0.53383883605E+02 -0.12007508880E+02 -0.22559534743E+02  0.59185740732E+02  0.00000000000E+00 0.  1.
         11    1    4    4    0    0 -0.26816036949E+02  0.68646862552E+02 -0.96752663740E+02  0.12162470767E+03  0.00000000000E+00 0. -1.
</event>
<event>
 7    1  0.6849590E-009  0.8705911E+02  0.7561462E-02  0.1310134E+00
          2   -1    0    0  501    0  0.00000000000E+00  0.00000000000E+00  0.12296057766E+03  0.12296057766E+03  0.00000000000E+00 0. -1.
         -2   -1    0    0    0  501 -0.00000000000E+00 -0.00000000000E+00 -0.95482650881E+02  0.95482650881E+02  0.00000000000E+00 0.  1.
         23    2    1    2    0    0  0.10570507305E+02  0.61161396801E+01  0.19912187729E+02  0.92468510798E+02  0.89469477923E+02 0.  0.
          5    1    1    2  502    0  0.80457430452E+01  0.50954168774E+02 -0.25083594528E+02  0.57512784762E+02  0.41800000000E+01 0. -1.
         -5    1    1    2    0  502 -0.18616250351E+02 -0.57070308454E+02  0.32649333577E+02  0.68461932979E+02  0.41800000000E+01 0. -1.
        -11    1    3    3    0    0  0.36052315406E+02  0.68443313192E+01 -0.22456355340E+02  0.43022113064E+02  0.00000000000E+00 0.  1.
         11    1    3    3    0    0 -0.25481808101E+02 -0.72819163914E+00  0.42368543069E+02  0.49446397734E+02  0.00000000000E+00 0. -1.
</event>
<event>
 8    1  0.6849590E-009  0.9045945E+02  0.7561462E-02  0.1301743E+00
         -2   -1    0    0    0  501 -0.00000000000E+00  0.00000000000E+00  0.26333445429E+02  0.26333445429E+02  0.00000000000E+00 0. -1.
          2   -1    0    0  501    0  0.00000000000E+00 -0.00000000000E+00 -0.49610536540E+03  0.49610536540E+03  0.00000000000E+00 0.  1.
         25    2    1    2    0    0 -0.26037742699E+02 -0.21985699648E+02 -0.26108549352E+03  0.29150575715E+03  0.12509451023E+03 0.  0.
         23    2    1    2    0    0  0.26037742699E+02  0.21985699648E+02 -0.20868642645E+03  0.23093305368E+03  0.92837038210E+02 0.  0.
          5    1    3    3  502    0 -0.14720663113E+02  0.30068415007E+02 -0.10570546618E+02  0.35355570414E+02  0.41800000000E+01 0.  1.
         -5    1    3    3    0  502 -0.11317079586E+02 -0.52054114655E+02 -0.25051494690E+03  0.25615018674E+03  0.41800000000E+01 0.  1.
        -11    1    4    4    0    0 -0.29862253596E+02 -0.71543717672E+01 -0.10675195034E+03  0.11108068295E+03  0.00000000000E+00 0. -1.
         11    1    4    4    0    0  0.55899996294E+02  0.29140071415E+02 -0.10193447612E+03  0.11985237073E+03  0.00000000000E+00 0.  1.
</event>
<event>
 8    1  0.6849590E-009  0.1113765E+03  0.7561462E-02  0.1258042E+00
          2   -1    0    0  501    0  0.00000000000E+00  0.00000000000E+00  0.38653380531E+02  0.38653380531E+02  0.00000000000E+00 0. -1.
         -2   -1    0    0    0  501 -0.00000000000E+00 -0.00000000000E+00 -0.52289409820E+03  0.52289409820E+03  0.00000000000E+00 0.  1.
         25    2    1    2    0    0  0.62788950857E+02 -0.58350081071E+02 -0.32862008708E+03  0.36192774085E+03  0.12511332326E+03 0.  0.
         23    2    1    2    0    0 -0.62788950857E+02  0.58350081071E+02 -0.15562063058E+03  0.19961973787E+03  0.91011399144E+02 0.  0.
          5    1    3    3  502    0  0.90498857534E+02 -0.30303385056E+02 -0.29454550456E+03  0.30964958424E+03  0.41800000000E+01 0. -1.
         -5    1    3    3    0  502 -0.27709906677E+02 -0.28046696014E+02 -0.34074582517E+02  0.52278156615E+02  0.41800000000E+01 0. -1.
        -11    1    4    4    0    0 -0.54748136152E+02  0.40822259274E+02 -0.16470581715E+03  0.17830261206E+03  0.00000000000E+00 0.  1.
         11    1    4    4    0    0 -0.80408147049E+01  0.17527821797E+02  0.90851865643E+01  0.21317125814E+02  0.00000000000E+00 0. -1.
</event>
<event>
 8    1  0.6849590E-009  0.8145167E+02  0.7561462E-02  0.1324982E+00
          2   -1    0    0  501    0  0.00000000000E+00  0.00000000000E+00  0.17863452439E+02  0.17863452439E+02  0.00000000000E+00 0. -1.
         -2   -1    0    0    0  501 -0.00000000000E+00 -0.00000000000E+00 -0.86712035876E+03  0.86712035876E+03  0.00000000000E+00 0.  1.
         25    2    1    2    0    0 -0.26065081000E+02  0.54851932550E+02 -0.49071506235E+03  0.51003621512E+03  0.12509014892E+03 0.  0.
         23    2    1    2    0    0  0.26065081000E+02 -0.54851932550E+02 -0.35854184397E+03  0.37494759609E+03  0.91352739320E+02 0.  0.
          5    1    3    3  502    0 -0.59566965034E+01 -0.10588608029E+02  0.16171087394E+01  0.12949451490E+02  0.41800000000E+01 0.  1.
         -5    1    3    3    0  502 -0.20108384496E+02  0.65440540579E+02 -0.49233217109E+03  0.49708676363E+03  0.41800000000E+01 0.  1.
        -11    1    4    4    0    0  0.16579238111E+02  0.76434214078E+01 -0.10191030699E+02  0.20908135591E+02  0.00000000000E+00 0. -1.
         11    1    4    4    0    0  0.94858428889E+01 -0.62495353958E+02 -0.34835081327E+03  0.35403946050E+03  0.00000000000E+00 0.  1.
</event>
<event>
 8    1  0.6849590E-009  0.1050238E+03  0.7561462E-02  0.1270073E+00
          2   -1    0    0  501    0  0.00000000000E+00  0.00000000000E+00  0.35220139710E+03  0.35220139710E+03  0.00000000000E+00 0. -1.
         -2   -1    0    0    0  501 -0.00000000000E+00 -0.00000000000E+00 -0.44479453772E+02  0.44479453772E+02  0.00000000000E+00 0.  1.
         25    2    1    2    0    0  0.32315282709E+02  0.33687154771E+02  0.24018273109E+03  0.27479852777E+03  0.12508950657E+03 0.  0.
         23    2    1    2    0    0 -0.32315282709E+02 -0.33687154771E+02  0.67539212237E+02  0.12188232311E+03  0.90081372121E+02 0.  0.
          5    1    3    3  502    0  0.69767648331E+02  0.55496231146E+02  0.14750132729E+03  0.17239916002E+03  0.41800000000E+01 0.  1.
         -5    1    3    3    0  502 -0.37452365622E+02 -0.21809076375E+02  0.92681403805E+02  0.10239936774E+03  0.41800000000E+01 0.  1.
        -11    1    4    4    0    0  0.14413839431E+02 -0.26245709001E+02 -0.95501130979E+01  0.31429296338E+02  0.00000000000E+00 0.  1.
         11    1    4    4    0    0 -0.46729122140E+02 -0.74414457698E+01  0.77089325335E+02  0.90453026769E+02  0.00000000000E+00 0. -1.
</event>
<event>
 8    1  0.6849590E-009  0.1982391E+03  0.7561462E-02  0.1151233E+00
          1   -1    0    0  501    0  0.00000000000E+00  0.00000000000E+00  0.85872131995E+02  0.85872131995E+02  0.00000000000E+00 0. -1.
         -1   -1    0    0    0  501 -0.00000000000E+00 -0.00000000000E+00 -0.54207514810E+03  0.54207514810E+03  0.00000000000E+00 0.  1.
         25    2    1    2    0    0 -0.18006590927E+03 -0.24553044123E+02 -0.29721616688E+03  0.37015245413E+03  0.12509518691E+03 0.  0.
         23    2    1    2    0    0  0.18006590927E+03  0.24553044123E+02 -0.15898684923E+03  0.25779482596E+03  0.90303767416E+02 0.  0.
          5    1    3    3  502    0 -0.44492564881E+02 -0.55932716944E+02 -0.15703401162E+03  0.17258392266E+03  0.41800000000E+01 0. -1.
         -5    1    3    3    0  502 -0.13557334439E+03  0.31379672821E+02 -0.14018215526E+03  0.19756853148E+03  0.41800000000E+01 0. -1.
        -11    1    4    4    0    0  0.40762143758E+02 -0.10349365964E+02  0.19488103006E+01  0.42100589084E+02  0.00000000000E+00 0. -1.
         11    1    4    4    0    0  0.13930376551E+03  0.34902410087E+02 -0.16093565953E+03  0.21569423688E+03  0.00000000000E+00 0.  1.
</event>
<event>
 8    1  0.6849590E-009  0.1173656E+03  0.7561462E-02  0.1247507E+00
         -3   -1    0    0    0  501 -0.00000000000E+00  0.00000000000E+00  0.24113758482E+03  0.24113758482E+03  0.00000000000E+00 0.  1.
          3   -1    0    0  501    0  0.00000000000E+00 -0.00000000000E+00 -0.67574183680E+02  0.67574183680E+02  0.00000000000E+00 0. -1.
         25    2    1    2    0    0 -0.59780899697E+02  0.21980500007E+02  0.10828540055E+03  0.17728306796E+03  0.12508660945E+03 0.  0.
         23    2    1    2    0    0  0.59780899697E+02 -0.21980500007E+02  0.65278000585E+02  0.13142870054E+03  0.94632909790E+02 0.  0.
          5    1    3    3  502    0 -0.85710187333E+02 -0.98259853786E+01  0.10491798110E+03  0.13589717201E+03  0.41800000000E+01 0. -1.
         -5    1    3    3    0  502  0.25929287636E+02  0.31806485386E+02  0.33674194486E+01  0.41385895951E+02  0.41800000000E+01 0. -1.
        -11    1    4    4    0    0  0.42990192200E+02 -0.55153723131E+02  0.19783469013E+02  0.72673760374E+02  0.00000000000E+00 0. -1.
         11    1    4    4    0    0  0.16790707497E+02  0.33173223124E+02  0.45494531572E+02  0.58754940163E+02  0.00000000000E+00 0.  1.
</event>
<event>
 8    1  0.6849590E-009  0.7804376E+02  0.7561462E-02  0.1334696E+00
         -1   -1    0    0    0  501 -0.00000000000E+00  0.00000000000E+00  0.25331085906E+02  0.25331085906E+02  0.00000000000E+00 0.  1.
          1   -1    0    0  501    0  0.00000000000E+00 -0.00000000000E+00 -0.57657642907E+03  0.57657642907E+03  0.00000000000E+00 0. -1.
         25    2    1    2    0    0 -0.34857803252E+02  0.90435300483E+01 -0.21695501657E+03  0.25300910578E+03  0.12508907430E+03 0.  0.
         23    2    1    2    0    0  0.34857803252E+02 -0.90435300483E+01 -0.33429032659E+03  0.34889840919E+03  0.93183826942E+02 0.  0.
          5    1    3    3  502    0  0.11255934623E+02 -0.17545630590E+02 -0.19354375276E+03  0.19470799123E+03  0.41800000000E+01 0. -1.
         -5    1    3    3    0  502 -0.46113737875E+02  0.26589160638E+02 -0.23411263814E+02  0.58301114548E+02  0.41800000000E+01 0. -1.
        -11    1    4    4    0    0 -0.18387893045E+02 -0.19896518254E+02 -0.32762433614E+02  0.42513093343E+02  0.00000000000E+00 0.  1.
         11    1    4    4    0    0  0.53245696297E+02  0.10852988205E+02 -0.30152789297E+03  0.30638531585E+03  0.00000000000E+00 0. -1.
</event>
<event>
 8    1  0.6849590E-009  0.9950729E+02  0.7561462E-02  0.1281335E+00
         -1   -1    0    0    0  501 -0.00000000000E+00  0.00000000000E+00  0.65256758926E+02  0.65256758926E+02  0.00000000000E+00 0.  1.
          1   -1    0    0  501    0  0.00000000000E+00 -0.00000000000E+00 -0.30948149836E+03  0.30948149836E+03  0.00000000000E+00 0. -1.
         25    2    1    2    0    0  0.15907425648E+02 -0.21324707294E+01 -0.25283096139E+03  0.28254040022E+03  0.12509192260E+03 0.  0.
         23    2    1    2    0    0 -0.15907425648E+02  0.21324707294E+01  0.86062219508E+01  0.92197857064E+02  0.90381326438E+02 0.  0.
          5    1    3    3  502    0 -0.40154567953E+02  0.38423235520E+02 -0.94702367501E+02  0.10988514534E+03  0.41800000000E+01 0. -1.
         -5    1    3    3    0  502  0.56061993601E+02 -0.40555706250E+02 -0.15812859389E+03  0.17265525489E+03  0.41800000000E+01 0. -1.
        -11    1    4    4    0    0 -0.10919473190E+02 -0.34913643396E+02 -0.23029953810E+02  0.43227030460E+02  0.00000000000E+00 0. -1.
         11    1    4    4    0    0 -0.49879524583E+01  0.37046114125E+02  0.31636175761E+02  0.48970826604E+02  0.00000000000E+00 0.  1.
</event>
<event>
 8    1  0.6849590E-009  0.8749074E+02  0.7561462E-02  0.1309045E+00
          1   -1    0    0  501    0  0.00000000000E+00  0.00000000000E+00  0.62820214351E+03  0.62820214351E+03  0.00000000000E+00 0. -1.
         -1   -1    0    0    0  501 -0.00000000000E+00 -0.00000000000E+00 -0.25800376307E+02  0.25800376307E+02  0.00000000000E+00 0.  1.
         25    2    1    2    0    0 -0.46343321888E+01  0.10411927557E+02  0.51241763100E+03  0.52758823819E+03  0.12509050823E+03 0.  0.
         23    2    1    2    0    0  0.46343321888E+01 -0.10411927557E+02  0.89984136201E+02  0.12641428162E+03  0.88054191042E+02 0.  0.
          5    1    3    3  502    0 -0.38768222361E+02 -0.37730453706E+02  0.13391510110E+03  0.14448975363E+03  0.41800000000E+01 0.  1.
         -5    1    3    3    0  502  0.34133890172E+02  0.48142381263E+02  0.37850252990E+03  0.38309848456E+03  0.41800000000E+01 0.  1.
        -11    1    4    4    0    0 -0.17270664330E+02  0.18485437211E+02  0.86340425932E+02  0.89970308355E+02  0.00000000000E+00 0. -1.
         11    1    4    4    0    0  0.21904996519E+02 -0.28897364768E+02  0.36437102693E+01  0.36443973268E+02  0.00000000000E+00 0.  1.
</event>
<event>
 8    1  0.6849590E-009  0.1633940E+03  0.7561462E-02  0.1184917E+00
          2   -1    0    0  501    0  0.00000000000E+00  0.00000000000E+00  0.29190353314E+02  0.29190353314E+02  0.00000000000E+00 0. -1.
         -2   -1    0    0    0  501 -0.00000000000E+00 -0.00000000000E+00 -0.10133927602E+04  0.10133927602E+04  0.00000000000E+00 0.  1.
         25    2    1    2    0    0 -0.13119135164E+03  0.24413551390E+01 -0.60626046133E+03  0.63278493191E+03  0.12509153495E+03 0.  0.
         23    2    1    2    0    0  0.13119135164E+03 -0.24413551390E+01 -0.37794194552E+03  0.40979818157E+03  0.88754180045E+02 0.  0.
          5    1    3    3  502    0 -0.11580312582E+03 -0.49165194464E+02 -0.38638830265E+03  0.40637540910E+03  0.41800000000E+01 0.  1.
         -5    1    3    3    0  502 -0.15388225826E+02  0.51606549603E+02 -0.21987215868E+03  0.22640952281E+03  0.41800000000E+01 0.  1.
        -11    1    4    4    0    0  0.63840955010E+02  0.31821624220E+02 -0.10762280651E+03  0.12911604000E+03  0.00000000000E+00 0. -1.
         11    1    4    4    0    0  0.67350396631E+02 -0.34262979359E+02 -0.27031913901E+03  0.28068214157E+03  0.00000000000E+00 0.  1.
</event>
<event>
 8    1  0.6849590E-009  0.9851275E+02  0.7561462E-02  0.1283455E+00
         -1   -1    0    0    0  501 -0.00000000000E+00  0.00000000000E+00  0.10179393612E+03  0.10179393612E+03  0.00000000000E+00 0.  1.
          1   -1    0    0  501    0  0.00000000000E+00 -0.00000000000E+00 -0.19397104918E+03  0.19397104918E+03  0.00000000000E+00 0. -1.
         25    2    1    2    0    0  0.46534717823E+02  0.56734763527E+02 -0.10398717401E+03  0.17845070769E+03  0.12508800647E+03 0.  0.
         23    2    1    2    0    0 -0.46534717823E+02 -0.56734763527E+02  0.11810060948E+02  0.11731427761E+03  0.90768104725E+02 0.  0.
          5    1    3    3  502    0 -0.21418219052E+02 -0.12098884243E+02 -0.72453558389E+02  0.76629717672E+02  0.41800000000E+01 0.  1.
         -5    1    3    3    0  502  0.67952936875E+02  0.68833647770E+02 -0.31533615617E+02  0.10182099002E+03  0.41800000000E+01 0.  1.
        -11    1    4    4    0    0 -0.34667351076E+02 -0.51967416433E+02 -0.33045330510E+02  0.70671291695E+02  0.00000000000E+00 0. -1.
         11    1    4    4    0    0 -0.11867366747E+02 -0.47673470938E+01  0.44855391458E+02  0.46642985911E+02  0.00000000000E+00 0.  1.
</event>
<event>
 8    1  0.6849590E-009  0.3215414E+03  0.7561462E-02  0.1074942E+00
         -1   -1    0    0    0  501 -0.00000000000E+00  0.00000000000E+00  0.35438131361E+03  0.35438131361E+03  0.00000000000E+00 0.  1.
          1   -1    0    0  501    0  0.00000000000E+00 -0.00000000000E+00 -0.30220052175E+03  0.30220052175E+03  0.00000000000E+00 0. -1.
         25    2    1    2    0    0 -0.26039287197E+03 -0.15704868932E+03 -0.24993175265E+02  0.32975915782E+03  0.12509078609E+03 0.  0.
         23    2    1    2    0    0  0.26039287197E+03  0.15704868932E+03  0.77173967121E+02  0.32682267754E+03  0.91588769863E+02 0.  0.
          5    1    3    3  502    0 -0.20793275310E+03 -0.56848953650E+02 -0.18395727671E+02  0.21638786597E+03  0.41800000000E+01 0.  1.
         -5    1    3    3    0  502 -0.52460118870E+02 -0.10019973567E+03 -0.65974475934E+01  0.11337129185E+03  0.41800000000E+01 0.  1.
        -11    1    4    4    0    0  0.21631736568E+03  0.90516414692E+02  0.77649897963E+02  0.24701402931E+03  0.00000000000E+00 0.  1.
         11    1    4    4    0    0  0.44075506286E+02  0.66532274630E+02 -0.47593084215E+00  0.79808648228E+02  0.00000000000E+00 0. -1.
</event>
<event>
 8    1  0.6849590E-009  0.1237056E+03  0.7561462E-02  0.1237106E+00
         -1   -1    0    0    0  501 -0.00000000000E+00  0.00000000000E+00  0.33088973465E+03  0.33088973465E+03  0.00000000000E+00 0.  1.
          1   -1    0    0  501    0  0.00000000000E+00 -0.00000000000E+00 -0.63711904793E+02  0.63711904793E+02  0.00000000000E+00 0. -1.
         25    2    1    2    0    0 -0.82085421084E+02  0.44732648100E+02  0.17600685507E+03  0.23529532187E+03  0.12508576777E+03 0.  0.
         23    2    1    2    0    0  0.82085421084E+02 -0.44732648100E+02  0.91170974781E+02  0.15930631758E+03  0.91254205473E+02 0.  0.
          5    1    3    3  502    0 -0.59054760420E+02 -0.75861624869E+01  0.11097584284E+02  0.60709499804E+02  0.41800000000E+01 0.  1.
         -5    1    3    3    0  502 -0.23030660664E+02  0.52318810587E+02  0.16490927079E+03  0.17458582206E+03  0.41800000000E+01 0.  1.
        -11    1    4    4    0    0  0.31697201147E+02  0.27752778834E+02  0.33928101238E+02  0.54092932507E+02  0.00000000000E+00 0.  1.
         11    1    4    4    0    0  0.50388219937E+02 -0.72485426934E+02  0.57242873543E+02  0.10521338507E+03  0.00000000000E+00 0. -1.
</event>
<event>
 8    1  0.6849590E-009  0.1050928E+03  0.7561462E-02  0.1269937E+00
          2   -1    0    0  501    0  0.00000000000E+00  0.00000000000E+00  0.50345302768E+02  0.50345302768E+02  0.00000000000E+00 0. -1.
         -2   -1    0    0    0  501 -0.00000000000E+00 -0.00000000000E+00 -0.23565547808E+03  0.23565547808E+03  0.00000000000E+00 0.  1.
         25    2    1    2    0    0 -0.24968385179E+01  0.88792613581E+01 -0.85024797631E+02  0.15153059382E+03  0.12508888506E+03 0.  0.
         23    2    1    2    0    0  0.24968385179E+01 -0.88792613581E+01 -0.10028537768E+03  0.13447018703E+03  0.89106670561E+02 0.  0.
          5    1    3    3  502    0  0.59597433045E+02  0.57501983514E+01 -0.58478960454E+02  0.83798448807E+02  0.41800000000E+01 0. -1.
         -5    1    3    3    0  502 -0.62094271563E+02  0.31290630067E+01 -0.26545837176E+02  0.67732145010E+02  0.41800000000E+01 0. -1.
        -11    1    4    4    0    0  0.38505870602E+02 -0.27496206033E+02 -0.40749660024E+02  0.62444200765E+02  0.00000000000E+00 0. -1.
         11    1    4    4    0    0 -0.36009032084E+02  0.18616944675E+02 -0.59535717655E+02  0.72025986264E+02  0.00000000000E+00 0.  1.
</event>
<event>
 8    1  0.6849590E-009  0.1768972E+03  0.7561462E-02  0.1170840E+00
          2   -1    0    0  501    0  0.00000000000E+00  0.00000000000E+00  0.60786731729E+03  0.60786731729E+03  0.00000000000E+00 0. -1.
         -2   -1    0    0    0  501 -0.00000000000E+00 -0.00000000000E+00 -0.67082947553E+02  0.67082947553E+02  0.00000000000E+00 0.  1.
         25    2    1    2    0    0  0.14943758196E+03 -0.80593179342E+02  0.26669111485E+03  0.34001399318E+03  0.12513398162E+03 0.  0.
         23    2    1    2    0    0 -0.14943758196E+03  0.80593179342E+02  0.27409325488E+03  0.33493627167E+03  0.90710210280E+02 0.  0.
          5    1    3    3  502    0 -0.41160059407E+00  0.12600367975E+01  0.10412596554E+03  0.10421826235E+03  0.41800000000E+01 0.  1.
         -5    1    3    3    0  502  0.14984918255E+03 -0.81853216140E+02  0.16256514931E+03  0.23579573082E+03  0.41800000000E+01 0.  1.
        -11    1    4    4    0    0 -0.11376373069E+03  0.31720907306E+02  0.11550110153E+03  0.16519354356E+03  0.00000000000E+00 0. -1.
         11    1    4    4    0    0 -0.35673851265E+02  0.48872272036E+02  0.15859215336E+03  0.16974272811E+03  0.00000000000E+00 0.  1.
</event>
<event>
 8    1  0.6849590E-009  0.1795555E+03  0.7561462E-02  0.1168234E+00
         -1   -1    0    0    0  501 -0.00000000000E+00  0.00000000000E+00  0.38308833099E+03  0.38308833099E+03  0.00000000000E+00 0.  1.
          1   -1    0    0  501    0  0.00000000000E+00 -0.00000000000E+00 -0.10798648526E+03  0.10798648526E+03  0.00000000000E+00 0. -1.
         25    2    1    2    0    0 -0.61659707537E+01 -0.16334296542E+03  0.21834205124E+03  0.30006631810E+03  0.12509036882E+03 0.  0.
         23    2    1    2    0    0  0.61659707537E+01  0.16334296542E+03  0.56759794491E+02  0.19100849815E+03  0.80892697747E+02 0.  0.
          5    1    3    3  502    0  0.48743771236E+02 -0.56513789864E+02  0.39366718585E+02  0.84480616778E+02  0.41800000000E+01 0.  1.
         -5    1    3    3    0  502 -0.54909741989E+02 -0.10682917555E+03  0.17897533266E+03  0.21558570132E+03  0.41800000000E+01 0.  1.
        -11    1    4    4    0    0 -0.49387700500E+01  0.33997335786E+02 -0.20432519358E+02  0.39971216362E+02  0.00000000000E+00 0. -1.
         11    1    4    4    0    0  0.11104740804E+02  0.12934562963E+03  0.77192313848E+02  0.15103728179E+03  0.00000000000E+00 0.  1.
</event>
<event>
 8    1  0.6849590E-009  0.1856676E+03  0.7561462E-02  0.1162428E+00
          2   -1    0    0  501    0  0.00000000000E+00  0.00000000000E+00  0.15176307702E+04  0.15176307702E+04  0.00000000000E+00 0. -1.
         -2   -1    0    0    0  501 -0.00000000000E+00 -0.00000000000E+00 -0.30995719729E+02  0.30995719729E+02  0.00000000000E+00 0.  1.
         25    2    1    2    0    0  0.10877869569E+03 -0.12275182802E+03  0.10948693579E+04  0.11141311440E+04  0.12509388161E+03 0.  0.
         23    2    1    2    0    0 -0.10877869569E+03  0.12275182802E+03  0.39176569257E+03  0.43449534594E+03  0.91678960777E+02 0.  0.
          5    1    3    3  502    0 -0.24668838740E+02 -0.41378928840E+02  0.32130203193E+03  0.32492035252E+03  0.41800000000E+01 0.  1.
         -5    1    3    3    0  502  0.13344753443E+03 -0.81372899178E+02  0.77356732593E+03  0.78921079144E+03  0.41800000000E+01 0.  1.
        -11    1    4    4    0    0 -0.71071878218E+02  0.58179654327E+02  0.11166881503E+03  0.14458910160E+03  0.00000000000E+00 0.  1.
         11    1    4    4    0    0 -0.37706817477E+02  0.64572173692E+02  0.28009687755E+03  0.28990624435E+03  0.00000000000E+00 0. -1.
</event>
<event>
 8    1  0.6849590E-009  0.6971089E+02  0.7561462E-02  0.1361079E+00
         -2   -1    0    0    0  501 -0.00000000000E+00  0.00000000000E+00  0.18792128075E+02  0.18792128075E+02  0.00000000000E+00 0.  1.
          2   -1    0    0  501    0  0.00000000000E+00 -0.00000000000E+00 -0.70856223215E+03  0.70856223215E+03  0.00000000000E+00 0. -1.
         25    2    1    2    0    0 -0.29202649207E+02  0.14268310458E+02 -0.35040580730E+03  0.37348293433E+03  0.12509553568E+03 0.  0.
         23    2    1    2    0    0  0.29202649207E+02 -0.14268310458E+02 -0.33936429678E+03  0.35387142589E+03  0.94870863445E+02 0.  0.
          5    1    3    3  502    0 -0.31172052755E+02  0.20438662619E+02 -0.35956238597E+03  0.36151350957E+03  0.41800000000E+01 0.  1.
         -5    1    3    3    0  502  0.19694035486E+01 -0.61703521609E+01  0.91565786696E+01  0.11969424759E+02  0.41800000000E+01 0.  1.
        -11    1    4    4    0    0  0.37398310162E+02 -0.47227307639E+02 -0.27000008943E+03  0.27663893523E+03  0.00000000000E+00 0. -1.
         11    1    4    4    0    0 -0.81956609554E+01  0.32958997181E+02 -0.69364207349E+02  0.77232490668E+02  0.00000000000E+00 0.  1.
</event>
<event>
 8    1  0.6849590E-009  0.9317658E+02  0.7561462E-02  0.1295336E+00
          1   -1    0    0  501    0  0.00000000000E+00  0.00000000000E+00  0.31150678434E+03  0.31150678434E+03  0.00000000000E+00 0. -1.
         -1   -1    0    0    0  501 -0.00000000000E+00 -0.00000000000E+00 -0.55429960163E+02  0.55429960163E+02  0.00000000000E+00 0.  1.
         25    2    1    2    0    0  0.25363768726E+02  0.57012012122E+02  0.19547998897E+03  0.24031515125E+03  0.12508099593E+03 0.  0.
         23    2    1    2    0    0 -0.25363768726E+02 -0.57012012122E+02  0.60596835207E+02  0.12662159325E+03  0.92018265306E+02 0.  0.
          5    1    3    3  502    0  0.55563699439E+02  0.37137542946E+02  0.34606474665E+02  0.75376404001E+02  0.41800000000E+01 0. -1.
         -5    1    3    3    0  502 -0.30199930713E+02  0.19874469177E+02  0.16087351430E+03  0.16493874725E+03  0.41800000000E+01 0. -1.
        -11    1    4    4    0    0  0.96422785412E+01  0.56819122508E+01 -0.17347151114E+02  0.20644159321E+02  0.00000000000E+00 0.  1.
         11    1    4    4    0    0 -0.35006047267E+02 -0.62693924373E+02  0.77943986321E+02  0.10597743393E+03  0.00000000000E+00 0. -1.
</event>
<event>
 8    1  0.6849590E-009  0.1196218E+03  0.7561462E-02  0.1243722E+00
         -1   -1    0    0    0  501 -0.00000000000E+00  0.00000000000E+00  0.32792740811E+02  0.32792740811E+02  0.00000000000E+00 0.  1.
          1   -1    0    0  501    0  0.00000000000E+00 -0.00000000000E+00 -0.54512493211E+03  0.54512493211E+03  0.00000000000E+00 0. -1.
         25    2    1    2    0    0  0.65255518403E+02  0.10712244485E+00 -0.36912154749E+03  0.39516592709E+03  0.12508836458E+03 0.  0.
         23    2    1    2    0    0 -0.65255518403E+02 -0.10712244485E+00 -0.14321064380E+03  0.18275174583E+03  0.92901119188E+02 0.  0.
          5    1    3    3  502    0  0.28611926051E+02 -0.53497992755E+02 -0.90405125288E+02  0.10895520465E+03  0.41800000000E+01 0.  1.
         -5    1    3    3    0  502  0.36643592352E+02  0.53605115200E+02 -0.27871642221E+03  0.28621072245E+03  0.41800000000E+01 0.  1.
        -11    1    4    4    0    0 -0.95041817925E+01  0.42276293532E+02 -0.59579630895E+02  0.73670529277E+02  0.00000000000E+00 0.  1.
         11    1    4    4    0    0 -0.55751336611E+02 -0.42383415977E+02 -0.83631012909E+02  0.10908121655E+03  0.00000000000E+00 0. -1.
</event>
<event>
 8    1  0.6849590E-009  0.1538171E+03  0.7561462E-02  0.1195860E+00
         -4   -1    0    0    0  501 -0.00000000000E+00  0.00000000000E+00  0.35344368590E+03  0.35344368590E+03  0.00000000000E+00 0.  1.
          4   -1    0    0  501    0  0.00000000000E+00 -0.00000000000E+00 -0.74933851302E+02  0.74933851302E+02  0.00000000000E+00 0. -1.
         25    2    1    2    0    0 -0.51405305960E+02 -0.10274619734E+03  0.97669384225E+02  0.19592303922E+03  0.12508893689E+03 0.  0.
         23    2    1    2    0    0  0.51405305960E+02  0.10274619734E+03  0.18084045038E+03  0.23245449799E+03  0.90180588787E+02 0.  0.
          5    1    3    3  502    0 -0.48102635353E+02  0.95334206078E+01  0.35986306174E+01  0.49347463751E+02  0.41800000000E+01 0. -1.
         -5    1    3    3    0  502 -0.33026706076E+01 -0.11227961795E+03  0.94070753607E+02  0.14657557547E+03  0.41800000000E+01 0. -1.
        -11    1    4    4    0    0  0.74980785236E+02  0.55754355293E+02  0.11303393986E+03  0.14665380271E+03  0.00000000000E+00 0. -1.
         11    1    4    4    0    0 -0.23575479276E+02  0.46991842045E+02  0.67806510520E+02  0.85800695281E+02  0.00000000000E+00 0.  1.
</event>
<event>
 8    1  0.6849590E-009  0.7366272E+02  0.7561462E-02  0.1348063E+00
          2   -1    0    0  501    0  0.00000000000E+00  0.00000000000E+00  0.60232460505E+03  0.60232460505E+03  0.00000000000E+00 0. -1.
         -2   -1    0    0    0  501 -0.00000000000E+00 -0.00000000000E+00 -0.22609953523E+02  0.22609953523E+02  0.00000000000E+00 0.  1.
         25    2    1    2    0    0 -0.27738339725E+02 -0.28312824225E+02  0.28996870645E+03  0.31827952035E+03  0.12509584664E+03 0.  0.
         23    2    1    2    0    0  0.27738339725E+02  0.28312824225E+02  0.28974594508E+03  0.30665503823E+03  0.92268999535E+02 0.  0.
          5    1    3    3  502    0 -0.51501119180E+02 -0.17273221561E+02  0.41729136119E+02  0.68625962005E+02  0.41800000000E+01 0. -1.
         -5    1    3    3    0  502  0.23762779455E+02 -0.11039602664E+02  0.24823957033E+03  0.24965355834E+03  0.41800000000E+01 0. -1.
        -11    1    4    4    0    0  0.94556006194E+00 -0.15189984879E+02  0.31516550664E+01  0.15542286001E+02  0.00000000000E+00 0.  1.
         11    1    4    4    0    0  0.26792779663E+02  0.43502809104E+02  0.28659429001E+03  0.29111275223E+03  0.00000000000E+00 0. -1.
</event>
<event>
 8    1  0.6849590E-009  0.1774500E+03  0.7561462E-02  0.1170294E+00
          1   -1    0    0  501    0  0.00000000000E+00  0.00000000000E+00  0.10897118149E+04  0.10897118149E+04  0.00000000000E+00 0. -1.
         -1   -1    0    0    0  501 -0.00000000000E+00 -0.00000000000E+00 -0.45943591142E+02  0.45943591142E+02  0.00000000000E+00 0.  1.
         25    2    1    2    0    0 -0.34243023893E+02 -0.15176994715E+03  0.24063072071E+03  0.31266269369E+03  0.12509242476E+03 0.  0.
         23    2    1    2    0    0  0.34243023893E+02  0.15176994715E+03  0.80313750306E+03  0.82299271237E+03  0.89891346844E+02 0.  0.
          5    1    3    3  502    0  0.26296168827E+02 -0.10240318700E+03  0.75634843326E+02  0.13006153593E+03  0.41800000000E+01 0.  1.
         -5    1    3    3    0  502 -0.60539192720E+02 -0.49366760152E+02  0.16499587738E+03  0.18260115776E+03  0.41800000000E+01 0.  1.
        -11    1    4    4    0    0  0.43710108951E+02  0.41774661632E+02  0.17310597281E+03  0.18336132036E+03  0.00000000000E+00 0.  1.
         11    1    4    4    0    0 -0.94670850581E+01  0.10999528552E+03  0.63003153025E+03  0.63963139201E+03  0.00000000000E+00 0. -1.
</event>
<event>
 8    1  0.6849590E-009  0.2114166E+03  0.7561462E-02  0.1140449E+00
          1   -1    0    0  501    0  0.00000000000E+00  0.00000000000E+00  0.55279064636E+03  0.55279064636E+03  0.00000000000E+00 0. -1.
         -1   -1    0    0    0  501 -0.00000000000E+00 -0.00000000000E+00 -0.10066597857E+03  0.10066597857E+03  0.00000000000E+00 0.  1.
         25    2    1    2    0    0 -0.61325575360E+02 -0.19275266509E+03  0.15643248855E+03  0.28466095633E+03  0.12508525290E+03 0.  0.
         23    2    1    2    0    0  0.61325575360E+02  0.19275266509E+03  0.29569217924E+03  0.36879566859E+03  0.87532646593E+02 0.  0.
          5    1    3    3  502    0 -0.14849859358E+02 -0.79708217134E+02  0.13921383827E+03  0.16115794540E+03  0.41800000000E+01 0.  1.
         -5    1    3    3    0  502 -0.46475716002E+02 -0.11304444795E+03  0.17218650289E+02  0.12350301093E+03  0.41800000000E+01 0.  1.
        -11    1    4    4    0    0  0.31054241796E+02  0.79123940043E+01  0.31426876168E+02  0.44884523592E+02  0.00000000000E+00 0.  1.
         11    1    4    4    0    0  0.30271333564E+02  0.18484027108E+03  0.26426530307E+03  0.32391114500E+03  0.00000000000E+00 0. -1.
</event>
<event>
 8    1  0.6849590E-009  0.7655966E+02  0.7561462E-02  0.1339108E+00
          3   -1    0    0  501    0  0.00000000000E+00  0.00000000000E+00  0.40241216604E+03  0.40241216604E+03  0.00000000000E+00 0. -1.
         -3   -1    0    0    0  501 -0.00000000000E+00 -0.00000000000E+00 -0.43589849008E+02  0.43589849008E+02  0.00000000000E+00 0.  1.
         25    2    1    2    0    0  0.35076213914E+02  0.12049640016E+01  0.31084136505E+03  0.33689946773E+03  0.12508838638E+03 0.  0.
         23    2    1    2    0    0 -0.35076213914E+02 -0.12049640016E+01  0.47980951985E+02  0.10910254732E+03  0.91484432329E+02 0.  0.
          5    1    3    3  502    0 -0.35116681308E+01 -0.51459827933E+02  0.21303263232E+03  0.21922778231E+03  0.41800000000E+01 0. -1.
         -5    1    3    3    0  502  0.38587882045E+02  0.52664791934E+02  0.97808732728E+02  0.11767168541E+03  0.41800000000E+01 0. -1.
        -11    1    4    4    0    0 -0.19660282561E+02  0.31919324599E+01  0.75047122236E+02  0.77645255483E+02  0.00000000000E+00 0. -1.
         11    1    4    4    0    0 -0.15415931353E+02 -0.43968964615E+01 -0.27066170251E+02  0.31457291842E+02  0.00000000000E+00 0.  1.
</event>
<event>
 8    1  0.6849590E-009  0.8146268E+02  0.7561462E-02  0.1324951E+00
         -2   -1    0    0    0  501 -0.00000000000E+00  0.00000000000E+00  0.15695410659E+02  0.15695410659E+02  0.00000000000E+00 0.  1.
          2   -1    0    0  501    0  0.00000000000E+00 -0.00000000000E+00 -0.83806752611E+03  0.83806752611E+03  0.00000000000E+00 0. -1.
         25    2    1    2    0    0  0.21631390089E+02  0.10435174215E+01 -0.58005421886E+03  0.59378901996E+03  0.12511393783E+03 0.  0.
         23    2    1    2    0    0 -0.21631390089E+02 -0.10435174215E+01 -0.24231789660E+03  0.25997391682E+03  0.91648614000E+02 0.  0.
          5    1    3    3  502    0  0.53742903503E+02 -0.16767677904E+02 -0.52150244608E+03  0.52454907146E+03  0.41800000000E+01 0. -1.
         -5    1    3    3    0  502 -0.32111513414E+02  0.17811195325E+02 -0.58551772775E+02  0.69239948496E+02  0.41800000000E+01 0. -1.
        -11    1    4    4    0    0 -0.29144286918E+02  0.27456936539E+02 -0.21833222433E+03  0.22197349618E+03  0.00000000000E+00 0. -1.
         11    1    4    4    0    0  0.75128968293E+01 -0.28500453961E+02 -0.23985672267E+02  0.38000420640E+02  0.00000000000E+00 0.  1.
</event>
<event>
 8    1  0.6849590E-009  0.1086226E+03  0.7561462E-02  0.1263142E+00
          2   -1    0    0  501    0  0.00000000000E+00  0.00000000000E+00  0.11124422439E+04  0.11124422439E+04  0.00000000000E+00 0. -1.
         -2   -1    0    0    0  501 -0.00000000000E+00 -0.00000000000E+00 -0.14433055698E+02  0.14433055698E+02  0.00000000000E+00 0.  1.
         25    2    1    2    0    0 -0.35847484744E+02 -0.46651409653E+02  0.75487530759E+03  0.76742781276E+03  0.12508925458E+03 0.  0.
         23    2    1    2    0    0  0.35847484744E+02  0.46651409653E+02  0.34313388060E+03  0.35944748682E+03  0.89444058394E+02 0.  0.
          5    1    3    3  502    0  0.44896708823E+01 -0.70332152960E+02  0.63121396758E+03  0.63514983599E+03  0.41800000000E+01 0.  1.
         -5    1    3    3    0  502 -0.40337155627E+02  0.23680743307E+02  0.12366134001E+03  0.13227797677E+03  0.41800000000E+01 0.  1.
        -11    1    4    4    0    0 -0.89285569262E+01  0.53630159800E+02  0.11976123648E+03  0.13152439672E+03  0.00000000000E+00 0.  1.
         11    1    4    4    0    0  0.44776041670E+02 -0.69787501464E+01  0.22337264412E+03  0.22792309010E+03  0.00000000000E+00 0. -1.
</event>
<event>
 8    1  0.6849590E-009  0.9012380E+02  0.7561462E-02  0.1302552E+00
         -2   -1    0    0    0  501 -0.00000000000E+00  0.00000000000E+00  0.14483918051E+02  0.14483918051E+02  0.00000000000E+00 0. -1.
          2   -1    0    0  501    0  0.00000000000E+00 -0.00000000000E+00 -0.95270289540E+03  0.95270289540E+03  0.00000000000E+00 0.  1.
         25    2    1    2    0    0 -0.23048590019E+02  0.36809609521E+02 -0.58511943971E+03  0.59991524013E+03  0.12508937511E+03 0.  0.
         23    2    1    2    0    0  0.23048590019E+02 -0.36809609521E+02 -0.35309953764E+03  0.36727157332E+03  0.91230149784E+02 0.  0.
          5    1    3    3  502    0  0.36762842001E+01 -0.17772993784E+02 -0.91814146403E+01  0.20764516570E+02  0.41800000000E+01 0.  1.
         -5    1    3    3    0  502 -0.26724874219E+02  0.54582603305E+02 -0.57593802507E+03  0.57915072356E+03  0.41800000000E+01 0.  1.
        -11    1    4    4    0    0 -0.17746259820E+02  0.22539993174E+02 -0.87599781779E+02  0.92177561248E+02  0.00000000000E+00 0. -1.
         11    1    4    4    0    0  0.40794849840E+02 -0.59349602695E+02 -0.26549975586E+03  0.27509401207E+03  0.00000000000E+00 0.  1.
</event>
<event>
 8    1  0.6849590E-009  0.1142908E+03  0.7561462E-02  0.1252824E+00
          1   -1    0    0  501    0  0.00000000000E+00  0.00000000000E+00  0.65860112474E+03  0.65860112474E+03  0.00000000000E+00 0. -1.
         -1   -1    0    0    0  501 -0.00000000000E+00 -0.00000000000E+00 -0.24213702327E+02  0.24213702327E+02  0.00000000000E+00 0.  1.
         25    2    1    2    0    0 -0.30370561508E+02  0.43963731495E+02  0.25981462599E+03  0.29326865558E+03  0.12509070218E+03 0.  0.
         23    2    1    2    0    0  0.30370561508E+02 -0.43963731495E+02  0.37457279642E+03  0.38954617149E+03  0.92662069967E+02 0.  0.
          5    1    3    3  502    0 -0.52310136618E+02  0.71906646933E+02  0.23025543287E+03  0.24686424009E+03  0.41800000000E+01 0.  1.
         -5    1    3    3    0  502  0.21939575110E+02 -0.27942915438E+02  0.29559193119E+02  0.46404415490E+02  0.41800000000E+01 0.  1.
        -11    1    4    4    0    0  0.64382243841E+01 -0.68916300166E+02  0.20158510842E+03  0.21313719314E+03  0.00000000000E+00 0.  1.
         11    1    4    4    0    0  0.23932337124E+02  0.24952568671E+02  0.17298768800E+03  0.17640897835E+03  0.00000000000E+00 0. -1.
</event>
<event>
 8    1  0.6849590E-009  0.1095641E+03  0.7561462E-02  0.1261379E+00
         -1   -1    0    0    0  501 -0.00000000000E+00  0.00000000000E+00  0.30088243062E+02  0.30088243062E+02  0.00000000000E+00 0.  1.
          1   -1    0    0  501    0  0.00000000000E+00 -0.00000000000E+00 -0.50745223207E+03  0.50745223207E+03  0.00000000000E+00 0. -1.
         25    2    1    2    0    0 -0.57342130298E+02  0.28214603368E+01 -0.25496728043E+03  0.28974469460E+03  0.12509034100E+03 0.  0.
         23    2    1    2    0    0  0.57342130298E+02 -0.28214603368E+01 -0.22239670858E+03  0.24779578053E+03  0.92985871611E+02 0.  0.
          5    1    3    3  502    0 -0.70780296840E+02 -0.43181422045E+02 -0.20088001528E+03  0.21735854842E+03  0.41800000000E+01 0. -1.
         -5    1    3    3    0  502  0.13438166543E+02  0.46002882382E+02 -0.54087265149E+02  0.72386146179E+02  0.41800000000E+01 0. -1.
        -11    1    4    4    0    0  0.13571500725E+02 -0.32432270197E+02 -0.16919282498E+03  0.17280697268E+03  0.00000000000E+00 0. -1.
         11    1    4    4    0    0  0.43770629573E+02  0.29610809860E+02 -0.53203883601E+02  0.74988807858E+02  0.00000000000E+00 0.  1.
</event>
<event>
 8    1  0.6849590E-009  0.1340391E+03  0.7561462E-02  0.1221583E+00
         -1   -1    0    0    0  501 -0.00000000000E+00  0.00000000000E+00  0.74927686888E+03  0.74927686888E+03  0.00000000000E+00 0.  1.
          1   -1    0    0  501    0  0.00000000000E+00 -0.00000000000E+00 -0.29513810425E+02  0.29513810425E+02  0.00000000000E+00 0. -1.
         25    2    1    2    0    0 -0.61855698803E+02 -0.78618011978E+02  0.38918584873E+03  0.42085634143E+03  0.12509003153E+03 0.  0.
         23    2    1    2    0    0  0.61855698803E+02  0.78618011978E+02  0.33057720973E+03  0.35793433788E+03  0.93961584485E+02 0.  0.
          5    1    3    3  502    0 -0.13083028634E+02  0.23611324772E+02  0.17907209954E+02  0.32661917642E+02  0.41800000000E+01 0.  1.
         -5    1    3    3    0  502 -0.48772670169E+02 -0.10222933675E+03  0.37127863877E+03  0.38819442379E+03  0.41800000000E+01 0.  1.
        -11    1    4    4    0    0  0.76816805392E+02  0.41306154864E+02  0.28033423101E+03  0.29358865968E+03  0.00000000000E+00 0.  1.
         11    1    4    4    0    0 -0.14961106588E+02  0.37311857115E+02  0.50242978724E+02  0.64345678198E+02  0.00000000000E+00 0. -1.
</event>
<event>
 8    1  0.6849590E-009  0.1358594E+03  0.7561462E-02  0.1219012E+00
         -1   -1    0    0    0  501 -0.00000000000E+00  0.00000000000E+00  0.75338074966E+02  0.75338074966E+02  0.00000000000E+00 0.  1.
          1   -1    0    0  501    0  0.00000000000E+00 -0.00000000000E+00 -0.31586940128E+03  0.31586940128E+03  0.00000000000E+00 0. -1.
         25    2    1    2    0    0 -0.83911115886E+02  0.30184578155E+02 -0.50628674546E+02  0.16175043893E+03  0.12509099760E+03 0.  0.
         23    2    1    2    0    0  0.83911115886E+02 -0.30184578155E+02 -0.18990265177E+03  0.22945703731E+03  0.92926480056E+02 0.  0.
          5    1    3    3  502    0  0.26664273094E+01  0.54141368921E+02 -0.46807272556E+02  0.71741137623E+02  0.41800000000E+01 0.  1.
         -5    1    3    3    0  502 -0.86577543195E+02 -0.23956790766E+02 -0.38214019895E+01  0.90009301312E+02  0.41800000000E+01 0.  1.
        -11    1    4    4    0    0 -0.10841610969E+02  0.18083324908E+02 -0.20258245303E+02  0.29239419811E+02  0.00000000000E+00 0.  1.
         11    1    4    4    0    0  0.94752726855E+02 -0.48267903063E+02 -0.16964440647E+03  0.20021761750E+03  0.00000000000E+00 0. -1.
</event>
<event>
 8    1  0.6849590E-009  0.1088707E+03  0.7561462E-02  0.1262676E+00
         -1   -1    0    0    0  501 -0.00000000000E+00  0.00000000000E+00  0.67430220863E+03  0.67430220863E+03  0.00000000000E+00 0.  1.
          1   -1    0    0  501    0  0.00000000000E+00 -0.00000000000E+00 -0.22262785196E+02  0.22262785196E+02  0.00000000000E+00 0. -1.
         25    2    1    2    0    0  0.89711357713E+01  0.51779163371E+02  0.42786531542E+03  0.44886312454E+03  0.12509122032E+03 0.  0.
         23    2    1    2    0    0 -0.89711357713E+01 -0.51779163371E+02  0.22417410802E+03  0.24770186928E+03  0.91327007533E+02 0.  0.
          5    1    3    3  502    0 -0.46205390579E+02 -0.15028745103E+02  0.14347907142E+03  0.15154048183E+03  0.41800000000E+01 0. -1.
         -5    1    3    3    0  502  0.55176526350E+02  0.66807908474E+02  0.28438624399E+03  0.29732264271E+03  0.41800000000E+01 0. -1.
        -11    1    4    4    0    0  0.17911359621E+02 -0.52358240362E+02  0.21027247350E+03  0.21743209342E+03  0.00000000000E+00 0.  1.
         11    1    4    4    0    0 -0.26882495392E+02  0.57907699050E+00  0.13901634520E+02  0.30269775867E+02  0.00000000000E+00 0. -1.
</event>
<event>
 8    1  0.6849590E-009  0.2649089E+03  0.7561462E-02  0.1104229E+00
         -1   -1    0    0    0  501 -0.00000000000E+00  0.00000000000E+00  0.10080097736E+03  0.10080097736E+03  0.00000000000E+00 0.  1.
          1   -1    0    0  501    0  0.00000000000E+00 -0.00000000000E+00 -0.77746068511E+03  0.77746068511E+03  0.00000000000E+00 0. -1.
         25    2    1    2    0    0  0.25302813173E+03  0.40802727424E+02 -0.30420988244E+03  0.41699107673E+03  0.12509919056E+03 0.  0.
         23    2    1    2    0    0 -0.25302813173E+03 -0.40802727424E+02 -0.37244982531E+03  0.46127058575E+03  0.91452626484E+02 0.  0.
          5    1    3    3  502    0  0.72666973914E+02 -0.47448928717E+00 -0.16080011368E+02  0.74543634225E+02  0.41800000000E+01 0.  1.
         -5    1    3    3    0  502  0.18036115782E+03  0.41277216711E+02 -0.28812987108E+03  0.34244744250E+03  0.41800000000E+01 0.  1.
        -11    1    4    4    0    0 -0.16806202123E+03  0.17412105115E+02 -0.22351071562E+03  0.28018755215E+03  0.00000000000E+00 0.  1.
         11    1    4    4    0    0 -0.84966110505E+02 -0.58214832538E+02 -0.14893910969E+03  0.18108303360E+03  0.00000000000E+00 0. -1.
</event>
<event>
 8    1  0.6849590E-009  0.1251851E+03  0.7561462E-02  0.1234780E+00
         -2   -1    0    0    0  501 -0.00000000000E+00  0.00000000000E+00  0.22505574775E+03  0.22505574775E+03  0.00000000000E+00 0.  1.
          2   -1    0    0  501    0  0.00000000000E+00 -0.00000000000E+00 -0.19138132490E+03  0.19138132490E+03  0.00000000000E+00 0. -1.
         25    2    1    2    0    0 -0.71504265213E+02 -0.70732524552E+02  0.16353895558E+03  0.22914714811E+03  0.12508986978E+03 0.  0.
         23    2    1    2    0    0  0.71504265213E+02  0.70732524552E+02 -0.12986453273E+03  0.18728992455E+03  0.89982048234E+02 0.  0.
          5    1    3    3  502    0  0.29906811269E+02 -0.20838892991E+02  0.92357393738E+01  0.37834482990E+02  0.41800000000E+01 0.  1.
         -5    1    3    3    0  502 -0.10141107648E+03 -0.49893631561E+02  0.15430321620E+03  0.19131266512E+03  0.41800000000E+01 0.  1.
        -11    1    4    4    0    0  0.49885083603E+02  0.48724243640E+02 -0.19087569292E+02  0.72297363616E+02  0.00000000000E+00 0. -1.
         11    1    4    4    0    0  0.21619181610E+02  0.22008280912E+02 -0.11077696344E+03  0.11499256093E+03  0.00000000000E+00 0.  1.
</event>
<event>
 8    1  0.6849590E-009  0.1120375E+03  0.7561462E-02  0.1256843E+00
          1   -1    0    0  501    0  0.00000000000E+00  0.00000000000E+00  0.49120970110E+02  0.49120970110E+02  0.00000000000E+00 0. -1.
         -1   -1    0    0    0  501 -0.00000000000E+00 -0.00000000000E+00 -0.47235531808E+03  0.47235531808E+03  0.00000000000E+00 0.  1.
         25    2    1    2    0    0  0.33623550698E+02  0.30725926308E+02 -0.63421910086E+02  0.14745911410E+03  0.12508887218E+03 0.  0.
         23    2    1    2    0    0 -0.33623550698E+02 -0.30725926308E+02 -0.35981243789E+03  0.37401717410E+03  0.91374122987E+02 0.  0.
          5    1    3    3  502    0 -0.39798561388E+02  0.32703018253E+02 -0.21628655605E+01  0.51725847299E+02  0.41800000000E+01 0.  1.
         -5    1    3    3    0  502  0.73422112086E+02 -0.19770919451E+01 -0.61259044525E+02  0.95733266798E+02  0.41800000000E+01 0.  1.
        -11    1    4    4    0    0  0.14392356805E+02 -0.46191496291E+02 -0.12944332457E+03  0.13818961082E+03  0.00000000000E+00 0.  1.
         11    1    4    4    0    0 -0.48015907503E+02  0.15465569983E+02 -0.23036911332E+03  0.23582756327E+03  0.00000000000E+00 0. -1.
</event>
<event>
 8    1  0.6849590E-009  0.1583222E+03  0.7561462E-02  0.1190604E+00
          1   -1    0    0  501    0  0.00000000000E+00  0.00000000000E+00  0.58221786979E+03  0.58221786979E+03  0.00000000000E+00 0. -1.
         -1   -1    0    0    0  501 -0.00000000000E+00 -0.00000000000E+00 -0.51604914272E+02  0.51604914272E+02  0.00000000000E+00 0.  1.
         25    2    1    2    0    0  0.53486657825E+02 -0.10973365256E+03  0.17711093934E+03  0.24883278004E+03  0.12508865063E+03 0.  0.
         23    2    1    2    0    0 -0.53486657825E+02  0.10973365256E+03  0.35350201618E+03  0.38499000402E+03  0.91385615316E+02 0.  0.
          5    1    3    3  502    0 -0.14420608829E+01  0.26205630105E+02  0.16300498655E+02  0.31176806206E+02  0.41800000000E+01 0. -1.
         -5    1    3    3    0  502  0.54928718708E+02 -0.13593928267E+03  0.16081044069E+03  0.21765597383E+03  0.41800000000E+01 0. -1.
        -11    1    4    4    0    0 -0.68000767298E+02  0.57104774404E+02  0.15019803273E+03  0.17448354836E+03  0.00000000000E+00 0.  1.
         11    1    4    4    0    0  0.14514109473E+02  0.52628878160E+02  0.20330398345E+03  0.21050645566E+03  0.00000000000E+00 0. -1.
</event>
<event>
 7    1  0.6849590E-009  0.2261697E+03  0.7561462E-02  0.1129365E+00
         -1   -1    0    0    0  501 -0.00000000000E+00  0.00000000000E+00  0.29530593318E+03  0.29530593318E+03  0.00000000000E+00 0.  1.
          1   -1    0    0  501    0  0.00000000000E+00 -0.00000000000E+00 -0.22115614852E+03  0.22115614852E+03  0.00000000000E+00 0. -1.
         25    2    1    2    0    0 -0.20658259975E+03 -0.12571703337E+02  0.11423280583E+03  0.26746519334E+03  0.12511625584E+03 0.  0.
          5    1    3    3  502    0 -0.21566366317E+03 -0.15497913367E+02  0.12715132153E+03  0.25087034878E+03  0.41800000000E+01 0.  1.
         -5    1    3    3    0  502  0.90810634178E+01  0.29262100301E+01 -0.12918515704E+02  0.16594844558E+02  0.41800000000E+01 0.  1.
        -11    1    1    2    0    0  0.80273191659E+02  0.49198389571E+02  0.31480848086E+02  0.99273917177E+02  0.00000000000E+00 0.  1.
         11    1    1    2    0    0  0.12630940809E+03 -0.36626686234E+02 -0.71563869245E+02  0.14972297118E+03  0.00000000000E+00 0. -1.
</event>
<event>
 8    1  0.6849590E-009  0.1677897E+03  0.7561462E-02  0.1180173E+00
         -2   -1    0    0    0  501 -0.00000000000E+00  0.00000000000E+00  0.24244286399E+02  0.24244286399E+02  0.00000000000E+00 0.  1.
          2   -1    0    0  501    0  0.00000000000E+00 -0.00000000000E+00 -0.15417693782E+04  0.15417693782E+04  0.00000000000E+00 0. -1.
         25    2    1    2    0    0 -0.21725960005E+02  0.15833782935E+03 -0.78793126511E+03  0.81364913290E+03  0.12508536042E+03 0.  0.
         23    2    1    2    0    0  0.21725960005E+02 -0.15833782935E+03 -0.72959382664E+03  0.75236453165E+03  0.90566832041E+02 0.  0.
          5    1    3    3  502    0 -0.24557746820E+02  0.12259880776E+03 -0.30907097468E+03  0.33343048808E+03  0.41800000000E+01 0.  1.
         -5    1    3    3    0  502  0.28317868152E+01  0.35739021592E+02 -0.47886029044E+03  0.48021864482E+03  0.41800000000E+01 0.  1.
        -11    1    4    4    0    0 -0.10162268246E+02 -0.13369594100E+03 -0.64329528064E+03  0.65712000002E+03  0.00000000000E+00 0. -1.
         11    1    4    4    0    0  0.31888228251E+02 -0.24641888351E+02 -0.86298546003E+02  0.95244531626E+02  0.00000000000E+00 0.  1.
</event>
<event>
 8    1  0.6849590E-009  0.7037901E+02  0.7561462E-02  0.1358809E+00
         -3   -1    0    0    0  501 -0.00000000000E+00  0.00000000000E+00  0.43267911840E+03  0.43267911840E+03  0.00000000000E+00 0.  1.
          3   -1    0    0  501    0  0.00000000000E+00 -0.00000000000E+00 -0.56852555242E+02  0.56852555242E+02  0.00000000000E+00 0. -1.
         25    2    1    2    0    0 -0.54373609537E+02 -0.28005063708E+02  0.35072048866E+03  0.37734981855E+03  0.12508897388E+03 0.  0.
         23    2    1    2    0    0  0.54373609537E+02  0.28005063708E+02  0.25106074496E+02  0.11218185509E+03  0.90629358532E+02 0.  0.
          5    1    3    3  502    0 -0.58706973959E+02 -0.89210468056E+01  0.35228358832E+03  0.35727761317E+03  0.41800000000E+01 0. -1.
         -5    1    3    3    0  502  0.43333644220E+01 -0.19084016902E+02 -0.15630996639E+01  0.20072205382E+02  0.41800000000E+01 0. -1.
        -11    1    4    4    0    0  0.43099594309E+02  0.23384486444E+02 -0.28833080087E+02  0.56883703669E+02  0.00000000000E+00 0. -1.
         11    1    4    4    0    0  0.11274015228E+02  0.46205772640E+01  0.53939154583E+02  0.55298151423E+02  0.00000000000E+00 0.  1.
</event>
<event>
 8    1  0.6849590E-009  0.1579018E+03  0.7561462E-02  0.1191086E+00
          1   -1    0    0  501    0  0.00000000000E+00  0.00000000000E+00  0.11054503397E+03  0.11054503397E+03  0.00000000000E+00 0. -1.
         -1   -1    0    0    0  501 -0.00000000000E+00 -0.00000000000E+00 -0.30716242745E+03  0.30716242745E+03  0.00000000000E+00 0.  1.
         25    2    1    2    0    0 -0.13149443904E+03  0.61650959023E+01 -0.30434095400E+02  0.18412711056E+03  0.12509101795E+03 0.  0.
         23    2    1    2    0    0  0.13149443904E+03 -0.61650959023E+01 -0.16618329808E+03  0.23358035087E+03  0.98051495874E+02 0.  0.
          5    1    3    3  502    0 -0.12562538641E+03 -0.41986702265E+02 -0.27538896875E+02  0.13535318289E+03  0.41800000000E+01 0.  1.
         -5    1    3    3    0  502 -0.58690526319E+01  0.48151798167E+02 -0.28951985248E+01  0.48773927666E+02  0.41800000000E+01 0.  1.
        -11    1    4    4    0    0  0.14934256131E+02 -0.99954081214E+01  0.11286625453E+02  0.21220935508E+02  0.00000000000E+00 0. -1.
         11    1    4    4    0    0  0.11656018291E+03  0.38303122191E+01 -0.17746992354E+03  0.21235941536E+03  0.00000000000E+00 0.  1.
</event>
<event>
 8    1  0.6849590E-009  0.2260715E+03  0.7561462E-02  0.1129436E+00
         -1   -1    0    0    0  501 -0.00000000000E+00  0.00000000000E+00  0.55924751715E+03  0.55924751715E+03  0.00000000000E+00 0.  1.
          1   -1    0    0  501    0  0.00000000000E+00 -0.00000000000E+00 -0.10786531174E+03  0.10786531174E+03  0.00000000000E+00 0. -1.
         25    2    1    2    0    0 -0.13653266367E+02 -0.20629882544E+03  0.33387600766E+03  0.41214851796E+03  0.12509034855E+03 0.  0.
         23    2    1    2    0    0  0.13653266367E+02  0.20629882544E+03  0.11750619775E+03  0.25496431093E+03  0.91942788073E+02 0.  0.
          5    1    3    3  502    0  0.26875395567E+02  0.31143949216E+01  0.27424614582E+02  0.38750073904E+02  0.41800000000E+01 0. -1.
         -5    1    3    3    0  502 -0.40528661934E+02 -0.20941322037E+03  0.30645139308E+03  0.37339844405E+03  0.41800000000E+01 0. -1.
        -11    1    4    4    0    0 -0.15444724244E+02  0.46428581593E+02  0.70480136435E+02  0.85799780463E+02  0.00000000000E+00 0.  1.
         11    1    4    4    0    0  0.29097990611E+02  0.15987024385E+03  0.47026061314E+02  0.16916453047E+03  0.00000000000E+00 0. -1.
</event>
<event>
 8    1  0.6849590E-009  0.5745910E+02  0.7561462E-02  0.1408815E+00
          2   -1    0    0  501    0  0.00000000000E+00  0.00000000000E+00  0.59626870233E+02  0.59626870233E+02  0.00000000000E+00 0. -1.
         -2   -1    0    0    0  501 -0.00000000000E+00 -0.00000000000E+00 -0.29692666209E+03  0.29692666209E+03  0.00000000000E+00 0.  1.
         25    2    1    2    0    0 -0.14034079417E+02 -0.10765181556E+02 -0.22986086565E+03  0.26229536431E+03  0.12509994430E+03 0.  0.
         23    2    1    2    0    0  0.14034079417E+02  0.10765181556E+02 -0.74389262083E+01  0.94258168013E+02  0.92284452077E+02 0.  0.
          5    1    3    3  502    0 -0.11638252811E+02  0.22828643544E+02 -0.22673226468E+03  0.22821390874E+03  0.41800000000E+01 0. -1.
         -5    1    3    3    0  502 -0.23958266056E+01 -0.33593825099E+02 -0.31286009689E+01  0.34081455573E+02  0.41800000000E+01 0. -1.
        -11    1    4    4    0    0 -0.17896996771E+02 -0.60980807829E+01  0.34239094791E+02  0.39112717814E+02  0.00000000000E+00 0. -1.
         11    1    4    4    0    0  0.31931076188E+02  0.16863262339E+02 -0.41678021000E+02  0.55145450199E+02  0.00000000000E+00 0.  1.
</event>
<event>
 8    1  0.6849590E-009  0.1696763E+03  0.7561462E-02  0.1178186E+00
         -1   -1    0    0    0  501 -0.00000000000E+00  0.00000000000E+00  0.95613893859E+02  0.95613893859E+02  0.00000000000E+00 0.  1.
          1   -1    0    0  501    0  0.00000000000E+00 -0.00000000000E+00 -0.47020190892E+03  0.47020190892E+03  0.00000000000E+00 0. -1.
         25    2    1    2    0    0  0.13766798781E+03  0.60336791464E+02 -0.58677815075E+02  0.20416777670E+03  0.12509353217E+03 0.  0.
         23    2    1    2    0    0 -0.13766798781E+03 -0.60336791464E+02 -0.31591019999E+03  0.36164802608E+03  0.91635348202E+02 0.  0.
          5    1    3    3  502    0  0.12545255293E+03  0.73148430138E+02 -0.26965386048E+01  0.14530581403E+03  0.41800000000E+01 0. -1.
         -5    1    3    3    0  502  0.12215434872E+02 -0.12811638674E+02 -0.55981276470E+02  0.58861962674E+02  0.41800000000E+01 0. -1.
        -11    1    4    4    0    0 -0.14360083913E+03 -0.32251528150E+02 -0.25851827365E+03  0.29747783091E+03  0.00000000000E+00 0. -1.
         11    1    4    4    0    0  0.59328513262E+01 -0.28085263314E+02 -0.57391926331E+02  0.64170195171E+02  0.00000000000E+00 0.  1.
</event>
<event>
 8    1  0.6849590E-009  0.8980931E+02  0.7561462E-02  0.1303314E+00
          2   -1    0    0  501    0  0.00000000000E+00  0.00000000000E+00  0.66385092060E+03  0.66385092060E+03  0.00000000000E+00 0. -1.
         -2   -1    0    0    0  501 -0.00000000000E+00 -0.00000000000E+00 -0.18594865561E+02  0.18594865561E+02  0.00000000000E+00 0.  1.
         25    2    1    2    0    0 -0.24393808249E+02 -0.59115583755E+01  0.43068088311E+03  0.44918095988E+03  0.12508999654E+03 0.  0.
         23    2    1    2    0    0  0.24393808249E+02  0.59115583755E+01  0.21457517193E+03  0.23326482629E+03  0.87977101405E+02 0.  0.
          5    1    3    3  502    0 -0.56381824058E+02  0.30265821379E+02  0.34346731448E+03  0.34940263099E+03  0.41800000000E+01 0.  1.
         -5    1    3    3    0  502  0.31988015810E+02 -0.36177379755E+02  0.87213568632E+02  0.99778328884E+02  0.41800000000E+01 0.  1.
        -11    1    4    4    0    0 -0.43332577621E+01 -0.24677682755E+02  0.14736308728E+02  0.29067575474E+02  0.00000000000E+00 0.  1.
         11    1    4    4    0    0  0.28727066011E+02  0.30589241131E+02  0.19983886320E+03  0.20419725082E+03  0.00000000000E+00 0. -1.
</event>
<event>
 8    1  0.6849590E-009  0.1096039E+03  0.7561462E-02  0.1261305E+00
          2   -1    0    0  501    0  0.00000000000E+00  0.00000000000E+00  0.32582253253E+03  0.32582253253E+03  0.00000000000E+00 0. -1.
         -2   -1    0    0    0  501 -0.00000000000E+00 -0.00000000000E+00 -0.57172990942E+02  0.57172990942E+02  0.00000000000E+00 0.  1.
         25    2    1    2    0    0  0.38461343220E+02 -0.14378611663E+02  0.24752124318E+03  0.28035846672E+03  0.12509230449E+03 0.  0.
         23    2    1    2    0    0 -0.38461343220E+02  0.14378611663E+02  0.21128298413E+02  0.10263705675E+03  0.91662102471E+02 0.  0.
          5    1    3    3  502    0 -0.17790500669E+02  0.42908169343E+02  0.57544490129E+02  0.74070599124E+02  0.41800000000E+01 0.  1.
         -5    1    3    3    0  502  0.56251843890E+02 -0.57286781006E+02  0.18997675305E+03  0.20628786760E+03  0.41800000000E+01 0.  1.
        -11    1    4    4    0    0  0.61459608232E+01  0.40176630118E+02  0.29779197667E+02  0.50385861665E+02  0.00000000000E+00 0. -1.
         11    1    4    4    0    0 -0.44607304044E+02 -0.25798018455E+02 -0.86508992535E+01  0.52251195088E+02  0.00000000000E+00 0.  1.
</event>
<event>
 8    1  0.6849590E-009  0.7694276E+02  0.7561462E-02  0.1337958E+00
          2   -1    0    0  501    0  0.00000000000E+00  0.00000000000E+00  0.66600666214E+02  0.66600666214E+02  0.00000000000E+00 0. -1.
         -2   -1    0    0    0  501 -0.00000000000E+00 -0.00000000000E+00 -0.19878334207E+03  0.19878334207E+03  0.00000000000E+00 0.  1.
         25    2    1    2    0    0 -0.19324222614E+00 -0.26764228463E+02 -0.99533990997E+02  0.16208145773E+03  0.12508805822E+03 0.  0.
         23    2    1    2    0    0  0.19324222614E+00  0.26764228463E+02 -0.32648684858E+02  0.10330255055E+03  0.94282124817E+02 0.  0.
          5    1    3    3  502    0 -0.17428779075E+02  0.84734870606E+01  0.24736004042E+02  0.31700230582E+02  0.41800000000E+01 0.  1.
         -5    1    3    3    0  502  0.17235536849E+02 -0.35237715524E+02 -0.12426999504E+03  0.13038122715E+03  0.41800000000E+01 0.  1.
        -11    1    4    4    0    0 -0.42539796573E+02 -0.28258720850E+01 -0.28239883712E+02  0.51138154812E+02  0.00000000000E+00 0.  1.
         11    1    4    4    0    0  0.42733038799E+02  0.29590100548E+02 -0.44088011461E+01  0.52164395741E+02  0.00000000000E+00 0. -1.
</event>
<event>
 7    1  0.6849590E-009  0.1231205E+03  0.7561462E-02  0.1238036E+00
          2   -1    0    0  501    0  0.00000000000E+00  0.00000000000E+00  0.46674096932E+03  0.46674096932E+03  0.00000000000E+00 0. -1.
         -2   -1    0    0    0  501 -0.00000000000E+00 -0.00000000000E+00 -0.42900894307E+02  0.42900894307E+02  0.00000000000E+00 0.  1.
         23    2    1    2    0    0  0.86731784591E+02  0.95442177381E+01  0.24235238151E+03  0.27327477697E+03  0.91273941280E+02 0.  0.
          5    1    1    2  502    0 -0.66807730154E+01  0.50588324224E+02  0.59315292652E+02  0.78355520663E+02  0.41800000000E+01 0. -1.
         -5    1    1    2    0  502 -0.80051011576E+02 -0.60132541963E+02  0.12217240086E+03  0.15801156599E+03  0.41800000000E+01 0. -1.
        -11    1    3    3    0    0  0.57601763869E+02 -0.11704127315E+02  0.48810529994E+02  0.76402994937E+02  0.00000000000E+00 0.  1.
         11    1    3    3    0    0  0.29130020722E+02  0.21248345053E+02  0.19354185151E+03  0.19687178204E+03  0.00000000000E+00 0. -1.
</event>
<event>
 8    1  0.6849590E-009  0.8549343E+02  0.7561462E-02  0.1314147E+00
         -3   -1    0    0    0  501 -0.00000000000E+00  0.00000000000E+00  0.27735334083E+03  0.27735334083E+03  0.00000000000E+00 0.  1.
          3   -1    0    0  501    0  0.00000000000E+00 -0.00000000000E+00 -0.54839774002E+02  0.54839774002E+02  0.00000000000E+00 0. -1.
         25    2    1    2    0    0 -0.37810548113E+02  0.20900546344E+02  0.69011699987E+02  0.14923483032E+03  0.12506777946E+03 0.  0.
         23    2    1    2    0    0  0.37810548113E+02 -0.20900546344E+02  0.15350186685E+03  0.18295828452E+03  0.89690804230E+02 0.  0.
          5    1    3    3  502    0 -0.36551137514E+02  0.46226904804E+02  0.95519723932E+02  0.11231385685E+03  0.41800000000E+01 0. -1.
         -5    1    3    3    0  502 -0.12594105985E+01 -0.25326358460E+02 -0.26508023945E+02  0.36920973462E+02  0.41800000000E+01 0. -1.
        -11    1    4    4    0    0 -0.23544877446E+00 -0.42471331565E+02  0.30158148074E+02  0.52090146249E+02  0.00000000000E+00 0. -1.
         11    1    4    4    0    0  0.38045996887E+02  0.21570785220E+02  0.12334371877E+03  0.13086813827E+03  0.00000000000E+00 0.  1.
</event>
<event>
 8    1  0.6849590E-009  0.2959994E+03  0.7561462E-02  0.1087258E+00
          2   -1    0    0  501    0  0.00000000000E+00  0.00000000000E+00  0.21233000271E+04  0.21233000271E+04  0.00000000000E+00 0.  1.
         -2   -1    0    0    0  501 -0.00000000000E+00 -0.00000000000E+00 -0.44423762122E+02  0.44423762122E+02  0.00000000000E+00 0. -1.
         25    2    1    2    0    0 -0.11295882636E+03  0.25764768527E+03  0.84509105404E+03  0.89942636365E+03  0.12508744070E+03 0.  0.
         23    2    1    2    0    0  0.11295882636E+03 -0.25764768527E+03  0.12337852109E+04  0.12682974256E+04  0.84913996636E+02 0.  0.
          5    1    3    3  502    0  0.25997159759E+02  0.65805362485E+02  0.18592961656E+03  0.19898113670E+03  0.41800000000E+01 0.  1.
         -5    1    3    3    0  502 -0.13895598612E+03  0.19184232278E+03  0.65916143748E+03  0.70044522694E+03  0.41800000000E+01 0.  1.
        -11    1    4    4    0    0 -0.20730942405E+00 -0.29795739785E+02  0.56911383974E+02  0.64239666191E+02  0.00000000000E+00 0. -1.
         11    1    4    4    0    0  0.11316613578E+03 -0.22785194548E+03  0.11768738270E+04  0.12040577594E+04  0.00000000000E+00 0.  1.
</event>
<event>
 8    1  0.6849590E-009  0.1177244E+03  0.7561462E-02  0.1246899E+00
          2   -1    0    0  501    0  0.00000000000E+00  0.00000000000E+00  0.37662835440E+03  0.37662835440E+03  0.00000000000E+00 0. -1.
         -2   -1    0    0    0  501 -0.00000000000E+00 -0.00000000000E+00 -0.57900605788E+02  0.57900605788E+02  0.00000000000E+00 0.  1.
         25    2    1    2    0    0 -0.24549784328E+02 -0.67940336785E+02  0.70708972884E+02  0.16083459888E+03  0.12509767415E+03 0.  0.
         23    2    1    2    0    0  0.24549784328E+02  0.67940336785E+02  0.24801877573E+03  0.27369436131E+03  0.90425157039E+02 0.  0.
          5    1    3    3  502    0 -0.55387536485E+02 -0.79173410324E+02  0.81034676620E+02  0.12617566847E+03  0.41800000000E+01 0. -1.
         -5    1    3    3    0  502  0.30837752157E+02  0.11233073538E+02 -0.10325703736E+02  0.34658930405E+02  0.41800000000E+01 0. -1.
        -11    1    4    4    0    0  0.36031392962E+02 -0.71712585797E+00  0.14465021102E+03  0.14907199300E+03  0.00000000000E+00 0. -1.
         11    1    4    4    0    0 -0.11481608634E+02  0.68657462643E+02  0.10336856471E+03  0.12462236831E+03  0.00000000000E+00 0.  1.
</event>
<event>
 8    1  0.6849590E-009  0.1426378E+03  0.7561462E-02  0.1209823E+00
         -2   -1    0    0    0  501 -0.00000000000E+00  0.00000000000E+00  0.20808060963E+03  0.20808060963E+03  0.00000000000E+00 0.  1.
          2   -1    0    0  501    0  0.00000000000E+00 -0.00000000000E+00 -0.13667720947E+03  0.13667720947E+03  0.00000000000E+00 0. -1.
         25    2    1    2    0    0  0.67615604441E+02  0.70270527633E+02  0.12478435380E+03  0.20181276448E+03  0.12508972755E+03 0.  0.
         23    2    1    2    0    0 -0.67615604441E+02 -0.70270527633E+02 -0.53380953641E+02  0.14294505462E+03  0.89855135702E+02 0.  0.
          5    1    3    3  502    0  0.59567584798E+02  0.10281715539E+03  0.11767621062E+03  0.16728666279E+03  0.41800000000E+01 0.  1.
         -5    1    3    3    0  502  0.80480196428E+01 -0.32546627761E+02  0.71081431843E+01  0.34526101696E+02  0.41800000000E+01 0.  1.
        -11    1    4    4    0    0 -0.60685913520E+02  0.12845966611E+01 -0.25487145475E+02  0.65833311270E+02  0.00000000000E+00 0. -1.
         11    1    4    4    0    0 -0.69296909211E+01 -0.71555124295E+02 -0.27893808165E+02  0.77111743354E+02  0.00000000000E+00 0.  1.
</event>
<event>
 8    1  0.6849590E-009  0.1206131E+03  0.7561462E-02  0.1242089E+00
         -2   -1    0    0    0  501 -0.00000000000E+00  0.00000000000E+00  0.39098681126E+03  0.39098681126E+03  0.00000000000E+00 0.  1.
          2   -1    0    0  501    0  0.00000000000E+00 -0.00000000000E+00 -0.43088795718E+02  0.43088795718E+02  0.00000000000E+00 0. -1.
         25    2    1    2    0    0  0.62014852529E+02 -0.20701746486E+02  0.14592447697E+03  0.20300792555E+03  0.12507541970E+03 0.  0.
         23    2    1    2    0    0 -0.62014852529E+02  0.20701746486E+02  0.20197353857E+03  0.23106768143E+03  0.91239020593E+02 0.  0.
          5    1    3    3  502    0 -0.37663454304E+02 -0.51473212845E+01  0.55914163007E+02  0.67741395994E+02  0.41800000000E+01 0.  1.
         -5    1    3    3    0  502  0.99678306834E+02 -0.15554425202E+02  0.90010313966E+02  0.13526652955E+03  0.41800000000E+01 0.  1.
        -11    1    4    4    0    0 -0.55538360980E+02 -0.21323284786E+02  0.67221067357E+02  0.89765605390E+02  0.00000000000E+00 0. -1.
         11    1    4    4    0    0 -0.64764915495E+01  0.42025031273E+02  0.13475247121E+03  0.14130207604E+03  0.00000000000E+00 0.  1.
</event>
<event>
 8    1  0.6849590E-009  0.1046253E+03  0.7561462E-02  0.1270860E+00
          2   -1    0    0  501    0  0.00000000000E+00  0.00000000000E+00  0.10613942188E+04  0.10613942188E+04  0.00000000000E+00 0.  1.
         -2   -1    0    0    0  501 -0.00000000000E+00 -0.00000000000E+00 -0.13595875570E+02  0.13595875570E+02  0.00000000000E+00 0. -1.
         25    2    1    2    0    0 -0.40001240025E+02 -0.16226604721E+02  0.71483301758E+03  0.72697814522E+03  0.12509028216E+03 0.  0.
         23    2    1    2    0    0  0.40001240025E+02  0.16226604721E+02  0.33296532565E+03  0.34801194915E+03  0.91558761279E+02 0.  0.
          5    1    3    3  502    0  0.16154358680E+02 -0.58411502398E+02  0.38083350176E+03  0.38564814972E+03  0.41800000000E+01 0.  1.
         -5    1    3    3    0  502 -0.56155598705E+02  0.42184897678E+02  0.33399951582E+03  0.34132999550E+03  0.41800000000E+01 0.  1.
        -11    1    4    4    0    0 -0.18218125027E+02  0.36319758379E+01  0.13306664500E+02  0.22850790973E+02  0.00000000000E+00 0. -1.
         11    1    4    4    0    0  0.58219365052E+02  0.12594628883E+02  0.31965866115E+03  0.32516115818E+03  0.00000000000E+00 0.  1.
</event>
<event>
 8    1  0.6849590E-009  0.1148005E+03  0.7561462E-02  0.1251930E+00
          2   -1    0    0  501    0  0.00000000000E+00  0.00000000000E+00  0.46984954340E+02  0.46984954340E+02  0.00000000000E+00 0.  1.
         -2   -1    0    0    0  501 -0.00000000000E+00 -0.00000000000E+00 -0.35260244880E+03  0.35260244880E+03  0.00000000000E+00 0. -1.
         25    2    1    2    0    0 -0.34042207304E+02  0.59904265521E+02 -0.17816716680E+03  0.22833957272E+03  0.12509207905E+03 0.  0.
         23    2    1    2    0    0  0.34042207304E+02 -0.59904265521E+02 -0.12745032766E+03  0.17124783041E+03  0.91295347607E+02 0.  0.
          5    1    3    3  502    0  0.42245225162E+02 -0.12466747542E+01 -0.35597913624E+02  0.55415675592E+02  0.41800000000E+01 0. -1.
         -5    1    3    3    0  502 -0.76287432467E+02  0.61150940275E+02 -0.14256925317E+03  0.17292389713E+03  0.41800000000E+01 0. -1.
        -11    1    4    4    0    0  0.10590679485E+01 -0.56053427730E+02 -0.21214518780E+02  0.59943007868E+02  0.00000000000E+00 0.  1.
         11    1    4    4    0    0  0.32983139356E+02 -0.38508377913E+01 -0.10623580888E+03  0.11130482254E+03  0.00000000000E+00 0. -1.
</event>
<event>
 8    1  0.6849590E-009  0.1840424E+03  0.7561462E-02  0.1163947E+00
          1   -1    0    0  501    0  0.00000000000E+00  0.00000000000E+00  0.34237796609E+03  0.34237796609E+03  0.00000000000E+00 0. -1.
         -1   -1    0    0    0  501 -0.00000000000E+00 -0.00000000000E+00 -0.10396532654E+03  0.10396532654E+03  0.00000000000E+00 0.  1.
         25    2    1    2    0    0  0.12068646545E+02 -0.15008473848E+03  0.15791006994E+03  0.25150321422E+03  0.12508875098E+03 0.  0.
         23    2    1    2    0    0 -0.12068646545E+02  0.15008473848E+03  0.80502569614E+02  0.19484007842E+03  0.93866455620E+02 0.  0.
          5    1    3    3  502    0 -0.51939173787E+02 -0.53228942614E+02  0.90422973088E+02  0.11715282569E+03  0.41800000000E+01 0. -1.
         -5    1    3    3    0  502  0.64007820332E+02 -0.96855795864E+02  0.67487096849E+02  0.13435038853E+03  0.41800000000E+01 0. -1.
        -11    1    4    4    0    0  0.31945733314E+02  0.14886222008E+02  0.16584862454E+02  0.38951086574E+02  0.00000000000E+00 0.  1.
         11    1    4    4    0    0 -0.44014379860E+02  0.13519851647E+03  0.63917707159E+02  0.15588899185E+03  0.00000000000E+00 0. -1.
</event>
<event>
 8    1  0.6849590E-009  0.1420113E+03  0.7561462E-02  0.1210648E+00
         -1   -1    0    0    0  501 -0.00000000000E+00  0.00000000000E+00  0.76890265685E+02  0.76890265685E+02  0.00000000000E+00 0.  1.
          1   -1    0    0  501    0  0.00000000000E+00 -0.00000000000E+00 -0.38427842019E+03  0.38427842019E+03  0.00000000000E+00 0. -1.
         25    2    1    2    0    0 -0.29591241844E+02  0.11223933797E+03 -0.73466822746E+02  0.18579649395E+03  0.12509857129E+03 0.  0.
         23    2    1    2    0    0  0.29591241844E+02 -0.11223933797E+03 -0.23392133176E+03  0.27537219192E+03  0.87391899219E+02 0.  0.
          5    1    3    3  502    0 -0.35495676037E+02  0.12981505002E+03 -0.88872262308E+02  0.16133084528E+03  0.41800000000E+01 0.  1.
         -5    1    3    3    0  502  0.59044341929E+01 -0.17575712049E+02  0.15405439562E+02  0.24465648679E+02  0.41800000000E+01 0.  1.
        -11    1    4    4    0    0  0.44807095645E+02 -0.53959964674E+02 -0.63474773344E+02  0.94595985427E+02  0.00000000000E+00 0. -1.
         11    1    4    4    0    0 -0.15215853801E+02 -0.58279373299E+02 -0.17044655842E+03  0.18077620650E+03  0.00000000000E+00 0.  1.
</event>
<event>
 8    1  0.6849590E-009  0.8092557E+02  0.7561462E-02  0.1326445E+00
         -1   -1    0    0    0  501 -0.00000000000E+00  0.00000000000E+00  0.85109288883E+02  0.85109288883E+02  0.00000000000E+00 0.  1.
          1   -1    0    0  501    0  0.00000000000E+00 -0.00000000000E+00 -0.19652194706E+03  0.19652194706E+03  0.00000000000E+00 0. -1.
         25    2    1    2    0    0  0.22649582998E+02  0.66922254416E+02 -0.60940793089E+02  0.15605787686E+03  0.12509471979E+03 0.  0.
         23    2    1    2    0    0 -0.22649582998E+02 -0.66922254416E+02 -0.50471865090E+02  0.12557335909E+03  0.90717515404E+02 0.  0.
          5    1    3    3  502    0  0.39120965745E+02  0.46803995700E+02  0.25086611179E+02  0.66089896616E+02  0.41800000000E+01 0. -1.
         -5    1    3    3    0  502 -0.16471382747E+02  0.20118258716E+02 -0.86027404268E+02  0.89967980240E+02  0.41800000000E+01 0. -1.
        -11    1    4    4    0    0 -0.27517785778E+02 -0.55163517016E+02  0.11154033184E+02  0.62647063778E+02  0.00000000000E+00 0.  1.
         11    1    4    4    0    0  0.48682027797E+01 -0.11758737400E+02 -0.61625898274E+02  0.62926295311E+02  0.00000000000E+00 0. -1.
</event>
<event>
 8    1  0.6849590E-009  0.3175063E+03  0.7561462E-02  0.1076803E+00
         -1   -1    0    0    0  501 -0.00000000000E+00  0.00000000000E+00  0.16546008273E+03  0.16546008273E+03  0.00000000000E+00 0. -1.
          1   -1    0    0  501    0  0.00000000000E+00 -0.00000000000E+00 -0.63690964298E+03  0.63690964298E+03  0.00000000000E+00 0.  1.
         25    2    1    2    0    0 -0.23540973913E+03  0.19049548975E+03 -0.29140842056E+03  0.43849062994E+03  0.12509551582E+03 0.  0.
         23    2    1    2    0    0  0.23540973913E+03 -0.19049548975E+03 -0.18004113969E+03  0.36387909578E+03  0.91032452818E+02 0.  0.
          5    1    3    3  502    0 -0.20632773213E+03  0.20827816601E+03 -0.25739426450E+03  0.39015408146E+03  0.41800000000E+01 0. -1.
         -5    1    3    3    0  502 -0.29082007006E+02 -0.17782676261E+02 -0.34014156059E+02  0.48336548479E+02  0.41800000000E+01 0. -1.
        -11    1    4    4    0    0  0.53744554529E+02 -0.74733439982E+02 -0.16735038863E+02  0.93560812944E+02  0.00000000000E+00 0.  1.
         11    1    4    4    0    0  0.18166518461E+03 -0.11576204977E+03 -0.16330610083E+03  0.27031828283E+03  0.00000000000E+00 0. -1.
</event>
<event>
 8    1  0.6849590E-009  0.1006473E+03  0.7561462E-02  0.1278941E+00
         -4   -1    0    0    0  501 -0.00000000000E+00  0.00000000000E+00  0.16768515403E+03  0.16768515403E+03  0.00000000000E+00 0.  1.
          4   -1    0    0  501    0  0.00000000000E+00 -0.00000000000E+00 -0.92711888115E+02  0.92711888115E+02  0.00000000000E+00 0. -1.
         25    2    1    2    0    0  0.23908614415E+01 -0.33357407005E+02  0.96748975853E+02  0.16163553554E+03  0.12508896514E+03 0.  0.
         23    2    1    2    0    0 -0.23908614415E+01  0.33357407005E+02 -0.21775709942E+02  0.98761506606E+02  0.90339475442E+02 0.  0.
          5    1    3    3  502    0  0.40299129651E+02 -0.61131107853E+02  0.28531608832E+02  0.78692803359E+02  0.41800000000E+01 0.  1.
         -5    1    3    3    0  502 -0.37908268210E+02  0.27773700849E+02  0.68217367021E+02  0.82942732176E+02  0.41800000000E+01 0.  1.
        -11    1    4    4    0    0  0.27364505420E+02  0.41697536346E+02 -0.39063960337E+02  0.63352140385E+02  0.00000000000E+00 0. -1.
         11    1    4    4    0    0 -0.29755366861E+02 -0.83401293411E+01  0.17288250395E+02  0.35409366221E+02  0.00000000000E+00 0.  1.
</event>
<event>
 8    1  0.6849590E-009  0.1689729E+03  0.7561462E-02  0.1178923E+00
          1   -1    0    0  501    0  0.00000000000E+00  0.00000000000E+00  0.13944890227E+04  0.13944890227E+04  0.00000000000E+00 0. -1.
         -1   -1    0    0    0  501 -0.00000000000E+00 -0.00000000000E+00 -0.26978507989E+02  0.26978507989E+02  0.00000000000E+00 0.  1.
         25    2    1    2    0    0 -0.74394143036E+02  0.14035000958E+03  0.82223898184E+03  0.84673342985E+03  0.12509174333E+03 0.  0.
         23    2    1    2    0    0  0.74394143036E+02 -0.14035000958E+03  0.54527153290E+03  0.57473410088E+03  0.88122803003E+02 0.  0.
          5    1    3    3  502    0 -0.56169467314E+02  0.10933340010E+03  0.78576917965E+03  0.79533607835E+03  0.41800000000E+01 0.  1.
         -5    1    3    3    0  502 -0.18224675722E+02  0.31016609482E+02  0.36469802194E+02  0.51397351498E+02  0.41800000000E+01 0.  1.
        -11    1    4    4    0    0  0.15431292086E+02 -0.11246050202E+03  0.39336619304E+03  0.40941720911E+03  0.00000000000E+00 0. -1.
         11    1    4    4    0    0  0.58962850950E+02 -0.27889507565E+02  0.15190533986E+03  0.16531689176E+03  0.00000000000E+00 0.  1.
</event>
<event>
 8    1  0.6849590E-009  0.9902474E+02  0.7561462E-02  0.1282360E+00
         -2   -1    0    0    0  501 -0.00000000000E+00  0.00000000000E+00  0.65140474976E+02  0.65140474976E+02  0.00000000000E+00 0. -1.
          2   -1    0    0  501    0  0.00000000000E+00 -0.00000000000E+00 -0.27954436368E+03  0.27954436368E+03  0.00000000000E+00 0.  1.
         25    2    1    2    0    0 -0.64028393686E+02 -0.17805080086E+02 -0.62465192137E+02  0.15480852860E+03  0.12508846559E+03 0.  0.
         23    2    1    2    0    0  0.64028393686E+02  0.17805080086E+02 -0.15193869657E+03  0.18987631006E+03  0.92471560668E+02 0.  0.
          5    1    3    3  502    0 -0.76840048344E+02 -0.21308657423E+02  0.10490840702E+02  0.80535594921E+02  0.41800000000E+01 0. -1.
         -5    1    3    3    0  502  0.12811654658E+02  0.35035773367E+01 -0.72956032839E+02  0.74272933676E+02  0.41800000000E+01 0. -1.
        -11    1    4    4    0    0  0.41951188192E+02  0.49981465887E+02 -0.54867761538E+02  0.85255617874E+02  0.00000000000E+00 0. -1.
         11    1    4    4    0    0  0.22077205494E+02 -0.32176385802E+02 -0.97070935033E+02  0.10462069219E+03  0.00000000000E+00 0.  1.
</event>
<event>
 8    1  0.6849590E-009  0.6527475E+02  0.7561462E-02  0.1376941E+00
          1   -1    0    0  501    0  0.00000000000E+00  0.00000000000E+00  0.30414493530E+03  0.30414493530E+03  0.00000000000E+00 0. -1.
         -1   -1    0    0    0  501 -0.00000000000E+00 -0.00000000000E+00 -0.65340588251E+02  0.65340588251E+02  0.00000000000E+00 0.  1.
         25    2    1    2    0    0 -0.12942468709E+02  0.15674008372E+02  0.17782993411E+02  0.12797322739E+03  0.12509088712E+03 0.  0.
         23    2    1    2    0    0  0.12942468709E+02 -0.15674008372E+02  0.22102135364E+03  0.24151229616E+03  0.95208026955E+02 0.  0.
          5    1    3    3  502    0 -0.65412912795E+01  0.44772316588E+02  0.60537447317E+02  0.75694146087E+02  0.41800000000E+01 0.  1.
         -5    1    3    3    0  502 -0.64011774294E+01 -0.29098308216E+02 -0.42754453905E+02  0.52279081306E+02  0.41800000000E+01 0.  1.
        -11    1    4    4    0    0 -0.14834762344E+02  0.94338542706E+01  0.24365364445E+00  0.17582012038E+02  0.00000000000E+00 0.  1.
         11    1    4    4    0    0  0.27777231053E+02 -0.25107862643E+02  0.22077770000E+03  0.22393028412E+03  0.00000000000E+00 0. -1.
</event>
<event>
 8    1  0.6849590E-009  0.1168572E+03  0.7561462E-02  0.1248374E+00
          2   -1    0    0  501    0  0.00000000000E+00  0.00000000000E+00  0.91373288776E+03  0.91373288776E+03  0.00000000000E+00 0. -1.
         -2   -1    0    0    0  501 -0.00000000000E+00 -0.00000000000E+00 -0.27686288075E+02  0.27686288075E+02  0.00000000000E+00 0.  1.
         25    2    1    2    0    0 -0.54066266256E+02 -0.62738250446E+02  0.71733476131E+03  0.73285437211E+03  0.12508845554E+03 0.  0.
         23    2    1    2    0    0  0.54066266256E+02  0.62738250446E+02  0.16871183837E+03  0.20856480373E+03  0.90423137151E+02 0.  0.
          5    1    3    3  502    0 -0.35956518615E+02 -0.88015458144E+02  0.30917980940E+03  0.32349531533E+03  0.41800000000E+01 0. -1.
         -5    1    3    3    0  502 -0.18109747641E+02  0.25277207698E+02  0.40815495192E+03  0.40935905677E+03  0.41800000000E+01 0. -1.
        -11    1    4    4    0    0  0.68818928720E+02  0.61622649159E+02  0.91764210522E+02  0.13020778077E+03  0.00000000000E+00 0.  1.
         11    1    4    4    0    0 -0.14752662464E+02  0.11156012872E+01  0.76947627847E+02  0.78357022961E+02  0.00000000000E+00 0. -1.
</event>
<event>
 8    1  0.6849590E-009  0.7637310E+02  0.7561462E-02  0.1339671E+00
          2   -1    0    0  501    0  0.00000000000E+00  0.00000000000E+00  0.69328438927E+03  0.69328438927E+03  0.00000000000E+00 0. -1.
         -2   -1    0    0    0  501 -0.00000000000E+00 -0.00000000000E+00 -0.18714182029E+02  0.18714182029E+02  0.00000000000E+00 0.  1.
         25    2    1    2    0    0 -0.15795328329E+02 -0.56555762075E+01  0.28855275156E+03  0.31494756610E+03  0.12509117082E+03 0.  0.
         23    2    1    2    0    0  0.15795328329E+02  0.56555762075E+01  0.38601745567E+03  0.39705100520E+03  0.91425087939E+02 0.  0.
          5    1    3    3  502    0  0.20941400116E+02  0.37018107288E+01 -0.21263466485E+01  0.21777038172E+02  0.41800000000E+01 0. -1.
         -5    1    3    3    0  502 -0.36736728445E+02 -0.93573869363E+01  0.29067909821E+03  0.29317052793E+03  0.41800000000E+01 0. -1.
        -11    1    4    4    0    0 -0.28908887171E+02 -0.25415281917E+02  0.16374676380E+03  0.16821017498E+03  0.00000000000E+00 0. -1.
         11    1    4    4    0    0  0.44704215500E+02  0.31070858124E+02  0.22227069188E+03  0.22884083022E+03  0.00000000000E+00 0.  1.
</event>
<event>
 8    1  0.6849590E-009  0.3218875E+03  0.7561462E-02  0.1074784E+00
         -2   -1    0    0    0  501 -0.00000000000E+00  0.00000000000E+00  0.12628767157E+03  0.12628767157E+03  0.00000000000E+00 0.  1.
          2   -1    0    0  501    0  0.00000000000E+00 -0.00000000000E+00 -0.98199244731E+03  0.98199244731E+03  0.00000000000E+00 0. -1.
         25    2    1    2    0    0 -0.31584320631E+02  0.30591025827E+03 -0.64415462475E+03  0.72468028185E+03  0.12509066665E+03 0.  0.
         23    2    1    2    0    0  0.31584320631E+02 -0.30591025827E+03 -0.21155015099E+03  0.38359983703E+03  0.88412177704E+02 0.  0.
          5    1    3    3  502    0 -0.77665854124E+02  0.23103255173E+03 -0.48443901092E+03  0.54231600802E+03  0.41800000000E+01 0.  1.
         -5    1    3    3    0  502  0.46081533493E+02  0.74877706542E+02 -0.15971561383E+03  0.18236427382E+03  0.41800000000E+01 0.  1.
        -11    1    4    4    0    0  0.38749383262E+02 -0.12364522144E+03 -0.13081453374E+03  0.18412522294E+03  0.00000000000E+00 0. -1.
         11    1    4    4    0    0 -0.71650626316E+01 -0.18226503683E+03 -0.80735617250E+02  0.19947461409E+03  0.00000000000E+00 0.  1.
</event>
<event>
 8    1  0.6849590E-009  0.8998100E+02  0.7561462E-02  0.1302898E+00
          2   -1    0    0  501    0  0.00000000000E+00  0.00000000000E+00  0.29610087370E+03  0.29610087370E+03  0.00000000000E+00 0. -1.
         -2   -1    0    0    0  501 -0.00000000000E+00 -0.00000000000E+00 -0.35833376806E+02  0.35833376806E+02  0.00000000000E+00 0.  1.
         25    2    1    2    0    0 -0.49614698803E+01 -0.15621078241E+02  0.14189295269E+03  0.18986713820E+03  0.12508911174E+03 0.  0.
         23    2    1    2    0    0  0.49614698803E+01  0.15621078241E+02  0.11837454420E+03  0.14206711230E+03  0.76823807606E+02 0.  0.
          5    1    3    3  502    0  0.49055266606E+02 -0.42589508934E+02  0.64733642137E+02  0.91805241012E+02  0.41800000000E+01 0.  1.
         -5    1    3    3    0  502 -0.54016736487E+02  0.26968430693E+02  0.77159310558E+02  0.98061897190E+02  0.41800000000E+01 0.  1.
        -11    1    4    4    0    0 -0.52932959915E+01  0.33401885132E+02  0.15565181976E+02  0.37228749680E+02  0.00000000000E+00 0.  1.
         11    1    4    4    0    0  0.10254765872E+02 -0.17780806891E+02  0.10280936222E+03  0.10483836262E+03  0.00000000000E+00 0. -1.
</event>
<event>
 8    1  0.6849590E-009  0.1531695E+03  0.7561462E-02  0.1196632E+00
          2   -1    0    0  501    0  0.00000000000E+00  0.00000000000E+00  0.92348372740E+03  0.92348372740E+03  0.00000000000E+00 0. -1.
         -2   -1    0    0    0  501 -0.00000000000E+00 -0.00000000000E+00 -0.29360946636E+02  0.29360946636E+02  0.00000000000E+00 0.  1.
         25    2    1    2    0    0 -0.12252413186E+03  0.18237962809E+02  0.46669468123E+03  0.49879544668E+03  0.12509270947E+03 0.  0.
         23    2    1    2    0    0  0.12252413186E+03 -0.18237962809E+02  0.42742809954E+03  0.45404922736E+03  0.90117336938E+02 0.  0.
          5    1    3    3  502    0  0.19558451951E+02  0.14184435977E+02  0.14519986877E+03  0.14725557904E+03  0.41800000000E+01 0. -1.
         -5    1    3    3    0  502 -0.14208258381E+03  0.40535268323E+01  0.32149481246E+03  0.35153986764E+03  0.41800000000E+01 0. -1.
        -11    1    4    4    0    0  0.99680950086E+02  0.13418427749E+02  0.20642657184E+03  0.22962638258E+03  0.00000000000E+00 0. -1.
         11    1    4    4    0    0  0.22843181775E+02 -0.31656390558E+02  0.22100152769E+03  0.22442284478E+03  0.00000000000E+00 0.  1.
</event>
<event>
 8    1  0.6849590E-009  0.1099940E+03  0.7561462E-02  0.1260581E+00
         -2   -1    0    0    0  501 -0.00000000000E+00  0.00000000000E+00  0.16134358541E+03  0.16134358541E+03  0.00000000000E+00 0.  1.
          2   -1    0    0  501    0  0.00000000000E+00 -0.00000000000E+00 -0.19981582368E+03  0.19981582368E+03  0.00000000000E+00 0. -1.
         25    2    1    2    0    0 -0.69604585836E+01  0.10716346137E+03 -0.11521506007E+03  0.20112234255E+03  0.12507290342E+03 0.  0.
         23    2    1    2    0    0  0.69604585836E+01 -0.10716346137E+03  0.76742821804E+02  0.16003706654E+03  0.90498323362E+02 0.  0.
          5    1    3    3  502    0  0.24957495694E+01  0.99453305384E+02 -0.14081148706E+03  0.17246024471E+03  0.41800000000E+01 0. -1.
         -5    1    3    3    0  502 -0.94562081530E+01  0.77101559890E+01  0.25596426990E+02  0.28662097841E+02  0.41800000000E+01 0. -1.
        -11    1    4    4    0    0 -0.83023151274E+00 -0.16457790431E+02 -0.20848392810E+02  0.26574492150E+02  0.00000000000E+00 0. -1.
         11    1    4    4    0    0  0.77906900964E+01 -0.90705670942E+02  0.97591214614E+02  0.13346257439E+03  0.00000000000E+00 0.  1.
</event>
<event>
 8    1  0.6849590E-009  0.3731985E+03  0.7561462E-02  0.1053477E+00
         -2   -1    0    0    0  501 -0.00000000000E+00  0.00000000000E+00  0.58330175253E+02  0.58330175253E+02  0.00000000000E+00 0.  1.
          2   -1    0    0  501    0  0.00000000000E+00 -0.00000000000E+00 -0.26274117775E+04  0.26274117775E+04  0.00000000000E+00 0. -1.
         25    2    1    2    0    0  0.20137870772E+03 -0.30204818773E+03 -0.96400010519E+03  0.10376561295E+04  0.12509016215E+03 0.  0.
         23    2    1    2    0    0 -0.20137870772E+03  0.30204818773E+03 -0.16050814971E+04  0.16480858233E+04  0.90076506157E+02 0.  0.
          5    1    3    3  502    0  0.38365308365E+02 -0.14740389727E+03 -0.48870321700E+03  0.51190635132E+03  0.41800000000E+01 0.  1.
         -5    1    3    3    0  502  0.16301339935E+03 -0.15464429046E+03 -0.47529688818E+03  0.52574977818E+03  0.41800000000E+01 0.  1.
        -11    1    4    4    0    0 -0.20187717786E+03  0.26944070700E+03 -0.15228625565E+04  0.15596355521E+04  0.00000000000E+00 0. -1.
         11    1    4    4    0    0  0.49847014243E+00  0.32607480728E+02 -0.82218940613E+02  0.88450271155E+02  0.00000000000E+00 0.  1.
</event>
<event>
 8    1  0.6849590E-009  0.1197571E+03  0.7561462E-02  0.1243498E+00
         -1   -1    0    0    0  501 -0.00000000000E+00  0.00000000000E+00  0.48349557914E+03  0.48349557914E+03  0.00000000000E+00 0.  1.
          1   -1    0    0  501    0  0.00000000000E+00 -0.00000000000E+00 -0.34327362076E+02  0.34327362076E+02  0.00000000000E+00 0. -1.
         25    2    1    2    0    0 -0.64724657736E+02  0.12468545446E+02  0.29197263512E+03  0.32440720048E+03  0.12508903278E+03 0.  0.
         23    2    1    2    0    0  0.64724657736E+02 -0.12468545446E+02  0.15719558194E+03  0.19341574073E+03  0.91402690526E+02 0.  0.
          5    1    3    3  502    0  0.22838345143E+02 -0.24956012247E+02  0.14704721143E+03  0.15094617367E+03  0.41800000000E+01 0.  1.
         -5    1    3    3    0  502 -0.87563002879E+02  0.37424557693E+02  0.14492542369E+03  0.17346102681E+03  0.41800000000E+01 0.  1.
        -11    1    4    4    0    0 -0.18212900059E+02  0.14087684097E+02  0.18014282130E+02  0.29235029201E+02  0.00000000000E+00 0. -1.
         11    1    4    4    0    0  0.82937557795E+02 -0.26556229543E+02  0.13918129981E+03  0.16418071153E+03  0.00000000000E+00 0.  1.
</event>
<event>
 8    1  0.6849590E-009  0.1272154E+03  0.7561462E-02  0.1231647E+00
         -2   -1    0    0    0  501 -0.00000000000E+00  0.00000000000E+00  0.57336246567E+02  0.57336246567E+02  0.00000000000E+00 0.  1.
          2   -1    0    0  501    0  0.00000000000E+00 -0.00000000000E+00 -0.40952799905E+03  0.40952799905E+03  0.00000000000E+00 0. -1.
         25    2    1    2    0    0 -0.31103941966E+02  0.66573460682E+02 -0.90579746215E+02  0.17103028009E+03  0.12508871016E+03 0.  0.
         23    2    1    2    0    0  0.31103941966E+02 -0.66573460682E+02 -0.26161200627E+03  0.29583396552E+03  0.11695047012E+03 0.  0.
          5    1    3    3  502    0 -0.61160625876E+02  0.28438246590E+02 -0.10068175441E+03  0.12125858361E+03  0.41800000000E+01 0.  1.
         -5    1    3    3    0  502  0.30056683909E+02  0.38135214092E+02  0.10102008197E+02  0.49771696486E+02  0.41800000000E+01 0.  1.
        -11    1    4    4    0    0  0.59604794855E+02 -0.85265350698E+02 -0.19780245261E+03  0.22349210692E+03  0.00000000000E+00 0.  1.
         11    1    4    4    0    0 -0.28500852889E+02  0.18691890016E+02 -0.63809553658E+02  0.72341858601E+02  0.00000000000E+00 0. -1.
</event>
<event>
 8    1  0.6849590E-009  0.1371636E+03  0.7561462E-02  0.1217197E+00
         -2   -1    0    0    0  501 -0.00000000000E+00  0.00000000000E+00  0.36991995863E+03  0.36991995863E+03  0.00000000000E+00 0.  1.
          2   -1    0    0  501    0  0.00000000000E+00 -0.00000000000E+00 -0.56186522663E+02  0.56186522663E+02  0.00000000000E+00 0. -1.
         25    2    1    2    0    0  0.50515495032E+02 -0.68948932842E+02  0.11129001117E+03  0.18798629364E+03  0.12509040504E+03 0.  0.
         23    2    1    2    0    0 -0.50515495032E+02  0.68948932842E+02  0.20244342480E+03  0.23812018765E+03  0.91717571622E+02 0.  0.
          5    1    3    3  502    0  0.10404673300E+02 -0.99830138136E+02  0.78976676037E+02  0.12778537265E+03  0.41800000000E+01 0.  1.
         -5    1    3    3    0  502  0.40110821732E+02  0.30881205294E+02  0.32313335132E+02  0.60200920988E+02  0.41800000000E+01 0.  1.
        -11    1    4    4    0    0  0.25286873893E+02  0.10608686690E+02  0.28115894090E+02  0.39274339269E+02  0.00000000000E+00 0.  1.
         11    1    4    4    0    0 -0.75802368925E+02  0.58340246151E+02  0.17432753071E+03  0.19884584838E+03  0.00000000000E+00 0. -1.
</event>
<event>
 8    1  0.6849590E-009  0.1816617E+03  0.7561462E-02  0.1166204E+00
         -2   -1    0    0    0  501 -0.00000000000E+00  0.00000000000E+00  0.21855008053E+03  0.21855008053E+03  0.00000000000E+00 0.  1.
          2   -1    0    0  501    0  0.00000000000E+00 -0.00000000000E+00 -0.17710245495E+03  0.17710245495E+03  0.00000000000E+00 0. -1.
         25    2    1    2    0    0  0.10547815835E+03  0.12030594738E+03 -0.12672942808E+02  0.20348971724E+03  0.12509316000E+03 0.  0.
         23    2    1    2    0    0 -0.10547815835E+03 -0.12030594738E+03  0.54120568386E+02  0.19216281825E+03  0.91642511585E+02 0.  0.
          5    1    3    3  502    0  0.88402457963E+02  0.14516198148E+03  0.12376729990E+01  0.17001764519E+03  0.41800000000E+01 0.  1.
         -5    1    3    3    0  502  0.17075700387E+02 -0.24856034103E+02 -0.13910615807E+02  0.33472072048E+02  0.41800000000E+01 0.  1.
        -11    1    4    4    0    0 -0.55632999986E+01 -0.22019751359E+02  0.46561194392E+02  0.51805063266E+02  0.00000000000E+00 0.  1.
         11    1    4    4    0    0 -0.99914858352E+02 -0.98286196022E+02  0.75593739944E+01  0.14035775498E+03  0.00000000000E+00 0. -1.
</event>
<event>
 8    1  0.6849590E-009  0.2586594E+03  0.7561462E-02  0.1107951E+00
          1   -1    0    0  501    0  0.00000000000E+00  0.00000000000E+00  0.17394122989E+03  0.17394122989E+03  0.00000000000E+00 0. -1.
         -1   -1    0    0    0  501 -0.00000000000E+00 -0.00000000000E+00 -0.44713282738E+03  0.44713282738E+03  0.00000000000E+00 0.  1.
         25    2    1    2    0    0  0.25230778888E+03  0.11383656889E+02 -0.83808933684E+02  0.29404291309E+03  0.12509392231E+03 0.  0.
         23    2    1    2    0    0 -0.25230778888E+03 -0.11383656889E+02 -0.18938266381E+03  0.32703114419E+03  0.85409413670E+02 0.  0.
          5    1    3    3  502    0  0.20673212621E+01  0.22104878594E+01 -0.39346249762E+02  0.39683243871E+02  0.41800000000E+01 0.  1.
         -5    1    3    3    0  502  0.25024046761E+03  0.91731690293E+01 -0.44462683922E+02  0.25435966921E+03  0.41800000000E+01 0.  1.
        -11    1    4    4    0    0 -0.48334277854E+02 -0.30009319770E+02 -0.17156001739E+02  0.59422976065E+02  0.00000000000E+00 0.  1.
         11    1    4    4    0    0 -0.20397351102E+03  0.18625662882E+02 -0.17222666207E+03  0.26760816812E+03  0.00000000000E+00 0. -1.
</event>
<event>
 8    1  0.6849590E-009  0.1249350E+03  0.7561462E-02  0.1235171E+00
          1   -1    0    0  501    0  0.00000000000E+00  0.00000000000E+00  0.16984684277E+03  0.16984684277E+03  0.00000000000E+00 0. -1.
         -1   -1    0    0    0  501 -0.00000000000E+00 -0.00000000000E+00 -0.96861586855E+02  0.96861586855E+02  0.00000000000E+00 0.  1.
         25    2    1    2    0    0  0.27590945121E+01 -0.63311688447E+02  0.13740345143E+02  0.14089927607E+03  0.12509127235E+03 0.  0.
         23    2    1    2    0    0 -0.27590945121E+01  0.63311688447E+02  0.59244910775E+02  0.12580915355E+03  0.91115317969E+02 0.  0.
          5    1    3    3  502    0 -0.55589196955E+02 -0.58191094434E+02 -0.31932128106E-01  0.80584339106E+02  0.41800000000E+01 0. -1.
         -5    1    3    3    0  502  0.58348291467E+02 -0.51205940133E+01  0.13772277271E+02  0.60314936968E+02  0.41800000000E+01 0. -1.
        -11    1    4    4    0    0  0.43921988333E+02  0.29063015388E+02  0.33707634688E+02  0.62530029257E+02  0.00000000000E+00 0.  1.
         11    1    4    4    0    0 -0.46681082845E+02  0.34248673059E+02  0.25537276087E+02  0.63279124297E+02  0.00000000000E+00 0. -1.
</event>
<event>
 8    1  0.6849590E-009  0.1180038E+03  0.7561462E-02  0.1246427E+00
         -2   -1    0    0    0  501 -0.00000000000E+00  0.00000000000E+00  0.13308484606E+03  0.13308484606E+03  0.00000000000E+00 0.  1.
          2   -1    0    0  501    0  0.00000000000E+00 -0.00000000000E+00 -0.12064859274E+03  0.12064859274E+03  0.00000000000E+00 0. -1.
         25    2    1    2    0    0 -0.28881524402E+02 -0.59347605479E+02  0.13955972004E+02  0.14212272867E+03  0.12509124718E+03 0.  0.
         23    2    1    2    0    0  0.28881524402E+02  0.59347605479E+02 -0.15197186862E+01  0.11161071013E+03  0.89990890329E+02 0.  0.
          5    1    3    3  502    0  0.66360338347E+01  0.37379096001E+02  0.12142661395E+01  0.38212309603E+02  0.41800000000E+01 0.  1.
         -5    1    3    3    0  502 -0.35517558237E+02 -0.96726701481E+02  0.12741705865E+02  0.10391041907E+03  0.41800000000E+01 0.  1.
        -11    1    4    4    0    0  0.42897069332E+02  0.66359016431E+02 -0.25442334924E+02  0.83011987238E+02  0.00000000000E+00 0. -1.
         11    1    4    4    0    0 -0.14015544930E+02 -0.70114109513E+01  0.23922616238E+02  0.28598722889E+02  0.00000000000E+00 0.  1.
</event>
<event>
 8    1  0.6849590E-009  0.1678663E+03  0.7561462E-02  0.1180091E+00
          2   -1    0    0  501    0  0.00000000000E+00  0.00000000000E+00  0.58826502739E+02  0.58826502739E+02  0.00000000000E+00 0. -1.
         -2   -1    0    0    0  501 -0.00000000000E+00 -0.00000000000E+00 -0.70527823789E+03  0.70527823789E+03  0.00000000000E+00 0.  1.
         25    2    1    2    0    0  0.52074295626E+02 -0.15394966088E+03 -0.44108145608E+03  0.48642957697E+03  0.12509457264E+03 0.  0.
         23    2    1    2    0    0 -0.52074295626E+02  0.15394966088E+03 -0.20537027907E+03  0.27767516366E+03  0.92273043930E+02 0.  0.
          5    1    3    3  502    0  0.98233917588E+01 -0.17872239950E+02  0.20655834490E+01  0.20920206057E+02  0.41800000000E+01 0.  1.
         -5    1    3    3    0  502  0.42250903867E+02 -0.13607742093E+03 -0.44314703953E+03  0.46550937091E+03  0.41800000000E+01 0.  1.
        -11    1    4    4    0    0 -0.59768634989E+02  0.90513769395E+02 -0.73164127561E+02  0.13083585801E+03  0.00000000000E+00 0. -1.
         11    1    4    4    0    0  0.76943393625E+01  0.63435891487E+02 -0.13220615151E+03  0.14683930565E+03  0.00000000000E+00 0.  1.
</event>
<event>
 8    1  0.6849590E-009  0.9226735E+02  0.7561462E-02  0.1297452E+00
         -1   -1    0    0    0  501 -0.00000000000E+00  0.00000000000E+00  0.11803034112E+03  0.11803034112E+03  0.00000000000E+00 0.  1.
          1   -1    0    0  501    0  0.00000000000E+00 -0.00000000000E+00 -0.12816660387E+03  0.12816660387E+03  0.00000000000E+00 0. -1.
         25    2    1    2    0    0  0.13174484140E+02  0.48896518654E+02 -0.29922789192E+02  0.13822406658E+03  0.12508430238E+03 0.  0.
         23    2    1    2    0    0 -0.13174484140E+02 -0.48896518654E+02  0.19786526442E+02  0.10797287841E+03  0.93285579135E+02 0.  0.
          5    1    3    3  502    0 -0.27838814856E+02  0.70761381427E+02  0.10003421120E+02  0.76809592814E+02  0.41800000000E+01 0.  1.
         -5    1    3    3    0  502  0.41013298996E+02 -0.21864862773E+02 -0.39926210312E+02  0.61414473770E+02  0.41800000000E+01 0.  1.
        -11    1    4    4    0    0  0.11524807538E+02 -0.24107226672E+02 -0.34345128282E+02  0.43515139932E+02  0.00000000000E+00 0. -1.
         11    1    4    4    0    0 -0.24699291678E+02 -0.24789291982E+02  0.54131654725E+02  0.64457738477E+02  0.00000000000E+00 0.  1.
</event>
<event>
 8    1  0.6849590E-009  0.1795363E+03  0.7561462E-02  0.1168253E+00
          2   -1    0    0  501    0  0.00000000000E+00  0.00000000000E+00  0.20688273883E+04  0.20688273883E+04  0.00000000000E+00 0. -1.
         -2   -1    0    0    0  501 -0.00000000000E+00 -0.00000000000E+00 -0.17096339134E+02  0.17096339134E+02  0.00000000000E+00 0.  1.
         25    2    1    2    0    0  0.12193921694E+03  0.80497617025E+02  0.13522814203E+04  0.13658922662E+04  0.12509038357E+03 0.  0.
         23    2    1    2    0    0 -0.12193921694E+03 -0.80497617025E+02  0.69944962887E+03  0.72003146129E+03  0.88693195604E+02 0.  0.
          5    1    3    3  502    0  0.88493586901E+02  0.11393279526E+03  0.10600204862E+04  0.10698003086E+04  0.41800000000E+01 0. -1.
         -5    1    3    3    0  502  0.33445630038E+02 -0.33435178239E+02  0.29226093409E+03  0.29609195752E+03  0.41800000000E+01 0. -1.
        -11    1    4    4    0    0 -0.13278524291E+03 -0.82381364656E+02  0.67959563224E+03  0.69732978808E+03  0.00000000000E+00 0. -1.
         11    1    4    4    0    0  0.10846025973E+02  0.18837476309E+01  0.19853996630E+02  0.22701673214E+02  0.00000000000E+00 0.  1.
</event>
<event>
 8    1  0.6849590E-009  0.1058585E+03  0.7561462E-02  0.1268437E+00
         -1   -1    0    0    0  501 -0.00000000000E+00  0.00000000000E+00  0.20316708808E+03  0.20316708808E+03  0.00000000000E+00 0.  1.
          1   -1    0    0  501    0  0.00000000000E+00 -0.00000000000E+00 -0.96545419199E+02  0.96545419199E+02  0.00000000000E+00 0. -1.
         25    2    1    2    0    0 -0.59119055700E+02 -0.27199801919E+02  0.12175244600E+03  0.18629219795E+03  0.12508490291E+03 0.  0.
         23    2    1    2    0    0  0.59119055700E+02  0.27199801919E+02 -0.15130777124E+02  0.11342030933E+03  0.91653336988E+02 0.  0.
          5    1    3    3  502    0 -0.86217344231E+02 -0.54279445367E+02  0.95143762765E+02  0.13946145212E+03  0.41800000000E+01 0. -1.
         -5    1    3    3    0  502  0.27098288531E+02  0.27079643448E+02  0.26608683238E+02  0.46830745821E+02  0.41800000000E+01 0. -1.
        -11    1    4    4    0    0  0.24439742781E+02 -0.37575032718E+01  0.36409864614E+02  0.44012476632E+02  0.00000000000E+00 0.  1.
         11    1    4    4    0    0  0.34679312919E+02  0.30957305190E+02 -0.51540641738E+02  0.69407832699E+02  0.00000000000E+00 0. -1.
</event>
<event>
 8    1  0.6849590E-009  0.1949549E+03  0.7561462E-02  0.1154067E+00
         -1   -1    0    0    0  501 -0.00000000000E+00  0.00000000000E+00  0.99125398898E+02  0.99125398898E+02  0.00000000000E+00 0.  1.
          1   -1    0    0  501    0  0.00000000000E+00 -0.00000000000E+00 -0.47072171891E+03  0.47072171891E+03  0.00000000000E+00 0. -1.
         25    2    1    2    0    0 -0.74136707504E+02  0.15785533995E+03 -0.11618711561E+03  0.24405144126E+03  0.12508837036E+03 0.  0.
         23    2    1    2    0    0  0.74136707504E+02 -0.15785533995E+03 -0.25540920440E+03  0.32579567655E+03  0.10244218571E+03 0.  0.
          5    1    3    3  502    0 -0.22222837966E+02 -0.19350793475E+02 -0.12960610421E+02  0.32461632089E+02  0.41800000000E+01 0.  1.
         -5    1    3    3    0  502 -0.51913869538E+02  0.17720613342E+03 -0.10322650519E+03  0.21158980918E+03  0.41800000000E+01 0.  1.
        -11    1    4    4    0    0  0.26976579452E+02 -0.79954409812E+02 -0.43039064366E+02  0.94724888750E+02  0.00000000000E+00 0.  1.
         11    1    4    4    0    0  0.47160128052E+02 -0.77900930136E+02 -0.21237014004E+03  0.23107078780E+03  0.00000000000E+00 0. -1.
</event>
<event>
 8    1  0.6849590E-009  0.1038568E+03  0.7561462E-02  0.1272389E+00
         -1   -1    0    0    0  501 -0.00000000000E+00  0.00000000000E+00  0.24034055318E+03  0.24034055318E+03  0.00000000000E+00 0.  1.
          1   -1    0    0  501    0  0.00000000000E+00 -0.00000000000E+00 -0.81988490453E+02  0.81988490453E+02  0.00000000000E+00 0. -1.
         25    2    1    2    0    0  0.55553319856E+02 -0.54255718360E+02  0.42411202309E+02  0.15322431719E+03  0.12509647068E+03 0.  0.
         23    2    1    2    0    0 -0.55553319856E+02  0.54255718360E+02  0.11594086042E+03  0.16910472644E+03  0.95521050395E+02 0.  0.
          5    1    3    3  502    0  0.62995636583E+02  0.46133713976E+01 -0.20600710597E+02  0.66570226838E+02  0.41800000000E+01 0.  1.
         -5    1    3    3    0  502 -0.74423167269E+01 -0.58869089757E+02  0.63011912906E+02  0.86654090355E+02  0.41800000000E+01 0.  1.
        -11    1    4    4    0    0 -0.21675316305E+02  0.44776922373E+02  0.19244049534E+01  0.49784490040E+02  0.00000000000E+00 0. -1.
         11    1    4    4    0    0 -0.33878003551E+02  0.94787959865E+01  0.11401645547E+03  0.11932023640E+03  0.00000000000E+00 0.  1.
</event>
<event>
 8    1  0.6849590E-009  0.1453552E+03  0.7561462E-02  0.1206299E+00
         -3   -1    0    0    0  501 -0.00000000000E+00  0.00000000000E+00  0.57289834495E+03  0.57289834495E+03  0.00000000000E+00 0.  1.
          3   -1    0    0  501    0  0.00000000000E+00 -0.00000000000E+00 -0.47381591190E+02  0.47381591190E+02  0.00000000000E+00 0. -1.
         25    2    1    2    0    0 -0.92654340679E+02 -0.33507621277E+02  0.14257867439E+03  0.21374091286E+03  0.12509561106E+03 0.  0.
         23    2    1    2    0    0  0.92654340679E+02  0.33507621277E+02  0.38293807937E+03  0.40653902328E+03  0.94471251142E+02 0.  0.
          5    1    3    3  502    0  0.29172571507E+02  0.27426427203E+01  0.13478859312E+02  0.32522500915E+02  0.41800000000E+01 0.  1.
         -5    1    3    3    0  502 -0.12182691219E+03 -0.36250263998E+02  0.12909981508E+03  0.18121841194E+03  0.41800000000E+01 0.  1.
        -11    1    4    4    0    0  0.92562422764E+02 -0.75597441264E+01  0.22650036083E+03  0.24480066441E+03  0.00000000000E+00 0.  1.
         11    1    4    4    0    0  0.91917915281E-01  0.41067365404E+02  0.15643771853E+03  0.16173835887E+03  0.00000000000E+00 0. -1.
</event>
<event>
 8    1  0.6849590E-009  0.1625327E+03  0.7561462E-02  0.1185867E+00
          2   -1    0    0  501    0  0.00000000000E+00  0.00000000000E+00  0.20587180843E+03  0.20587180843E+03  0.00000000000E+00 0. -1.
         -2   -1    0    0    0  501 -0.00000000000E+00 -0.00000000000E+00 -0.17693721333E+03  0.17693721333E+03  0.00000000000E+00 0.  1.
         25    2    1    2    0    0 -0.78499030188E+02  0.11464092825E+03 -0.54755910780E+02  0.19480952317E+03  0.12509156799E+03 0.  0.
         23    2    1    2    0    0  0.78499030188E+02 -0.11464092825E+03  0.83690505878E+02  0.18799949859E+03  0.95052987984E+02 0.  0.
          5    1    3    3  502    0 -0.30755772547E+02  0.12091444877E+03 -0.71251482612E+02  0.14373749560E+03  0.41800000000E+01 0.  1.
         -5    1    3    3    0  502 -0.47743257641E+02 -0.62735205254E+01  0.16495571832E+02  0.51072027569E+02  0.41800000000E+01 0.  1.
        -11    1    4    4    0    0 -0.10569905980E+02 -0.11518625892E+02 -0.13477043414E+02  0.20640551205E+02  0.00000000000E+00 0.  1.
         11    1    4    4    0    0  0.89068936168E+02 -0.10312230235E+03  0.97167549292E+02  0.16735894738E+03  0.00000000000E+00 0. -1.
</event>
<event>
 8    1  0.6849590E-009  0.8218028E+02  0.7561462E-02  0.1322976E+00
          1   -1    0    0  501    0  0.00000000000E+00  0.00000000000E+00  0.77807077746E+03  0.77807077746E+03  0.00000000000E+00 0. -1.
         -1   -1    0    0    0  501 -0.00000000000E+00 -0.00000000000E+00 -0.17821110708E+02  0.17821110708E+02  0.00000000000E+00 0.  1.
         25    2    1    2    0    0  0.36322269644E+02 -0.34198467670E+02  0.42129169138E+03  0.44229613522E+03  0.12510131710E+03 0.  0.
         23    2    1    2    0    0 -0.36322269644E+02  0.34198467670E+02  0.33895797537E+03  0.35359575295E+03  0.87456303214E+02 0.  0.
          5    1    3    3  502    0  0.14146300662E+02  0.12350114805E+02  0.14646573595E+01  0.19294060726E+02  0.41800000000E+01 0. -1.
         -5    1    3    3    0  502  0.22175968981E+02 -0.46548582475E+02  0.41982703403E+03  0.42300207450E+03  0.41800000000E+01 0. -1.
        -11    1    4    4    0    0 -0.47363112644E+01  0.55237693555E+02  0.13172723225E+03  0.14291850528E+03  0.00000000000E+00 0.  1.
         11    1    4    4    0    0 -0.31585958379E+02 -0.21039225885E+02  0.20723074312E+03  0.21067724767E+03  0.00000000000E+00 0. -1.
</event>
<event>
 8    1  0.6849590E-009  0.1418323E+03  0.7561462E-02  0.1210884E+00
         -2   -1    0    0    0  501 -0.00000000000E+00  0.00000000000E+00  0.64907357546E+03  0.64907357546E+03  0.00000000000E+00 0.  1.
          2   -1    0    0  501    0  0.00000000000E+00 -0.00000000000E+00 -0.39435319977E+02  0.39435319977E+02  0.00000000000E+00 0. -1.
         25    2    1    2    0    0  0.39127948038E+02  0.11020025843E+03  0.31124036022E+03  0.35523690162E+03  0.12509037199E+03 0.  0.
         23    2    1    2    0    0 -0.39127948038E+02 -0.11020025843E+03  0.29839789526E+03  0.33327199382E+03  0.91399259794E+02 0.  0.
          5    1    3    3  502    0  0.41084167687E+02 -0.12607238118E+02  0.12368426132E+03  0.13100427545E+03  0.41800000000E+01 0. -1.
         -5    1    3    3    0  502 -0.19562196489E+01  0.12280749655E+03  0.18755609889E+03  0.22423262616E+03  0.41800000000E+01 0. -1.
        -11    1    4    4    0    0 -0.15885423258E+02 -0.63113129830E+02  0.57903646118E+02  0.87111687291E+02  0.00000000000E+00 0. -1.
         11    1    4    4    0    0 -0.23242524780E+02 -0.47087128600E+02  0.24049424914E+03  0.24616030652E+03  0.00000000000E+00 0.  1.
</event>
<event>
 8    1  0.6849590E-009  0.1073752E+03  0.7561462E-02  0.1265509E+00
         -2   -1    0    0    0  501 -0.00000000000E+00  0.00000000000E+00  0.71814815997E+02  0.71814815997E+02  0.00000000000E+00 0.  1.
          2   -1    0    0  501    0  0.00000000000E+00 -0.00000000000E+00 -0.24352104973E+03  0.24352104973E+03  0.00000000000E+00 0. -1.
         25    2    1    2    0    0 -0.59902937831E+02 -0.10119779210E+02 -0.33193413632E+02  0.14298399788E+03  0.12510735011E+03 0.  0.
         23    2    1    2    0    0  0.59902937831E+02  0.10119779210E+02 -0.13851282010E+03  0.17235186784E+03  0.82635301927E+02 0.  0.
          5    1    3    3  502    0  0.15309948796E+02  0.42697461400E+02 -0.21068445051E+02  0.50187842342E+02  0.41800000000E+01 0. -1.
         -5    1    3    3    0  502 -0.75212886627E+02 -0.52817240609E+02 -0.12124968581E+02  0.92796155542E+02  0.41800000000E+01 0. -1.
        -11    1    4    4    0    0  0.86634839002E+01  0.22819252028E+02 -0.31042589277E+00  0.24410460476E+02  0.00000000000E+00 0.  1.
         11    1    4    4    0    0  0.51239453931E+02 -0.12699472818E+02 -0.13820239420E+03  0.14794140736E+03  0.00000000000E+00 0. -1.
</event>
<event>
 8    1  0.6849590E-009  0.9329471E+02  0.7561462E-02  0.1295064E+00
          2   -1    0    0  501    0  0.00000000000E+00  0.00000000000E+00  0.46796113034E+03  0.46796113034E+03  0.00000000000E+00 0.  1.
         -2   -1    0    0    0  501 -0.00000000000E+00 -0.00000000000E+00 -0.39309937060E+02  0.39309937060E+02  0.00000000000E+00 0. -1.
         25    2    1    2    0    0 -0.38805714899E+02 -0.12897891501E+02  0.36423871832E+03  0.38727860974E+03  0.12507053420E+03 0.  0.
         23    2    1    2    0    0  0.38805714899E+02  0.12897891501E+02  0.64412474968E+02  0.11999245767E+03  0.92612007058E+02 0.  0.
          5    1    3    3  502    0 -0.39608258576E+02  0.43357883536E+02  0.91779457806E+02  0.10903972435E+03  0.41800000000E+01 0.  1.
         -5    1    3    3    0  502  0.80254367621E+00 -0.56255775037E+02  0.27245926051E+03  0.27823888538E+03  0.41800000000E+01 0.  1.
        -11    1    4    4    0    0  0.53812222691E+01 -0.22193216556E+02 -0.14741605455E+02  0.27181084334E+02  0.00000000000E+00 0. -1.
         11    1    4    4    0    0  0.33424492630E+02  0.35091108056E+02  0.79154080423E+02  0.92811373332E+02  0.00000000000E+00 0.  1.
</event>
<event>
 8    1  0.6849590E-009  0.2330003E+03  0.7561462E-02  0.1124546E+00
         -2   -1    0    0    0  501 -0.00000000000E+00  0.00000000000E+00  0.38827235434E+02  0.38827235434E+02  0.00000000000E+00 0.  1.
          2   -1    0    0  501    0  0.00000000000E+00 -0.00000000000E+00 -0.15126925308E+04  0.15126925308E+04  0.00000000000E+00 0. -1.
         25    2    1    2    0    0 -0.21334341681E+03  0.33249886730E+02 -0.78715967546E+03  0.82576681784E+03  0.12509801879E+03 0.  0.
         23    2    1    2    0    0  0.21334341681E+03 -0.33249886730E+02 -0.68670561987E+03  0.72575294836E+03  0.92367555064E+02 0.  0.
          5    1    3    3  502    0 -0.73295727146E+02 -0.35959977470E+02 -0.39981068917E+03  0.40808264258E+03  0.41800000000E+01 0. -1.
         -5    1    3    3    0  502 -0.14004768966E+03  0.69209864199E+02 -0.38734898629E+03  0.41768417526E+03  0.41800000000E+01 0. -1.
        -11    1    4    4    0    0  0.15924876073E+03 -0.56672456204E+02 -0.42265324563E+03  0.45520072619E+03  0.00000000000E+00 0.  1.
         11    1    4    4    0    0  0.54094656082E+02  0.23422569475E+02 -0.26405237424E+03  0.27055222216E+03  0.00000000000E+00 0. -1.
</event>
<event>
 8    1  0.6849590E-009  0.1836414E+03  0.7561462E-02  0.1164325E+00
         -1   -1    0    0    0  501 -0.00000000000E+00  0.00000000000E+00  0.13266100677E+03  0.13266100677E+03  0.00000000000E+00 0.  1.
          1   -1    0    0  501    0  0.00000000000E+00 -0.00000000000E+00 -0.31308392388E+03  0.31308392388E+03  0.00000000000E+00 0. -1.
         25    2    1    2    0    0  0.15468081063E+03 -0.49293929372E+02 -0.14853097079E+03  0.25311225991E+03  0.12509325396E+03 0.  0.
         23    2    1    2    0    0 -0.15468081063E+03  0.49293929372E+02 -0.31891946324E+02  0.19263267074E+03  0.98662074511E+02 0.  0.
          5    1    3    3  502    0  0.43566533280E+01 -0.49283018559E+02 -0.14645407993E+02  0.51766366705E+02  0.41800000000E+01 0.  1.
         -5    1    3    3    0  502  0.15032415730E+03 -0.10910812619E-01 -0.13388556279E+03  0.20134589321E+03  0.41800000000E+01 0.  1.
        -11    1    4    4    0    0 -0.13293078419E+03  0.56352681203E+02 -0.60038906210E+02  0.15636779823E+03  0.00000000000E+00 0. -1.
         11    1    4    4    0    0 -0.21750026440E+02 -0.70587518311E+01  0.28146959886E+02  0.36264872513E+02  0.00000000000E+00 0.  1.
</event>
<event>
 8    1  0.6849590E-009  0.1179378E+03  0.7561462E-02  0.1246538E+00
         -1   -1    0    0    0  501 -0.00000000000E+00  0.00000000000E+00  0.28473369810E+03  0.28473369810E+03  0.00000000000E+00 0. -1.
          1   -1    0    0  501    0  0.00000000000E+00 -0.00000000000E+00 -0.65842126333E+02  0.65842126333E+02  0.00000000000E+00 0.  1.
         25    2    1    2    0    0 -0.35255668558E+02  0.77408466728E+02  0.14733221778E+03  0.21116053680E+03  0.12508779724E+03 0.  0.
         23    2    1    2    0    0  0.35255668558E+02 -0.77408466728E+02  0.71559353980E+02  0.13941528763E+03  0.84147777128E+02 0.  0.
          5    1    3    3  502    0 -0.37760374008E+02  0.11074714805E+03  0.12124812772E+03  0.16855075652E+03  0.41800000000E+01 0. -1.
         -5    1    3    3    0  502  0.25047054502E+01 -0.33338681322E+02  0.26084090062E+02  0.42609780286E+02  0.41800000000E+01 0. -1.
        -11    1    4    4    0    0  0.26301586672E+02 -0.54854133463E+02  0.90212852097E+02  0.10880766564E+03  0.00000000000E+00 0. -1.
         11    1    4    4    0    0  0.89540818863E+01 -0.22554333265E+02 -0.18653498117E+02  0.30607621983E+02  0.00000000000E+00 0.  1.
</event>
<event>
 8    1  0.6849590E-009  0.8129462E+02  0.7561462E-02  0.1325417E+00
          1   -1    0    0  501    0  0.00000000000E+00  0.00000000000E+00  0.98144599303E+02  0.98144599303E+02  0.00000000000E+00 0. -1.
         -1   -1    0    0    0  501 -0.00000000000E+00 -0.00000000000E+00 -0.14719511285E+03  0.14719511285E+03  0.00000000000E+00 0.  1.
         25    2    1    2    0    0  0.19826610098E+02  0.44466316962E+02 -0.17945851815E+02  0.13542813248E+03  0.12509347568E+03 0.  0.
         23    2    1    2    0    0 -0.19826610098E+02 -0.44466316962E+02 -0.31104661733E+02  0.10991157967E+03  0.93502446774E+02 0.  0.
          5    1    3    3  502    0 -0.65769209933E+01 -0.50130882205E+01  0.47926523214E+02  0.48814044809E+02  0.41800000000E+01 0. -1.
         -5    1    3    3    0  502  0.26403531091E+02  0.49479405183E+02 -0.65872375028E+02  0.86614087672E+02  0.41800000000E+01 0. -1.
        -11    1    4    4    0    0 -0.19429828697E+02  0.22720895803E+02 -0.30517119318E+02  0.42720626409E+02  0.00000000000E+00 0.  1.
         11    1    4    4    0    0 -0.39678140069E+00 -0.67187212765E+02 -0.58754241484E+00  0.67190953265E+02  0.00000000000E+00 0. -1.
</event>
<event>
 8    1  0.6849590E-009  0.1276215E+03  0.7561462E-02  0.1231028E+00
          2   -1    0    0  501    0  0.00000000000E+00  0.00000000000E+00  0.33814190165E+03  0.33814190165E+03  0.00000000000E+00 0.  1.
         -2   -1    0    0    0  501 -0.00000000000E+00 -0.00000000000E+00 -0.60826363380E+02  0.60826363380E+02  0.00000000000E+00 0. -1.
         25    2    1    2    0    0  0.32558957121E+02 -0.63771896570E+02  0.23450219221E+03  0.27525563390E+03  0.12508974921E+03 0.  0.
         23    2    1    2    0    0 -0.32558957121E+02  0.63771896570E+02  0.42813346062E+02  0.12371263114E+03  0.91350380520E+02 0.  0.
          5    1    3    3  502    0 -0.18518394276E+02 -0.86124983810E+02  0.14077778421E+03  0.16612134327E+03  0.41800000000E+01 0.  1.
         -5    1    3    3    0  502  0.51077351398E+02  0.22353087240E+02  0.93724408006E+02  0.10913429063E+03  0.41800000000E+01 0.  1.
        -11    1    4    4    0    0 -0.61663320619E+02  0.39377728333E+02  0.10626285121E+02  0.73931647715E+02  0.00000000000E+00 0. -1.
         11    1    4    4    0    0  0.29104363497E+02  0.24394168237E+02  0.32187060941E+02  0.49780983423E+02  0.00000000000E+00 0.  1.
</event>
<event>
 8    1  0.6849590E-009  0.8834746E+02  0.7561462E-02  0.1306904E+00
          1   -1    0    0  501    0  0.00000000000E+00  0.00000000000E+00  0.65545681820E+02  0.65545681820E+02  0.00000000000E+00 0. -1.
         -1   -1    0    0    0  501 -0.00000000000E+00 -0.00000000000E+00 -0.22759561115E+03  0.22759561115E+03  0.00000000000E+00 0.  1.
         25    2    1    2    0    0  0.20269836861E+02  0.23955051572E+02 -0.36565615829E+02  0.13405280958E+03  0.12509356784E+03 0.  0.
         23    2    1    2    0    0 -0.20269836861E+02 -0.23955051572E+02 -0.12548431351E+03  0.15908848339E+03  0.92618150648E+02 0.  0.
          5    1    3    3  502    0  0.64234487156E+02  0.21766825976E+02 -0.53723917944E+02  0.86623298324E+02  0.41800000000E+01 0.  1.
         -5    1    3    3    0  502 -0.43964650296E+02  0.21882255961E+01  0.17158302115E+02  0.47429511260E+02  0.41800000000E+01 0.  1.
        -11    1    4    4    0    0  0.13989238194E+02 -0.26715705473E+02 -0.12447312576E+01  0.30182396527E+02  0.00000000000E+00 0. -1.
         11    1    4    4    0    0 -0.34259075054E+02  0.27606539011E+01 -0.12423958225E+03  0.12890608686E+03  0.00000000000E+00 0.  1.
</event>
<event>
 8    1  0.6849590E-009  0.1786561E+03  0.7561462E-02  0.1169110E+00
         -1   -1    0    0    0  501 -0.00000000000E+00  0.00000000000E+00  0.36070882015E+03  0.36070882015E+03  0.00000000000E+00 0.  1.
          1   -1    0    0  501    0  0.00000000000E+00 -0.00000000000E+00 -0.14213421414E+03  0.14213421414E+03  0.00000000000E+00 0. -1.
         25    2    1    2    0    0 -0.12934069276E+03  0.10869637438E+03  0.22886708513E+03  0.31075989356E+03  0.12509057592E+03 0.  0.
         23    2    1    2    0    0  0.12934069276E+03 -0.10869637438E+03 -0.10292479122E+02  0.19208314073E+03  0.90807935876E+02 0.  0.
          5    1    3    3  502    0 -0.37983540098E+02 -0.68960221005E+00 -0.32423566139E+01  0.38356357309E+02  0.41800000000E+01 0. -1.
         -5    1    3    3    0  502 -0.91357152665E+02  0.10938597659E+03  0.23210944174E+03  0.27240353626E+03  0.41800000000E+01 0. -1.
        -11    1    4    4    0    0  0.18136237165E+01 -0.22535699965E+02 -0.29300035113E+02  0.37008634958E+02  0.00000000000E+00 0. -1.
         11    1    4    4    0    0  0.12752706905E+03 -0.86160674415E+02  0.19007555990E+02  0.15507450577E+03  0.00000000000E+00 0.  1.
</event>
<event>
 8    1  0.6849590E-009  0.9014769E+02  0.7561462E-02  0.1302494E+00
         -2   -1    0    0    0  501 -0.00000000000E+00  0.00000000000E+00  0.51800953791E+03  0.51800953791E+03  0.00000000000E+00 0.  1.
          2   -1    0    0  501    0  0.00000000000E+00 -0.00000000000E+00 -0.34781108465E+02  0.34781108465E+02  0.00000000000E+00 0. -1.
         25    2    1    2    0    0  0.44535986780E+02 -0.15664333670E+02  0.12740659694E+03  0.18468782166E+03  0.12509326543E+03 0.  0.
         23    2    1    2    0    0 -0.44535986780E+02  0.15664333670E+02  0.35582183250E+03  0.36810282472E+03  0.81619162043E+02 0.  0.
          5    1    3    3  502    0  0.20126984997E+02  0.29170391064E+02  0.12859497434E+03  0.13345466295E+03  0.41800000000E+01 0. -1.
         -5    1    3    3    0  502  0.24409001784E+02 -0.44834724734E+02 -0.11883773906E+01  0.51233158705E+02  0.41800000000E+01 0. -1.
        -11    1    4    4    0    0 -0.61027635994E+02  0.33070522582E+02  0.28504241269E+03  0.29337213373E+03  0.00000000000E+00 0.  1.
         11    1    4    4    0    0  0.16491649213E+02 -0.17406188912E+02  0.70779419809E+02  0.74730690982E+02  0.00000000000E+00 0. -1.
</event>
<event>
 8    1  0.6849590E-009  0.1157482E+03  0.7561462E-02  0.1250281E+00
          2   -1    0    0  501    0  0.00000000000E+00  0.00000000000E+00  0.66555276340E+02  0.66555276340E+02  0.00000000000E+00 0. -1.
         -2   -1    0    0    0  501 -0.00000000000E+00 -0.00000000000E+00 -0.22124700589E+03  0.22124700589E+03  0.00000000000E+00 0.  1.
         25    2    1    2    0    0 -0.82382139957E+00 -0.42833115997E+02 -0.47929814604E+02  0.14064289784E+03  0.12509117905E+03 0.  0.
         23    2    1    2    0    0  0.82382139957E+00  0.42833115997E+02 -0.10676191495E+03  0.14715938439E+03  0.91773762177E+02 0.  0.
          5    1    3    3  502    0 -0.29557012310E+02 -0.79301756260E+02 -0.38557673520E+02  0.93094318354E+02  0.41800000000E+01 0. -1.
         -5    1    3    3    0  502  0.28733190910E+02  0.36468640263E+02 -0.93721410837E+01  0.47548579485E+02  0.41800000000E+01 0. -1.
        -11    1    4    4    0    0 -0.43473568344E+02  0.89720906510E+01 -0.36546018604E+02  0.57498356768E+02  0.00000000000E+00 0.  1.
         11    1    4    4    0    0  0.44297389743E+02  0.33861025346E+02 -0.70215896345E+02  0.89661027627E+02  0.00000000000E+00 0. -1.
</event>
<event>
 8    1  0.6849590E-009  0.1124237E+03  0.7561462E-02  0.1256146E+00
          2   -1    0    0  501    0  0.00000000000E+00  0.00000000000E+00  0.70881220533E+02  0.70881220533E+02  0.00000000000E+00 0. -1.
         -2   -1    0    0    0  501 -0.00000000000E+00 -0.00000000000E+00 -0.20195130334E+03  0.20195130334E+03  0.00000000000E+00 0.  1.
         25    2    1    2    0    0 -0.17209630574E+02 -0.32862814764E+02 -0.35479371129E+02  0.13521348826E+03  0.12509102947E+03 0.  0.
         23    2    1    2    0    0  0.17209630574E+02  0.32862814764E+02 -0.95590711676E+02  0.13761903561E+03  0.91789317597E+02 0.  0.
          5    1    3    3  502    0 -0.60341651596E+02  0.14524946069E+02 -0.75162658395E+00  0.62210339319E+02  0.41800000000E+01 0. -1.
         -5    1    3    3    0  502  0.43132021022E+02 -0.47387760833E+02 -0.34727744545E+02  0.73003148942E+02  0.41800000000E+01 0. -1.
        -11    1    4    4    0    0  0.45412720174E+02  0.48283213062E+02 -0.71129916308E+02  0.97226790604E+02  0.00000000000E+00 0. -1.
         11    1    4    4    0    0 -0.28203089599E+02 -0.15420398298E+02 -0.24460795368E+02  0.40392245006E+02  0.00000000000E+00 0.  1.
</event>
<event>
 8    1  0.6849590E-009  0.5076165E+02  0.7561462E-02  0.1441276E+00
         -1   -1    0    0    0  501 -0.00000000000E+00  0.00000000000E+00  0.63252210877E+02  0.63252210877E+02  0.00000000000E+00 0.  1.
          1   -1    0    0  501    0  0.00000000000E+00 -0.00000000000E+00 -0.19036637406E+03  0.19036637406E+03  0.00000000000E+00 0. -1.
         25    2    1    2    0    0  0.15794295573E+02  0.16269477386E+02 -0.74199409050E+02  0.14719926588E+03  0.12509163004E+03 0.  0.
         23    2    1    2    0    0 -0.15794295573E+02 -0.16269477386E+02 -0.52914754132E+02  0.10641931905E+03  0.89503880338E+02 0.  0.
          5    1    3    3  502    0  0.12355920875E+02 -0.53561220165E+01 -0.10678824495E+03  0.10771517294E+03  0.41800000000E+01 0. -1.
         -5    1    3    3    0  502  0.34383746973E+01  0.21625599403E+02  0.32588835897E+02  0.39484092939E+02  0.41800000000E+01 0. -1.
        -11    1    4    4    0    0  0.22422458302E+02  0.24844701151E+01  0.14406806960E+02  0.26767430113E+02  0.00000000000E+00 0.  1.
         11    1    4    4    0    0 -0.38216753875E+02 -0.18753947502E+02 -0.67321561093E+02  0.79651888939E+02  0.00000000000E+00 0. -1.
</event>
<event>
 8    1  0.6849590E-009  0.1097262E+03  0.7561462E-02  0.1261078E+00
         -1   -1    0    0    0  501 -0.00000000000E+00  0.00000000000E+00  0.50519906716E+02  0.50519906716E+02  0.00000000000E+00 0.  1.
          1   -1    0    0  501    0  0.00000000000E+00 -0.00000000000E+00 -0.36806971232E+03  0.36806971232E+03  0.00000000000E+00 0. -1.
         25    2    1    2    0    0  0.19779037082E+02  0.57410648080E+02 -0.25907657313E+03  0.29403068535E+03  0.12508469276E+03 0.  0.
         23    2    1    2    0    0 -0.19779037082E+02 -0.57410648080E+02 -0.58473232475E+02  0.12455893369E+03  0.91698507206E+02 0.  0.
          5    1    3    3  502    0  0.49685241133E+02 -0.20310026455E+02 -0.12557702607E+03  0.13663155652E+03  0.41800000000E+01 0. -1.
         -5    1    3    3    0  502 -0.29906204051E+02  0.77720674535E+02 -0.13349954706E+03  0.15739912883E+03  0.41800000000E+01 0. -1.
        -11    1    4    4    0    0 -0.33544128121E+02 -0.13402902862E+02  0.13933411542E+02  0.38716744359E+02  0.00000000000E+00 0.  1.
         11    1    4    4    0    0  0.13765091039E+02 -0.44007745218E+02 -0.72406644018E+02  0.85842189327E+02  0.00000000000E+00 0. -1.
</event>
<event>
 8    1  0.6849590E-009  0.2223756E+03  0.7561462E-02  0.1132124E+00
          2   -1    0    0  501    0  0.00000000000E+00  0.00000000000E+00  0.21146023604E+03  0.21146023604E+03  0.00000000000E+00 0. -1.
         -2   -1    0    0    0  501 -0.00000000000E+00 -0.00000000000E+00 -0.32071201766E+03  0.32071201766E+03  0.00000000000E+00 0.  1.
         25    2    1    2    0    0 -0.13843994138E+01  0.19713454493E+03 -0.19235404703E+03  0.30250805436E+03  0.12508836149E+03 0.  0.
         23    2    1    2    0    0  0.13843994138E+01 -0.19713454493E+03  0.83102265414E+02  0.22966419934E+03  0.83520731431E+02 0.  0.
          5    1    3    3  502    0 -0.57877154394E+02  0.13738883638E+03 -0.14240997752E+03  0.20621234556E+03  0.41800000000E+01 0. -1.
         -5    1    3    3    0  502  0.56492754980E+02  0.59745708543E+02 -0.49944069509E+02  0.96295708802E+02  0.41800000000E+01 0. -1.
        -11    1    4    4    0    0 -0.34697374568E+02 -0.44447897398E+02  0.13240871306E+02  0.57921015685E+02  0.00000000000E+00 0.  1.
         11    1    4    4    0    0  0.36081773981E+02 -0.15268664753E+03  0.69861394108E+02  0.17174318366E+03  0.00000000000E+00 0. -1.
</event>
<event>
 8    1  0.6849590E-009  0.2204336E+03  0.7561462E-02  0.1133560E+00
          2   -1    0    0  501    0  0.00000000000E+00  0.00000000000E+00  0.49726100984E+02  0.49726100984E+02  0.00000000000E+00 0. -1.
         -2   -1    0    0    0  501 -0.00000000000E+00 -0.00000000000E+00 -0.10804034019E+04  0.10804034019E+04  0.00000000000E+00 0.  1.
         25    2    1    2    0    0 -0.34791617061E+02 -0.18987191177E+03 -0.66779491472E+03  0.70629951731E+03  0.12508861069E+03 0.  0.
         23    2    1    2    0    0  0.34791617061E+02  0.18987191177E+03 -0.36288238624E+03  0.42382998562E+03  0.10337519515E+03 0.  0.
          5    1    3    3  502    0 -0.37683325136E+02 -0.20787303429E+03 -0.61544169699E+03  0.65070514534E+03  0.41800000000E+01 0.  1.
         -5    1    3    3    0  502  0.28917080753E+01  0.18001122520E+02 -0.52353217736E+02  0.55594371972E+02  0.41800000000E+01 0.  1.
        -11    1    4    4    0    0 -0.67811640739E+01  0.15883414460E+03 -0.31673789419E+03  0.35439690080E+03  0.00000000000E+00 0.  1.
         11    1    4    4    0    0  0.41572781135E+02  0.31037767163E+02 -0.46144492048E+02  0.69433084823E+02  0.00000000000E+00 0. -1.
</event>
<event>
 8    1  0.6849590E-009  0.1054456E+03  0.7561462E-02  0.1269244E+00
         -1   -1    0    0    0  501 -0.00000000000E+00  0.00000000000E+00  0.62710926479E+02  0.62710926479E+02  0.00000000000E+00 0.  1.
          1   -1    0    0  501    0  0.00000000000E+00 -0.00000000000E+00 -0.20076392295E+03  0.20076392295E+03  0.00000000000E+00 0. -1.
         25    2    1    2    0    0 -0.14444222880E+02 -0.28210057295E+02 -0.80391591988E+02  0.15203534293E+03  0.12508994576E+03 0.  0.
         23    2    1    2    0    0  0.14444222880E+02  0.28210057295E+02 -0.57661404484E+02  0.11143950650E+03  0.89941553996E+02 0.  0.
          5    1    3    3  502    0  0.35059673861E+02  0.30229397238E+02 -0.53225425248E+02  0.70664103203E+02  0.41800000000E+01 0. -1.
         -5    1    3    3    0  502 -0.49503896742E+02 -0.58439454534E+02 -0.27166166740E+02  0.81371239723E+02  0.41800000000E+01 0. -1.
        -11    1    4    4    0    0  0.19646492590E+02  0.56046109693E+02 -0.58149242426E+02  0.83117299508E+02  0.00000000000E+00 0. -1.
         11    1    4    4    0    0 -0.52022697100E+01 -0.27836052397E+02  0.48783794173E+00  0.28322206995E+02  0.00000000000E+00 0.  1.
</event>
<event>
 8    1  0.6849590E-009  0.1165682E+03  0.7561462E-02  0.1248868E+00
         -1   -1    0    0    0  501 -0.00000000000E+00  0.00000000000E+00  0.33143279937E+03  0.33143279937E+03  0.00000000000E+00 0.  1.
          1   -1    0    0  501    0  0.00000000000E+00 -0.00000000000E+00 -0.75608028952E+02  0.75608028952E+02  0.00000000000E+00 0. -1.
         25    2    1    2    0    0 -0.61893058356E+02  0.80948396964E+02  0.70615242897E+02  0.17611939861E+03  0.12509251134E+03 0.  0.
         23    2    1    2    0    0  0.61893058356E+02 -0.80948396964E+02  0.18520952752E+03  0.23092142972E+03  0.92944843719E+02 0.  0.
          5    1    3    3  502    0 -0.31535854116E+02  0.26499767255E+02 -0.34462796137E+02  0.53869327794E+02  0.41800000000E+01 0. -1.
         -5    1    3    3    0  502 -0.30357204240E+02  0.54448629708E+02  0.10507803903E+03  0.12225007081E+03  0.41800000000E+01 0. -1.
        -11    1    4    4    0    0  0.19356442502E+02 -0.84386889517E+02  0.15841926185E+03  0.18053387913E+03  0.00000000000E+00 0.  1.
         11    1    4    4    0    0  0.42536615854E+02  0.34384925529E+01  0.26790265672E+02  0.50387550587E+02  0.00000000000E+00 0. -1.
</event>
<event>
 8    1  0.6849590E-009  0.8255909E+02  0.7561462E-02  0.1321942E+00
          2   -1    0    0  501    0  0.00000000000E+00  0.00000000000E+00  0.22037581673E+02  0.22037581673E+02  0.00000000000E+00 0. -1.
         -2   -1    0    0    0  501 -0.00000000000E+00 -0.00000000000E+00 -0.83289544601E+03  0.83289544601E+03  0.00000000000E+00 0.  1.
         25    2    1    2    0    0 -0.12747931455E+02 -0.27852730925E+02 -0.21406167188E+03  0.24981552754E+03  0.12508842496E+03 0.  0.
         23    2    1    2    0    0  0.12747931455E+02  0.27852730925E+02 -0.59679619245E+03  0.60511750013E+03  0.95200888997E+02 0.  0.
          5    1    3    3  502    0  0.21129627122E+02 -0.79601456584E+00  0.83977506048E+01  0.23131999411E+02  0.41800000000E+01 0.  1.
         -5    1    3    3    0  502 -0.33877558577E+02 -0.27056716359E+02 -0.22245942248E+03  0.22668352813E+03  0.41800000000E+01 0.  1.
        -11    1    4    4    0    0  0.35032379558E+02  0.54799074671E+02 -0.38880542087E+03  0.39420789122E+03  0.00000000000E+00 0.  1.
         11    1    4    4    0    0 -0.22284448103E+02 -0.26946343747E+02 -0.20799077159E+03  0.21090960892E+03  0.00000000000E+00 0. -1.
</event>
<event>
 8    1  0.6849590E-009  0.1905130E+03  0.7561462E-02  0.1157999E+00
         -2   -1    0    0    0  501 -0.00000000000E+00  0.00000000000E+00  0.22128291527E+02  0.22128291527E+02  0.00000000000E+00 0.  1.
          2   -1    0    0  501    0  0.00000000000E+00 -0.00000000000E+00 -0.17692063693E+04  0.17692063693E+04  0.00000000000E+00 0. -1.
         25    2    1    2    0    0 -0.16128563773E+03 -0.37002460122E+02 -0.89765435205E+03  0.92131026283E+03  0.12508807152E+03 0.  0.
         23    2    1    2    0    0  0.16128563773E+03  0.37002460122E+02 -0.84942372575E+03  0.87002439802E+03  0.89663528288E+02 0.  0.
          5    1    3    3  502    0 -0.17848795098E+02 -0.47638350284E+02 -0.11920340862E+03  0.12967234451E+03  0.41800000000E+01 0. -1.
         -5    1    3    3    0  502 -0.14343684264E+03  0.10635890162E+02 -0.77845094343E+03  0.79163791832E+03  0.41800000000E+01 0. -1.
        -11    1    4    4    0    0  0.13695041210E+02  0.35978300446E+02 -0.12828382101E+03  0.13393554790E+03  0.00000000000E+00 0.  1.
         11    1    4    4    0    0  0.14759059652E+03  0.10241596764E+01 -0.72113990473E+03  0.73608885013E+03  0.00000000000E+00 0. -1.
</event>
<event>
 8    1  0.6849590E-009  0.1022728E+03  0.7561462E-02  0.1275588E+00
          2   -1    0    0  501    0  0.00000000000E+00  0.00000000000E+00  0.12553954955E+04  0.12553954955E+04  0.00000000000E+00 0. -1.
         -2   -1    0    0    0  501 -0.00000000000E+00 -0.00000000000E+00 -0.13746541676E+02  0.13746541676E+02  0.00000000000E+00 0.  1.
         25    2    1    2    0    0 -0.64056429430E+02 -0.44102206627E+02  0.78895102714E+03  0.80258128314E+03  0.12507902319E+03 0.  0.
         23    2    1    2    0    0  0.64056429430E+02  0.44102206627E+02  0.45269792666E+03  0.46656075401E+03  0.81824773754E+02 0.  0.
          5    1    3    3  502    0 -0.36971797959E+02  0.98152552888E+01  0.64875379461E+03  0.64989400021E+03  0.41800000000E+01 0. -1.
         -5    1    3    3    0  502 -0.27084631472E+02 -0.53917461916E+02  0.14019723253E+03  0.15268728293E+03  0.41800000000E+01 0. -1.
        -11    1    4    4    0    0  0.20940404753E+02  0.56880947310E+02  0.33743939238E+03  0.34284003011E+03  0.00000000000E+00 0. -1.
         11    1    4    4    0    0  0.43116024677E+02 -0.12778740683E+02  0.11525853428E+03  0.12372072390E+03  0.00000000000E+00 0.  1.
</event>
<event>
 8    1  0.6849590E-009  0.6603858E+02  0.7561462E-02  0.1374107E+00
          2   -1    0    0  501    0  0.00000000000E+00  0.00000000000E+00  0.16108609283E+03  0.16108609283E+03  0.00000000000E+00 0. -1.
         -2   -1    0    0    0  501 -0.00000000000E+00 -0.00000000000E+00 -0.85477177674E+02  0.85477177674E+02  0.00000000000E+00 0.  1.
         25    2    1    2    0    0 -0.28706377768E+02 -0.21932272443E+02  0.14724168115E+02  0.13102981853E+03  0.12508769532E+03 0.  0.
         23    2    1    2    0    0  0.28706377768E+02  0.21932272443E+02  0.60884747040E+02  0.11553345197E+03  0.91301398690E+02 0.  0.
          5    1    3    3  502    0  0.84630988417E+01 -0.17291470875E+02  0.65156492847E+02  0.68069523042E+02  0.41800000000E+01 0.  1.
         -5    1    3    3    0  502 -0.37169476610E+02 -0.46408015687E+01 -0.50432324732E+02  0.62960295492E+02  0.41800000000E+01 0.  1.
        -11    1    4    4    0    0 -0.43567994849E+01  0.37773789809E+02 -0.67333067072E+01  0.38615778090E+02  0.00000000000E+00 0.  1.
         11    1    4    4    0    0  0.33063177253E+02 -0.15841517365E+02  0.67618053747E+02  0.76917673879E+02  0.00000000000E+00 0. -1.
</event>
<event>
 8    1  0.6849590E-009  0.1084603E+03  0.7561462E-02  0.1263448E+00
         -4   -1    0    0    0  501 -0.00000000000E+00  0.00000000000E+00  0.99146717850E+03  0.99146717850E+03  0.00000000000E+00 0. -1.
          4   -1    0    0  501    0  0.00000000000E+00 -0.00000000000E+00 -0.20400279554E+02  0.20400279554E+02  0.00000000000E+00 0.  1.
         25    2    1    2    0    0  0.76034642675E+02  0.28650536553E+02  0.67232839092E+03  0.68867640044E+03  0.12509036395E+03 0.  0.
         23    2    1    2    0    0 -0.76034642675E+02 -0.28650536553E+02  0.29873850803E+03  0.32319105762E+03  0.92766607211E+02 0.  0.
          5    1    3    3  502    0  0.85735095549E+02  0.43835620682E+02  0.28402916424E+03  0.29993683800E+03  0.41800000000E+01 0. -1.
         -5    1    3    3    0  502 -0.97004528746E+01 -0.15185084129E+02  0.38829922668E+03  0.38873956244E+03  0.41800000000E+01 0. -1.
        -11    1    4    4    0    0 -0.19286560997E+02  0.19640396334E+02  0.18379268828E+02  0.33098551719E+02  0.00000000000E+00 0.  1.
         11    1    4    4    0    0 -0.56748081678E+02 -0.48290932887E+02  0.28035923920E+03  0.29009250590E+03  0.00000000000E+00 0. -1.
</event>
<event>
 8    1  0.6849590E-009  0.1047761E+03  0.7561462E-02  0.1270561E+00
         -2   -1    0    0    0  501 -0.00000000000E+00  0.00000000000E+00  0.21859928089E+02  0.21859928089E+02  0.00000000000E+00 0.  1.
          2   -1    0    0  501    0  0.00000000000E+00 -0.00000000000E+00 -0.74910097073E+03  0.74910097073E+03  0.00000000000E+00 0. -1.
         25    2    1    2    0    0  0.60293305958E+02 -0.16244332377E+02 -0.48891914186E+03  0.50851598227E+03  0.12508963137E+03 0.  0.
         23    2    1    2    0    0 -0.60293305958E+02  0.16244332377E+02 -0.23832190078E+03  0.26244491654E+03  0.90448022364E+02 0.  0.
          5    1    3    3  502    0  0.96982656383E+02  0.28198476889E+01 -0.37051864172E+03  0.38303410220E+03  0.41800000000E+01 0.  1.
         -5    1    3    3    0  502 -0.36689350425E+02 -0.19064180066E+02 -0.11840050013E+03  0.12548188008E+03  0.41800000000E+01 0.  1.
        -11    1    4    4    0    0 -0.37611601936E+02 -0.71625248041E+01 -0.22329571389E+03  0.22655443099E+03  0.00000000000E+00 0. -1.
         11    1    4    4    0    0 -0.22681704023E+02  0.23406857181E+02 -0.15026186892E+02  0.35890485550E+02  0.00000000000E+00 0.  1.
</event>
<event>
 8    1  0.6849590E-009  0.2970000E+03  0.7561462E-02  0.1086750E+00
         -1   -1    0    0    0  501 -0.00000000000E+00  0.00000000000E+00  0.87490189370E+02  0.87490189370E+02  0.00000000000E+00 0.  1.
          1   -1    0    0  501    0  0.00000000000E+00 -0.00000000000E+00 -0.11481210379E+04  0.11481210379E+04  0.00000000000E+00 0. -1.
         25    2    1    2    0    0  0.27773198727E+02 -0.29062781783E+03 -0.64306088284E+03  0.71722541461E+03  0.12509643181E+03 0.  0.
         23    2    1    2    0    0 -0.27773198727E+02  0.29062781783E+03 -0.41756996566E+03  0.51838581263E+03  0.95515943451E+02 0.  0.
          5    1    3    3  502    0 -0.17669643921E+02 -0.19258437675E+03 -0.29511932260E+03  0.35286519445E+03  0.41800000000E+01 0. -1.
         -5    1    3    3    0  502  0.45442842648E+02 -0.98043441082E+02 -0.34794156024E+03  0.36436022015E+03  0.41800000000E+01 0. -1.
        -11    1    4    4    0    0 -0.29938996212E+02  0.26110931956E+03 -0.30802181080E+03  0.40490968892E+03  0.00000000000E+00 0.  1.
         11    1    4    4    0    0  0.21657974854E+01  0.29518498270E+02 -0.10954815486E+03  0.11347612371E+03  0.00000000000E+00 0. -1.
</event>
<event>
 8    1  0.6849590E-009  0.1461985E+03  0.7561462E-02  0.1205224E+00
         -2   -1    0    0    0  501 -0.00000000000E+00  0.00000000000E+00  0.27649586102E+02  0.27649586102E+02  0.00000000000E+00 0.  1.
          2   -1    0    0  501    0  0.00000000000E+00 -0.00000000000E+00 -0.85290855140E+03  0.85290855140E+03  0.00000000000E+00 0. -1.
         25    2    1    2    0    0  0.21152787140E+02 -0.10516859363E+03 -0.50443392724E+03  0.53066871981E+03  0.12509128563E+03 0.  0.
         23    2    1    2    0    0 -0.21152787140E+02  0.10516859363E+03 -0.32082503805E+03  0.34988941769E+03  0.89364568367E+02 0.  0.
          5    1    3    3  502    0 -0.32612394406E+02 -0.96304002307E+02 -0.24062233761E+03  0.26125583417E+03  0.41800000000E+01 0.  1.
         -5    1    3    3    0  502  0.53765181546E+02 -0.88645913241E+01 -0.26381158963E+03  0.26941288564E+03  0.41800000000E+01 0.  1.
        -11    1    4    4    0    0  0.26405850057E+02  0.75367888836E+02 -0.14788117759E+03  0.16806674350E+03  0.00000000000E+00 0.  1.
         11    1    4    4    0    0 -0.47558637197E+02  0.29800704795E+02 -0.17294386046E+03  0.18182267419E+03  0.00000000000E+00 0. -1.
</event>
<event>
 8    1  0.6849590E-009  0.1944904E+03  0.7561462E-02  0.1154473E+00
          1   -1    0    0  501    0  0.00000000000E+00  0.00000000000E+00  0.25633608406E+03  0.25633608406E+03  0.00000000000E+00 0. -1.
         -1   -1    0    0    0  501 -0.00000000000E+00 -0.00000000000E+00 -0.17956850321E+03  0.17956850321E+03  0.00000000000E+00 0.  1.
         25    2    1    2    0    0 -0.18360052211E+03  0.14290465805E+02  0.59319551052E+02  0.23039086795E+03  0.12509106190E+03 0.  0.
         23    2    1    2    0    0  0.18360052211E+03 -0.14290465805E+02  0.17448029800E+02  0.20551371931E+03  0.89543765567E+02 0.  0.
          5    1    3    3  502    0 -0.15479709732E+03 -0.16926847984E+02  0.88052702755E+02  0.17893968365E+03  0.41800000000E+01 0.  1.
         -5    1    3    3    0  502 -0.28803424784E+02  0.31217313789E+02 -0.28733151702E+02  0.51451184304E+02  0.41800000000E+01 0.  1.
        -11    1    4    4    0    0  0.98582103622E+01 -0.13579492079E+02  0.26687176927E+02  0.31524471907E+02  0.00000000000E+00 0. -1.
         11    1    4    4    0    0  0.17374231174E+03 -0.71097372563E+00 -0.92391471272E+01  0.17398924741E+03  0.00000000000E+00 0.  1.
</event>
<event>
 8    1  0.6849590E-009  0.1028962E+03  0.7561462E-02  0.1274321E+00
         -3   -1    0    0    0  501 -0.00000000000E+00  0.00000000000E+00  0.21990239945E+03  0.21990239945E+03  0.00000000000E+00 0.  1.
          3   -1    0    0  501    0  0.00000000000E+00 -0.00000000000E+00 -0.82204579712E+02  0.82204579712E+02  0.00000000000E+00 0. -1.
         25    2    1    2    0    0  0.31020657824E+02  0.43212310440E+02  0.14198523532E+03  0.19656152558E+03  0.12508813415E+03 0.  0.
         23    2    1    2    0    0 -0.31020657824E+02 -0.43212310440E+02 -0.42874155749E+01  0.10554545358E+03  0.91059737835E+02 0.  0.
          5    1    3    3  502    0  0.43377538857E+01 -0.27166325387E+02 -0.77809915170E+01  0.28893625124E+02  0.41800000000E+01 0. -1.
         -5    1    3    3    0  502  0.26682903938E+02  0.70378635827E+02  0.14976622683E+03  0.16766790046E+03  0.41800000000E+01 0. -1.
        -11    1    4    4    0    0 -0.51730090013E+02 -0.57559651984E+02 -0.13810335040E+02  0.78611965394E+02  0.00000000000E+00 0.  1.
         11    1    4    4    0    0  0.20709432189E+02  0.14347341544E+02  0.95229194648E+01  0.26933488190E+02  0.00000000000E+00 0. -1.
</event>
<event>
 8    1  0.6849590E-009  0.2149690E+03  0.7561462E-02  0.1137690E+00
          2   -1    0    0  501    0  0.00000000000E+00  0.00000000000E+00  0.16278187301E+04  0.16278187301E+04  0.00000000000E+00 0. -1.
         -2   -1    0    0    0  501 -0.00000000000E+00 -0.00000000000E+00 -0.37455410086E+02  0.37455410086E+02  0.00000000000E+00 0.  1.
         25    2    1    2    0    0 -0.20270604657E+03  0.30558180804E+02  0.10964488085E+04  0.11224391066E+04  0.12508403057E+03 0.  0.
         23    2    1    2    0    0  0.20270604657E+03 -0.30558180804E+02  0.49391451145E+03  0.54283503349E+03  0.93245832241E+02 0.  0.
          5    1    3    3  502    0 -0.17744503997E+03  0.31736617240E+02  0.63022445363E+03  0.65551070887E+03  0.41800000000E+01 0. -1.
         -5    1    3    3    0  502 -0.25261006604E+02 -0.11784364351E+01  0.46622435489E+03  0.46692839778E+03  0.41800000000E+01 0. -1.
        -11    1    4    4    0    0  0.20681179092E+03 -0.14385558740E+02  0.46983221813E+03  0.51353712072E+03  0.00000000000E+00 0.  1.
         11    1    4    4    0    0 -0.41057443478E+01 -0.16172622064E+02  0.24082293323E+02  0.29297912772E+02  0.00000000000E+00 0. -1.
</event>
<event>
 8    1  0.6849590E-009  0.1112937E+03  0.7561462E-02  0.1258193E+00
         -4   -1    0    0    0  501 -0.00000000000E+00  0.00000000000E+00  0.22971065926E+02  0.22971065926E+02  0.00000000000E+00 0.  1.
          4   -1    0    0  501    0  0.00000000000E+00 -0.00000000000E+00 -0.58283226679E+03  0.58283226679E+03  0.00000000000E+00 0. -1.
         25    2    1    2    0    0  0.60869613143E+01  0.53317923264E+02 -0.32773976575E+03  0.35488035007E+03  0.12508739655E+03 0.  0.
         23    2    1    2    0    0 -0.60869613143E+01 -0.53317923264E+02 -0.23212143512E+03  0.25092298265E+03  0.78753606523E+02 0.  0.
          5    1    3    3  502    0  0.52188392201E+02 -0.13114556006E+02 -0.10889219990E+03  0.12153437151E+03  0.41800000000E+01 0.  1.
         -5    1    3    3    0  502 -0.46101430887E+02  0.66432479270E+02 -0.21884756585E+03  0.23334597856E+03  0.41800000000E+01 0.  1.
        -11    1    4    4    0    0  0.95427510013E+01  0.14880896239E+02 -0.98682893553E+02  0.10025377125E+03  0.00000000000E+00 0. -1.
         11    1    4    4    0    0 -0.15629712316E+02 -0.68198819503E+02 -0.13343854156E+03  0.15066921140E+03  0.00000000000E+00 0.  1.
</event>
<event>
 8    1  0.6849590E-009  0.1377615E+03  0.7561462E-02  0.1216373E+00
          2   -1    0    0  501    0  0.00000000000E+00  0.00000000000E+00  0.10990321085E+03  0.10990321085E+03  0.00000000000E+00 0. -1.
         -2   -1    0    0    0  501 -0.00000000000E+00 -0.00000000000E+00 -0.20996231523E+03  0.20996231523E+03  0.00000000000E+00 0.  1.
         25    2    1    2    0    0  0.80511820668E+02 -0.67273489777E+02 -0.36965221964E+02  0.16739719340E+03  0.12509003569E+03 0.  0.
         23    2    1    2    0    0 -0.80511820668E+02  0.67273489777E+02 -0.63093882417E+02  0.15246833269E+03  0.90872871527E+02 0.  0.
          5    1    3    3  502    0  0.48941213356E+01 -0.62760181927E+02 -0.61056876989E+02  0.87796397915E+02  0.41800000000E+01 0. -1.
         -5    1    3    3    0  502  0.75617699332E+02 -0.45133078502E+01  0.24091655026E+02  0.79600795486E+02  0.41800000000E+01 0. -1.
        -11    1    4    4    0    0 -0.67088659143E+02 -0.88890163336E+00 -0.17391743101E+02  0.69311983523E+02  0.00000000000E+00 0.  1.
         11    1    4    4    0    0 -0.13423161524E+02  0.68162391410E+02 -0.45702139316E+02  0.83156349163E+02  0.00000000000E+00 0. -1.
</event>
<event>
 8    1  0.6849590E-009  0.1209626E+03  0.7561462E-02  0.1241518E+00
          2   -1    0    0  501    0  0.00000000000E+00  0.00000000000E+00  0.85436842863E+03  0.85436842863E+03  0.00000000000E+00 0. -1.
         -2   -1    0    0    0  501 -0.00000000000E+00 -0.00000000000E+00 -0.18587755655E+02  0.18587755655E+02  0.00000000000E+00 0.  1.
         25    2    1    2    0    0 -0.12728019463E+02 -0.63242637035E+02  0.45134436673E+03  0.47278048152E+03  0.12509201697E+03 0.  0.
         23    2    1    2    0    0  0.12728019463E+02  0.63242637035E+02  0.38443630625E+03  0.40017570277E+03  0.90485832618E+02 0.  0.
          5    1    3    3  502    0  0.46230456356E+02 -0.54548294582E+02  0.32799974416E+03  0.33572917077E+03  0.41800000000E+01 0.  1.
         -5    1    3    3    0  502 -0.58958475819E+02 -0.86943424526E+01  0.12334462257E+03  0.13705131075E+03  0.41800000000E+01 0.  1.
        -11    1    4    4    0    0 -0.38651588702E+02  0.20670151266E+02  0.17263728139E+03  0.17811465798E+03  0.00000000000E+00 0.  1.
         11    1    4    4    0    0  0.51379608165E+02  0.42572485769E+02  0.21179902486E+03  0.22206104479E+03  0.00000000000E+00 0. -1.
</event>
<event>
 8    1  0.6849590E-009  0.1308886E+03  0.7561462E-02  0.1226143E+00
         -2   -1    0    0    0  501 -0.00000000000E+00  0.00000000000E+00  0.52865044496E+02  0.52865044496E+02  0.00000000000E+00 0.  1.
          2   -1    0    0  501    0  0.00000000000E+00 -0.00000000000E+00 -0.42163912639E+03  0.42163912639E+03  0.00000000000E+00 0. -1.
         25    2    1    2    0    0 -0.33636438438E+02  0.72294802965E+02 -0.31175458044E+03  0.34524784711E+03  0.12508880439E+03 0.  0.
         23    2    1    2    0    0  0.33636438438E+02 -0.72294802965E+02 -0.57019501449E+02  0.12925632377E+03  0.84249778412E+02 0.  0.
          5    1    3    3  502    0 -0.40583274027E+02 -0.26078174371E+02 -0.82731690650E+02  0.95859680508E+02  0.41800000000E+01 0.  1.
         -5    1    3    3    0  502  0.69468355885E+01  0.98372977336E+02 -0.22902288979E+03  0.24938816661E+03  0.41800000000E+01 0.  1.
        -11    1    4    4    0    0  0.43398233996E+02 -0.17504183917E+01 -0.31305138244E+02  0.53539540145E+02  0.00000000000E+00 0.  1.
         11    1    4    4    0    0 -0.97617955582E+01 -0.70544384573E+02 -0.25714363206E+02  0.75716783624E+02  0.00000000000E+00 0. -1.
</event>
<event>
 8    1  0.6849590E-009  0.1093744E+03  0.7561462E-02  0.1261733E+00
          2   -1    0    0  501    0  0.00000000000E+00  0.00000000000E+00  0.30379631327E+02  0.30379631327E+02  0.00000000000E+00 0. -1.
         -2   -1    0    0    0  501 -0.00000000000E+00 -0.00000000000E+00 -0.69052672675E+03  0.69052672675E+03  0.00000000000E+00 0.  1.
         25    2    1    2    0    0 -0.18840260085E+02  0.88736270881E+02 -0.46050867515E+03  0.48574150835E+03  0.12508993511E+03 0.  0.
         23    2    1    2    0    0  0.18840260085E+02 -0.88736270881E+02 -0.19963842027E+03  0.23516484974E+03  0.84958381178E+02 0.  0.
          5    1    3    3  502    0  0.40849086060E+01 -0.62642806547E+01 -0.28248208394E+03  0.28261197398E+03  0.41800000000E+01 0.  1.
         -5    1    3    3    0  502 -0.22925168691E+02  0.95000551536E+02 -0.17802659122E+03  0.20312953437E+03  0.41800000000E+01 0.  1.
        -11    1    4    4    0    0 -0.16368679696E+02  0.55929520484E+00 -0.80604640713E+02  0.82251775608E+02  0.00000000000E+00 0.  1.
         11    1    4    4    0    0  0.35208939781E+02 -0.89295566086E+02 -0.11903377956E+03  0.15291307413E+03  0.00000000000E+00 0. -1.
</event>
<event>
 8    1  0.6849590E-009  0.1198394E+03  0.7561462E-02  0.1243362E+00
         -1   -1    0    0    0  501 -0.00000000000E+00  0.00000000000E+00  0.19858199656E+02  0.19858199656E+02  0.00000000000E+00 0.  1.
          1   -1    0    0  501    0  0.00000000000E+00 -0.00000000000E+00 -0.77337019894E+03  0.77337019894E+03  0.00000000000E+00 0. -1.
         25    2    1    2    0    0 -0.44639773597E+02 -0.33509676210E+02 -0.36460098790E+03  0.38948200147E+03  0.12508693497E+03 0.  0.
         23    2    1    2    0    0  0.44639773597E+02  0.33509676210E+02 -0.38891101138E+03  0.40374639713E+03  0.92971880876E+02 0.  0.
          5    1    3    3  502    0 -0.22567720173E+02 -0.78175271065E+02 -0.27569889178E+03  0.28748569761E+03  0.41800000000E+01 0. -1.
         -5    1    3    3    0  502 -0.22072053424E+02  0.44665594855E+02 -0.88902096119E+02  0.10199630386E+03  0.41800000000E+01 0. -1.
        -11    1    4    4    0    0  0.11838584691E+00  0.57590514215E+02 -0.19372330031E+03  0.20210244537E+03  0.00000000000E+00 0.  1.
         11    1    4    4    0    0  0.44521387750E+02 -0.24080838004E+02 -0.19518771107E+03  0.20164395175E+03  0.00000000000E+00 0. -1.
</event>
<event>
 8    1  0.6849590E-009  0.1412126E+03  0.7561462E-02  0.1211707E+00
         -1   -1    0    0    0  501 -0.00000000000E+00  0.00000000000E+00  0.12881220762E+03  0.12881220762E+03  0.00000000000E+00 0.  1.
          1   -1    0    0  501    0  0.00000000000E+00 -0.00000000000E+00 -0.27930296467E+03  0.27930296467E+03  0.00000000000E+00 0. -1.
         25    2    1    2    0    0 -0.21306022830E+02 -0.13650991664E+03 -0.69371725493E+00  0.18637840087E+03  0.12509006002E+03 0.  0.
         23    2    1    2    0    0  0.21306022830E+02  0.13650991664E+03 -0.14979703979E+03  0.22173677142E+03  0.87402166564E+02 0.  0.
          5    1    3    3  502    0 -0.82778128968E+01 -0.12369618423E+03 -0.49914079533E+02  0.13370922150E+03  0.41800000000E+01 0.  1.
         -5    1    3    3    0  502 -0.13028209933E+02 -0.12813732411E+02  0.49220362278E+02  0.52669179367E+02  0.41800000000E+01 0.  1.
        -11    1    4    4    0    0  0.60943202278E+01  0.98601655259E+02 -0.43653011987E+02  0.10800468793E+03  0.00000000000E+00 0. -1.
         11    1    4    4    0    0  0.15211702602E+02  0.37908261378E+02 -0.10614402780E+03  0.11373208349E+03  0.00000000000E+00 0.  1.
</event>
<event>
 8    1  0.6849590E-009  0.1224544E+03  0.7561462E-02  0.1239102E+00
          1   -1    0    0  501    0  0.00000000000E+00  0.00000000000E+00  0.86987652977E+03  0.86987652977E+03  0.00000000000E+00 0. -1.
         -1   -1    0    0    0  501 -0.00000000000E+00 -0.00000000000E+00 -0.28541789381E+02  0.28541789381E+02  0.00000000000E+00 0.  1.
         25    2    1    2    0    0 -0.10369349702E+03  0.15134473810E+02  0.55727188115E+03  0.58067472365E+03  0.12509912684E+03 0.  0.
         23    2    1    2    0    0  0.10369349702E+03 -0.15134473810E+02  0.28406285924E+03  0.31774359551E+03  0.96373704221E+02 0.  0.
          5    1    3    3  502    0 -0.89854825351E+02 -0.85798802638E+01  0.54098238189E+03  0.54847690371E+03  0.41800000000E+01 0. -1.
         -5    1    3    3    0  502 -0.13838671670E+02  0.23714354074E+02  0.16289499265E+02  0.32197819942E+02  0.41800000000E+01 0. -1.
        -11    1    4    4    0    0 -0.10889061787E+02 -0.42047441415E+01  0.46984925952E+00  0.11682135859E+02  0.00000000000E+00 0.  1.
         11    1    4    4    0    0  0.11458255881E+03 -0.10929729668E+02  0.28359300998E+03  0.30606145965E+03  0.00000000000E+00 0. -1.
</event>
<event>
 8    1  0.6849590E-009  0.1295473E+03  0.7561462E-02  0.1228129E+00
          2   -1    0    0  501    0  0.00000000000E+00  0.00000000000E+00  0.63583687273E+03  0.63583687273E+03  0.00000000000E+00 0. -1.
         -2   -1    0    0    0  501 -0.00000000000E+00 -0.00000000000E+00 -0.41645806985E+02  0.41645806985E+02  0.00000000000E+00 0.  1.
         25    2    1    2    0    0 -0.99410243437E+02 -0.50525820529E+02  0.41438579201E+03  0.44698925142E+03  0.12509416945E+03 0.  0.
         23    2    1    2    0    0  0.99410243437E+02  0.50525820529E+02  0.17980527374E+03  0.23049342830E+03  0.91444130385E+02 0.  0.
          5    1    3    3  502    0 -0.94343174560E+02 -0.61672109381E+02  0.18114210661E+03  0.21338701659E+03  0.41800000000E+01 0.  1.
         -5    1    3    3    0  502 -0.50670688769E+01  0.11146288852E+02  0.23324368539E+03  0.23360223483E+03  0.41800000000E+01 0.  1.
        -11    1    4    4    0    0  0.10756538578E+03  0.30594510164E+02  0.17614917655E+03  0.20865011064E+03  0.00000000000E+00 0. -1.
         11    1    4    4    0    0 -0.81551423415E+01  0.19931310365E+02  0.36560971864E+01  0.21843317654E+02  0.00000000000E+00 0.  1.
</event>
<event>
 8    1  0.6849590E-009  0.2437718E+03  0.7561462E-02  0.1117305E+00
         -1   -1    0    0    0  501 -0.00000000000E+00  0.00000000000E+00  0.40744583257E+03  0.40744583257E+03  0.00000000000E+00 0.  1.
          1   -1    0    0  501    0  0.00000000000E+00 -0.00000000000E+00 -0.24291594582E+03  0.24291594582E+03  0.00000000000E+00 0. -1.
         25    2    1    2    0    0 -0.61897967052E+02  0.23189486834E+03  0.26109911355E+03  0.37606802809E+03  0.12509127213E+03 0.  0.
         23    2    1    2    0    0  0.61897967052E+02 -0.23189486834E+03 -0.96569226799E+02  0.27429375030E+03  0.91130991445E+02 0.  0.
          5    1    3    3  502    0  0.18277164213E+01  0.95159071914E+02  0.29671226080E+02  0.99781980196E+02  0.41800000000E+01 0.  1.
         -5    1    3    3    0  502 -0.63725683473E+02  0.13673579643E+03  0.23142788748E+03  0.27628604789E+03  0.41800000000E+01 0.  1.
        -11    1    4    4    0    0  0.16334536056E+02 -0.11042782054E+03  0.15427319922E+01  0.11164004944E+03  0.00000000000E+00 0.  1.
         11    1    4    4    0    0  0.45563430996E+02 -0.12146704780E+03 -0.98111958791E+02  0.16265370086E+03  0.00000000000E+00 0. -1.
</event>
<event>
 8    1  0.6849590E-009  0.2172502E+03  0.7561462E-02  0.1135950E+00
         -1   -1    0    0    0  501 -0.00000000000E+00  0.00000000000E+00  0.37153224328E+03  0.37153224328E+03  0.00000000000E+00 0.  1.
          1   -1    0    0  501    0  0.00000000000E+00 -0.00000000000E+00 -0.15513635762E+03  0.15513635762E+03  0.00000000000E+00 0. -1.
         25    2    1    2    0    0 -0.20323139866E+03  0.20185911736E+02  0.18118042375E+03  0.30030749320E+03  0.12509105519E+03 0.  0.
         23    2    1    2    0    0  0.20323139866E+03 -0.20185911736E+02  0.35215461904E+02  0.22636110770E+03  0.91042571841E+02 0.  0.
          5    1    3    3  502    0 -0.18665286787E+03  0.35077055429E+02  0.19621147614E+03  0.27310457461E+03  0.41800000000E+01 0. -1.
         -5    1    3    3    0  502 -0.16578530788E+02 -0.14891143693E+02 -0.15031052397E+02  0.27202918589E+02  0.41800000000E+01 0. -1.
        -11    1    4    4    0    0  0.12988195067E+03  0.29598907102E+02  0.34914603174E+02  0.13771145895E+03  0.00000000000E+00 0.  1.
         11    1    4    4    0    0  0.73349447995E+02 -0.49784818838E+02  0.30085873026E+00  0.88649648752E+02  0.00000000000E+00 0. -1.
</event>
<event>
 8    1  0.6849590E-009  0.1394087E+03  0.7561462E-02  0.1214127E+00
         -1   -1    0    0    0  501 -0.00000000000E+00  0.00000000000E+00  0.15064270803E+03  0.15064270803E+03  0.00000000000E+00 0.  1.
          1   -1    0    0  501    0  0.00000000000E+00 -0.00000000000E+00 -0.14351234969E+03  0.14351234969E+03  0.00000000000E+00 0. -1.
         25    2    1    2    0    0  0.98111006417E+02  0.11375416814E+02  0.14065004681E+02  0.16000301983E+03  0.12509185549E+03 0.  0.
         23    2    1    2    0    0 -0.98111006417E+02 -0.11375416814E+02 -0.69346463426E+01  0.13415203788E+03  0.90518010697E+02 0.  0.
          5    1    3    3  502    0 -0.14681594513E+02  0.36060781001E+02 -0.13141674318E+02  0.41305025696E+02  0.41800000000E+01 0.  1.
         -5    1    3    3    0  502  0.11279260093E+03 -0.24685364187E+02  0.27206678999E+02  0.11869799414E+03  0.41800000000E+01 0.  1.
        -11    1    4    4    0    0 -0.38998552400E+02  0.32288627743E+02 -0.27795345453E+02  0.57758322341E+02  0.00000000000E+00 0.  1.
         11    1    4    4    0    0 -0.59112454017E+02 -0.43664044557E+02  0.20860699111E+02  0.76393715542E+02  0.00000000000E+00 0. -1.
</event>
<event>
 8    1  0.6849590E-009  0.1535468E+03  0.7561462E-02  0.1196181E+00
         -2   -1    0    0    0  501 -0.00000000000E+00  0.00000000000E+00  0.22492310022E+02  0.22492310022E+02  0.00000000000E+00 0. -1.
          2   -1    0    0  501    0  0.00000000000E+00 -0.00000000000E+00 -0.10780905937E+04  0.10780905937E+04  0.00000000000E+00 0.  1.
         25    2    1    2    0    0  0.58957881288E+02 -0.93478905325E+02 -0.55827500714E+03  0.58269486071E+03  0.12509188461E+03 0.  0.
         23    2    1    2    0    0 -0.58957881288E+02  0.93478905325E+02 -0.49732327651E+03  0.51788804298E+03  0.93076560952E+02 0.  0.
          5    1    3    3  502    0  0.72567181564E+02 -0.11715856836E+03 -0.49035889144E+03  0.50937357685E+03  0.41800000000E+01 0. -1.
         -5    1    3    3    0  502 -0.13609300276E+02  0.23679663031E+02 -0.67916115702E+02  0.73321283863E+02  0.41800000000E+01 0. -1.
        -11    1    4    4    0    0  0.16458375563E+02 -0.53184201694E+01 -0.33521205571E+02  0.37720484384E+02  0.00000000000E+00 0. -1.
         11    1    4    4    0    0 -0.75416256851E+02  0.98797325494E+02 -0.46380207094E+03  0.48016755859E+03  0.00000000000E+00 0.  1.
</event>
<event>
 8    1  0.6849590E-009  0.1325579E+03  0.7561462E-02  0.1223709E+00
          1   -1    0    0  501    0  0.00000000000E+00  0.00000000000E+00  0.18972092326E+03  0.18972092326E+03  0.00000000000E+00 0. -1.
         -1   -1    0    0    0  501 -0.00000000000E+00 -0.00000000000E+00 -0.12836782693E+03  0.12836782693E+03  0.00000000000E+00 0.  1.
         25    2    1    2    0    0 -0.19794537032E+02  0.70957696338E+02 -0.48048649551E+02  0.15291675733E+03  0.12509214037E+03 0.  0.
         23    2    1    2    0    0  0.19794537032E+02 -0.70957696338E+02  0.10940174588E+03  0.16517199286E+03  0.99429506981E+02 0.  0.
          5    1    3    3  502    0 -0.65088960779E+02  0.59741374159E+01 -0.27054957578E+02  0.70863998354E+02  0.41800000000E+01 0.  1.
         -5    1    3    3    0  502  0.45294423747E+02  0.64983558922E+02 -0.20993691973E+02  0.82052758975E+02  0.41800000000E+01 0.  1.
        -11    1    4    4    0    0  0.58419930519E+02 -0.40070162578E+02  0.44822760623E+02  0.83830698916E+02  0.00000000000E+00 0.  1.
         11    1    4    4    0    0 -0.38625393487E+02 -0.30887533760E+02  0.64578985260E+02  0.81341293948E+02  0.00000000000E+00 0. -1.
</event>
<event>
 8    1  0.6849590E-009  0.1529286E+03  0.7561462E-02  0.1196920E+00
          1   -1    0    0  501    0  0.00000000000E+00  0.00000000000E+00  0.20208572067E+03  0.20208572067E+03  0.00000000000E+00 0.  1.
         -1   -1    0    0    0  501 -0.00000000000E+00 -0.00000000000E+00 -0.16693114391E+03  0.16693114391E+03  0.00000000000E+00 0. -1.
         25    2    1    2    0    0 -0.31802525264E+02  0.14167352946E+03 -0.10280292058E+02  0.19192572887E+03  0.12508801475E+03 0.  0.
         23    2    1    2    0    0  0.31802525264E+02 -0.14167352946E+03  0.45434868810E+02  0.17709113571E+03  0.90631967216E+02 0.  0.
          5    1    3    3  502    0 -0.27761647633E+02  0.12377054767E+03  0.44116922335E+02  0.13436380758E+03  0.41800000000E+01 0. -1.
         -5    1    3    3    0  502 -0.40408776303E+01  0.17902981783E+02 -0.54397214393E+02  0.57561921289E+02  0.41800000000E+01 0. -1.
        -11    1    4    4    0    0  0.50138148121E+02 -0.69782700544E+02 -0.70431683828E+01  0.86215227269E+02  0.00000000000E+00 0. -1.
         11    1    4    4    0    0 -0.18335622857E+02 -0.71890828913E+02  0.52478037193E+02  0.90875908441E+02  0.00000000000E+00 0.  1.
</event>
<event>
 8    1  0.6849590E-009  0.1239485E+03  0.7561462E-02  0.1236722E+00
         -1   -1    0    0    0  501 -0.00000000000E+00  0.00000000000E+00  0.65895677885E+02  0.65895677885E+02  0.00000000000E+00 0.  1.
          1   -1    0    0  501    0  0.00000000000E+00 -0.00000000000E+00 -0.33057026043E+03  0.33057026043E+03  0.00000000000E+00 0. -1.
         25    2    1    2    0    0 -0.84770891747E+02  0.41756664650E+02 -0.99593742561E+02  0.18573017140E+03  0.12508820840E+03 0.  0.
         23    2    1    2    0    0  0.84770891747E+02 -0.41756664650E+02 -0.16508083999E+03  0.21073576692E+03  0.90709186953E+02 0.  0.
          5    1    3    3  502    0  0.25810202360E+02  0.17985630315E+02  0.43825672621E+01  0.32036365890E+02  0.41800000000E+01 0. -1.
         -5    1    3    3    0  502 -0.11058109411E+03  0.23771034336E+02 -0.10397630982E+03  0.15369380551E+03  0.41800000000E+01 0. -1.
        -11    1    4    4    0    0  0.32180916547E+02 -0.38653216459E+02 -0.14646782791E+03  0.15486286561E+03  0.00000000000E+00 0. -1.
         11    1    4    4    0    0  0.52589975200E+02 -0.31034481912E+01 -0.18613012080E+02  0.55872901311E+02  0.00000000000E+00 0.  1.
</event>
<event>
 8    1  0.6849590E-009  0.9843181E+02  0.7561462E-02  0.1283629E+00
          1   -1    0    0  501    0  0.00000000000E+00  0.00000000000E+00  0.80732445269E+02  0.80732445269E+02  0.00000000000E+00 0. -1.
         -1   -1    0    0    0  501 -0.00000000000E+00 -0.00000000000E+00 -0.17043105437E+03  0.17043105437E+03  0.00000000000E+00 0.  1.
         25    2    1    2    0    0 -0.21960102222E+02  0.39794459052E+02 -0.59416865247E+02  0.14575344106E+03  0.12509139317E+03 0.  0.
         23    2    1    2    0    0  0.21960102222E+02 -0.39794459052E+02 -0.30281743848E+02  0.10541005858E+03  0.90157924652E+02 0.  0.
          5    1    3    3  502    0 -0.55271525815E+02  0.60833118661E+02 -0.10749375662E+02  0.82997779303E+02  0.41800000000E+01 0.  1.
         -5    1    3    3    0  502  0.33311423594E+02 -0.21038659610E+02 -0.48667489585E+02  0.62755661757E+02  0.41800000000E+01 0.  1.
        -11    1    4    4    0    0  0.46555822705E+01 -0.52983180516E+02 -0.52202171235E+02  0.74524885411E+02  0.00000000000E+00 0.  1.
         11    1    4    4    0    0  0.17304519951E+02  0.13188721464E+02  0.21920427387E+02  0.30885173165E+02  0.00000000000E+00 0. -1.
</event>
<event>
 8    1  0.6849590E-009  0.2203022E+03  0.7561462E-02  0.1133658E+00
          2   -1    0    0  501    0  0.00000000000E+00  0.00000000000E+00  0.19090981672E+03  0.19090981672E+03  0.00000000000E+00 0. -1.
         -2   -1    0    0    0  501 -0.00000000000E+00 -0.00000000000E+00 -0.25857740217E+03  0.25857740217E+03  0.00000000000E+00 0.  1.
         25    2    1    2    0    0 -0.12137699450E+03  0.14636452459E+03 -0.64445916736E+01  0.22769079115E+03  0.12508642914E+03 0.  0.
         23    2    1    2    0    0  0.12137699450E+03 -0.14636452459E+03 -0.61222993774E+02  0.22179642775E+03  0.96386988449E+02 0.  0.
          5    1    3    3  502    0  0.11032380259E+02  0.77311700432E+02 -0.19346915013E+01  0.78230606984E+02  0.41800000000E+01 0.  1.
         -5    1    3    3    0  502 -0.13240937476E+03  0.69052824161E+02 -0.45099001723E+01  0.14946018416E+03  0.41800000000E+01 0.  1.
        -11    1    4    4    0    0 -0.27023251863E+01  0.11728184598E+02 -0.14305480613E+01  0.12120203923E+02  0.00000000000E+00 0. -1.
         11    1    4    4    0    0  0.12407931969E+03 -0.15809270919E+03 -0.59792445713E+02  0.20967622383E+03  0.00000000000E+00 0.  1.
</event>
<event>
 8    1  0.6849590E-009  0.1107926E+03  0.7561462E-02  0.1259109E+00
          2   -1    0    0  501    0  0.00000000000E+00  0.00000000000E+00  0.79725911364E+03  0.79725911364E+03  0.00000000000E+00 0. -1.
         -2   -1    0    0    0  501 -0.00000000000E+00 -0.00000000000E+00 -0.15589250423E+02  0.15589250423E+02  0.00000000000E+00 0.  1.
         25    2    1    2    0    0  0.16110931612E+02 -0.19057233668E+02  0.47970764194E+03  0.49637692667E+03  0.12509153174E+03 0.  0.
         23    2    1    2    0    0 -0.16110931612E+02  0.19057233668E+02  0.30196222128E+03  0.31647143740E+03  0.91379687789E+02 0.  0.
          5    1    3    3  502    0 -0.48430237145E+02  0.18567048232E+02  0.17174532134E+03  0.17945515025E+03  0.41800000000E+01 0. -1.
         -5    1    3    3    0  502  0.64541168757E+02 -0.37624281900E+02  0.30796232060E+03  0.31692177641E+03  0.41800000000E+01 0. -1.
        -11    1    4    4    0    0 -0.14344256087E+02 -0.36460144876E+02  0.12500750092E+03  0.13100372183E+03  0.00000000000E+00 0. -1.
         11    1    4    4    0    0 -0.17666755249E+01  0.55517378545E+02  0.17695472035E+03  0.18546771557E+03  0.00000000000E+00 0.  1.
</event>
<event>
 8    1  0.6849590E-009  0.9271866E+02  0.7561462E-02  0.1296398E+00
          2   -1    0    0  501    0  0.00000000000E+00  0.00000000000E+00  0.58079062718E+02  0.58079062718E+02  0.00000000000E+00 0. -1.
         -2   -1    0    0    0  501 -0.00000000000E+00 -0.00000000000E+00 -0.22182866173E+03  0.22182866173E+03  0.00000000000E+00 0.  1.
         25    2    1    2    0    0 -0.25970652347E+02  0.23148355708E+02 -0.94756760539E+02  0.16073663180E+03  0.12508836868E+03 0.  0.
         23    2    1    2    0    0  0.25970652347E+02 -0.23148355708E+02 -0.68992838471E+02  0.11917109264E+03  0.90727153634E+02 0.  0.
          5    1    3    3  502    0  0.65176008983E+01 -0.30824764929E+02  0.14199395618E+02  0.34810063061E+02  0.41800000000E+01 0. -1.
         -5    1    3    3    0  502 -0.32488253246E+02  0.53973120637E+02 -0.10895615616E+03  0.12592656874E+03  0.41800000000E+01 0. -1.
        -11    1    4    4    0    0  0.26617539473E+02  0.28425229726E+02 -0.51796047102E+02  0.64802141847E+02  0.00000000000E+00 0.  1.
         11    1    4    4    0    0 -0.64688712572E+00 -0.51573585434E+02 -0.17196791369E+02  0.54368950798E+02  0.00000000000E+00 0. -1.
</event>
<event>
 8    1  0.6849590E-009  0.1132085E+03  0.7561462E-02  0.1254741E+00
         -4   -1    0    0    0  501 -0.00000000000E+00  0.00000000000E+00  0.87323249339E+02  0.87323249339E+02  0.00000000000E+00 0.  1.
          4   -1    0    0  501    0  0.00000000000E+00 -0.00000000000E+00 -0.19506997376E+03  0.19506997376E+03  0.00000000000E+00 0. -1.
         25    2    1    2    0    0 -0.52881693040E+02  0.17826427419E+02 -0.20576016271E+02  0.13851345704E+03  0.12509336658E+03 0.  0.
         23    2    1    2    0    0  0.52881693040E+02 -0.17826427419E+02 -0.87170708147E+02  0.14387976605E+03  0.99941981908E+02 0.  0.
          5    1    3    3  502    0 -0.22579555075E+02 -0.51850596445E+02  0.79173409636E+01  0.57257989372E+02  0.41800000000E+01 0. -1.
         -5    1    3    3    0  502 -0.30302137965E+02  0.69677023864E+02 -0.28493357235E+02  0.81255467670E+02  0.41800000000E+01 0. -1.
        -11    1    4    4    0    0  0.35257896757E+02 -0.47466953886E+02 -0.91688474459E+02  0.10910090441E+03  0.00000000000E+00 0. -1.
         11    1    4    4    0    0  0.17623796284E+02  0.29640526467E+02  0.45177663119E+01  0.34778861642E+02  0.00000000000E+00 0.  1.
</event>
<event>
 8    1  0.6849590E-009  0.2310956E+03  0.7561462E-02  0.1125871E+00
          3   -1    0    0  501    0  0.00000000000E+00  0.00000000000E+00  0.81771433909E+03  0.81771433909E+03  0.00000000000E+00 0. -1.
         -3   -1    0    0    0  501 -0.00000000000E+00 -0.00000000000E+00 -0.80562300852E+02  0.80562300852E+02  0.00000000000E+00 0.  1.
         25    2    1    2    0    0  0.14537475322E+03  0.14631988489E+03  0.56561397429E+03  0.61490661442E+03  0.12509056300E+03 0.  0.
         23    2    1    2    0    0 -0.14537475322E+03 -0.14631988489E+03  0.17153806395E+03  0.28337002552E+03  0.91268485214E+02 0.  0.
          5    1    3    3  502    0  0.16201352304E+02  0.10372278373E+03  0.23839008997E+03  0.26051527225E+03  0.41800000000E+01 0. -1.
         -5    1    3    3    0  502  0.12917340092E+03  0.42597101166E+02  0.32722388432E+03  0.35439134217E+03  0.41800000000E+01 0. -1.
        -11    1    4    4    0    0 -0.11092897666E+03 -0.55753650775E+02  0.12389190131E+03  0.17539358782E+03  0.00000000000E+00 0. -1.
         11    1    4    4    0    0 -0.34445776561E+02 -0.90566234117E+02  0.47646162633E+02  0.10797643770E+03  0.00000000000E+00 0.  1.
</event>
<event>
 8    1  0.6849590E-009  0.9689797E+02  0.7561462E-02  0.1286958E+00
          1   -1    0    0  501    0  0.00000000000E+00  0.00000000000E+00  0.46180907689E+03  0.46180907689E+03  0.00000000000E+00 0. -1.
         -1   -1    0    0    0  501 -0.00000000000E+00 -0.00000000000E+00 -0.28874830728E+02  0.28874830728E+02  0.00000000000E+00 0.  1.
         25    2    1    2    0    0  0.13999649579E+02 -0.15327882055E+02  0.24329487999E+03  0.27435587408E+03  0.12509121813E+03 0.  0.
         23    2    1    2    0    0 -0.13999649579E+02  0.15327882055E+02  0.18963936616E+03  0.21632803354E+03  0.10199899381E+03 0.  0.
          5    1    3    3  502    0  0.11744265614E+02  0.39232628116E+02  0.20096323489E+03  0.20513610375E+03  0.41800000000E+01 0.  1.
         -5    1    3    3    0  502  0.22553839649E+01 -0.54560510172E+02  0.42331645100E+02  0.69219770325E+02  0.41800000000E+01 0.  1.
        -11    1    4    4    0    0 -0.41266472020E+02 -0.25690029552E+02  0.57420202028E+02  0.75232831478E+02  0.00000000000E+00 0.  1.
         11    1    4    4    0    0  0.27266822441E+02  0.41017911607E+02  0.13221916414E+03  0.14109520206E+03  0.00000000000E+00 0. -1.
</event>
<event>
 8    1  0.6849590E-009  0.9623356E+02  0.7561462E-02  0.1288422E+00
          1   -1    0    0  501    0  0.00000000000E+00  0.00000000000E+00  0.24370421644E+03  0.24370421644E+03  0.00000000000E+00 0. -1.
         -1   -1    0    0    0  501 -0.00000000000E+00 -0.00000000000E+00 -0.68940025889E+02  0.68940025889E+02  0.00000000000E+00 0.  1.
         25    2    1    2    0    0  0.31108384504E+02 -0.36760819268E+02  0.15957908122E+03  0.20840560140E+03  0.12509325367E+03 0.  0.
         23    2    1    2    0    0 -0.31108384504E+02  0.36760819268E+02  0.15185109328E+02  0.10423864092E+03  0.91192199757E+02 0.  0.
          5    1    3    3  502    0  0.21190637780E+02  0.45638364064E+02  0.68739659873E+02  0.85290777013E+02  0.41800000000E+01 0. -1.
         -5    1    3    3    0  502  0.99177467242E+01 -0.82399183332E+02  0.90839421346E+02  0.12311482439E+03  0.41800000000E+01 0. -1.
        -11    1    4    4    0    0  0.92084272228E+00  0.24598941686E+02 -0.35415689103E+02  0.43130347993E+02  0.00000000000E+00 0.  1.
         11    1    4    4    0    0 -0.32029227226E+02  0.12161877583E+02  0.50600798431E+02  0.61108292931E+02  0.00000000000E+00 0. -1.
</event>
<event>
 8    1  0.6849590E-009  0.1715732E+03  0.7561462E-02  0.1176217E+00
         -2   -1    0    0    0  501 -0.00000000000E+00  0.00000000000E+00  0.22158038657E+03  0.22158038657E+03  0.00000000000E+00 0. -1.
          2   -1    0    0  501    0  0.00000000000E+00 -0.00000000000E+00 -0.19684091154E+03  0.19684091154E+03  0.00000000000E+00 0.  1.
         25    2    1    2    0    0  0.15545797689E+03  0.25136702314E+02  0.96151497010E+02  0.22291599946E+03  0.12508955214E+03 0.  0.
         23    2    1    2    0    0 -0.15545797689E+03 -0.25136702314E+02 -0.71412021986E+02  0.19550529864E+03  0.91233812429E+02 0.  0.
          5    1    3    3  502    0  0.16677211798E+03  0.33812365118E+02  0.10994992149E+03  0.20263926817E+03  0.41800000000E+01 0. -1.
         -5    1    3    3    0  502 -0.11314141087E+02 -0.86756628040E+01 -0.13798424479E+02  0.20276731288E+02  0.41800000000E+01 0. -1.
        -11    1    4    4    0    0 -0.12118714313E+03 -0.13777620493E+02 -0.76208135886E+01  0.12220565979E+03  0.00000000000E+00 0. -1.
         11    1    4    4    0    0 -0.34270833769E+02 -0.11359081821E+02 -0.63791208398E+02  0.73299638852E+02  0.00000000000E+00 0.  1.
</event>
<event>
 8    1  0.6849590E-009  0.1124572E+03  0.7561462E-02  0.1256086E+00
          2   -1    0    0  501    0  0.00000000000E+00  0.00000000000E+00  0.31664803840E+03  0.31664803840E+03  0.00000000000E+00 0. -1.
         -2   -1    0    0    0  501 -0.00000000000E+00 -0.00000000000E+00 -0.61384628982E+02  0.61384628982E+02  0.00000000000E+00 0.  1.
         25    2    1    2    0    0 -0.61472400621E+02  0.49375570313E+02  0.18681128364E+03  0.23825072323E+03  0.12509255951E+03 0.  0.
         23    2    1    2    0    0  0.61472400621E+02 -0.49375570313E+02  0.68452125780E+02  0.13978194415E+03  0.92932746670E+02 0.  0.
          5    1    3    3  502    0 -0.69642880074E+02 -0.11591661039E+02  0.15151332100E+03  0.16720722529E+03  0.41800000000E+01 0.  1.
         -5    1    3    3    0  502  0.81704794524E+01  0.60967231352E+02  0.35297962638E+02  0.71043497940E+02  0.41800000000E+01 0.  1.
        -11    1    4    4    0    0  0.62351530703E+02 -0.23481267569E+02  0.38402711008E-01  0.66626457076E+02  0.00000000000E+00 0.  1.
         11    1    4    4    0    0 -0.87913008222E+00 -0.25894302744E+02  0.68413723069E+02  0.73155487070E+02  0.00000000000E+00 0. -1.
</event>
