<event>
 7    1  0.4274778E-006  0.1263929E+03  0.7561462E-02  0.1232908E+00
          1   -1    0    0  501    0  0.00000000000E+00  0.00000000000E+00  0.14407665153E+03  0.14407665153E+03  0.00000000000E+00 0. -1.
         -1   -1    0    0    0  501 -0.00000000000E+00 -0.00000000000E+00 -0.16492902171E+03  0.16492902171E+03  0.00000000000E+00 0.  1.
         23    2    1    2    0    0 -0.89212192766E+02  0.13526092292E+02  0.50976397879E+02  0.13886213283E+03  0.92424716831E+02 0.  0.
          5    1    1    2  502    0  0.88868587819E+02 -0.43575151977E+02 -0.78990278036E+01  0.99379509010E+02  0.41800000000E+01 0. -1.
         -5    1    1    2    0  502  0.34360494670E+00  0.30049059684E+02 -0.63929740256E+02  0.70764031410E+02  0.41800000000E+01 0. -1.
        -11    1    3    3    0    0 -0.36672909606E+02 -0.35846989945E+02  0.41845026067E+02  0.66188482334E+02  0.00000000000E+00 0. -1.
         11    1    3    3    0    0 -0.52539283160E+02  0.49373082238E+02  0.91313718118E+01  0.72673650491E+02  0.00000000000E+00 0.  1.
</event>
<event>
 7    1  0.4274778E-006  0.9010940E+02  0.7561462E-02  0.1302587E+00
         -1   -1    0    0    0  501 -0.00000000000E+00  0.00000000000E+00  0.19647848843E+03  0.19647848843E+03  0.00000000000E+00 0.  1.
          1   -1    0    0  501    0  0.00000000000E+00 -0.00000000000E+00 -0.95559653194E+02  0.95559653194E+02  0.00000000000E+00 0. -1.
         23    2    1    2    0    0 -0.77550139758E+02 -0.25738437733E+02  0.32856426234E+02  0.12785043113E+03  0.92680616325E+02 0.  0.
          5    1    1    2  502    0  0.32104236326E+02  0.36126647190E+02 -0.28937365820E+02  0.56485928937E+02  0.41800000000E+01 0. -1.
         -5    1    1    2    0  502  0.45445903433E+02 -0.10388209457E+02  0.96999774819E+02  0.10770178155E+03  0.41800000000E+01 0. -1.
        -11    1    3    3    0    0 -0.79332150831E+01 -0.11296496057E+02 -0.29953500734E+02  0.32981190563E+02  0.00000000000E+00 0. -1.
         11    1    3    3    0    0 -0.69616924675E+02 -0.14441941676E+02  0.62809926968E+02  0.94869240570E+02  0.00000000000E+00 0.  1.
</event>
<event>
 7    1  0.4274778E-006  0.1355719E+03  0.7561462E-02  0.1219415E+00
          2   -1    0    0  501    0  0.00000000000E+00  0.00000000000E+00  0.36953115133E+03  0.36953115133E+03  0.00000000000E+00 0. -1.
         -2   -1    0    0    0  501 -0.00000000000E+00 -0.00000000000E+00 -0.63475926570E+02  0.63475926570E+02  0.00000000000E+00 0.  1.
         23    2    1    2    0    0 -0.63051193301E+02 -0.87635300713E+02  0.14511347178E+03  0.20234453807E+03  0.90719311545E+02 0.  0.
          5    1    1    2  502    0 -0.36166806263E+02  0.35724326648E+02  0.68456052043E+02  0.85369601446E+02  0.41800000000E+01 0. -1.
         -5    1    1    2    0  502  0.99217999564E+02  0.51910974065E+02  0.92485700934E+02  0.14529293838E+03  0.41800000000E+01 0. -1.
        -11    1    3    3    0    0 -0.24937478063E+02 -0.38989431931E+02  0.13102680946E+03  0.13896070816E+03  0.00000000000E+00 0. -1.
         11    1    3    3    0    0 -0.38113715238E+02 -0.48645868782E+02  0.14086662318E+02  0.63383829910E+02  0.00000000000E+00 0.  1.
</event>
<event>
 6    1  0.4274778E-006  0.1150836E+03  0.7561462E-02  0.1251435E+00
         -4   -1    0    0    0  501 -0.00000000000E+00  0.00000000000E+00  0.89308547025E+02  0.89308547025E+02  0.00000000000E+00 0.  1.
          4   -1    0    0  501    0  0.00000000000E+00 -0.00000000000E+00 -0.19307521975E+03  0.19307521975E+03  0.00000000000E+00 0. -1.
          5    1    1    2  502    0  0.32115547180E+02 -0.15221780399E+02 -0.65218089395E+02  0.74390742391E+02  0.41800000000E+01 0.  1.
         -5    1    1    2    0  502  0.35609076858E+02  0.82539985173E+02  0.14076615991E+02  0.91085009880E+02  0.41800000000E+01 0.  1.
        -11    1    1    2    0    0 -0.45389951085E+02 -0.15498221354E+02 -0.23764158717E+02  0.53527355288E+02  0.00000000000E+00 0.  1.
         11    1    1    2    0    0 -0.22334672953E+02 -0.51819983421E+02 -0.28861040601E+02  0.63380659212E+02  0.00000000000E+00 0. -1.
</event>
<event>
 7    1  0.4274778E-006  0.4954453E+02  0.7561462E-02  0.1447814E+00
         -2   -1    0    0    0  501 -0.00000000000E+00  0.00000000000E+00  0.87135799674E+02  0.87135799674E+02  0.00000000000E+00 0.  1.
          2   -1    0    0  501    0  0.00000000000E+00 -0.00000000000E+00 -0.18514386589E+03  0.18514386589E+03  0.00000000000E+00 0. -1.
         23    2    1    2    0    0 -0.20686478093E+02 -0.21241733505E+02 -0.10576335261E+03  0.14349088683E+03  0.92328794156E+02 0.  0.
          5    1    1    2  502    0  0.22497041201E+02  0.31777433336E+02 -0.53593672486E+02  0.66375268457E+02  0.41800000000E+01 0. -1.
         -5    1    1    2    0  502 -0.18105631083E+01 -0.10535699831E+02  0.61348958877E+02  0.62413510276E+02  0.41800000000E+01 0. -1.
        -11    1    3    3    0    0  0.11323865139E+02 -0.34920128822E+01  0.13951911636E+02  0.18305188170E+02  0.00000000000E+00 0.  1.
         11    1    3    3    0    0 -0.32010343232E+02 -0.17749720623E+02 -0.11971526424E+03  0.12518569866E+03  0.00000000000E+00 0. -1.
</event>
<event>
 7    1  0.4274778E-006  0.1221588E+03  0.7561462E-02  0.1239578E+00
         -1   -1    0    0    0  501 -0.00000000000E+00  0.00000000000E+00  0.10744721250E+03  0.10744721250E+03  0.00000000000E+00 0.  1.
          1   -1    0    0  501    0  0.00000000000E+00 -0.00000000000E+00 -0.21092579987E+03  0.21092579987E+03  0.00000000000E+00 0. -1.
         23    2    1    2    0    0 -0.57940454368E+01  0.10215062044E+03 -0.67729829212E+02  0.15286076074E+03  0.91163381856E+02 0.  0.
          5    1    1    2  502    0 -0.31835088611E+02 -0.25763487626E+02 -0.63654528156E+02  0.75806342191E+02  0.41800000000E+01 0. -1.
         -5    1    1    2    0  502  0.37629134048E+02 -0.76387132812E+02  0.27905769994E+02  0.89705909434E+02  0.41800000000E+01 0. -1.
        -11    1    3    3    0    0  0.26092617470E+02  0.56240292621E+02  0.37598525380E+01  0.62112250737E+02  0.00000000000E+00 0. -1.
         11    1    3    3    0    0 -0.31886662907E+02  0.45910327817E+02 -0.71489681750E+02  0.90748510006E+02  0.00000000000E+00 0.  1.
</event>
<event>
 7    1  0.4274778E-006  0.1778653E+03  0.7561462E-02  0.1169885E+00
         -2   -1    0    0    0  501 -0.00000000000E+00  0.00000000000E+00  0.32897290637E+02  0.32897290637E+02  0.00000000000E+00 0. -1.
          2   -1    0    0  501    0  0.00000000000E+00 -0.00000000000E+00 -0.10818898460E+04  0.10818898460E+04  0.00000000000E+00 0.  1.
         23    2    1    2    0    0  0.53164579386E+02  0.13361535667E+03 -0.59962604417E+03  0.62667116340E+03  0.11173995775E+03 0.  0.
          5    1    1    2  502    0  0.20285456757E+02 -0.99164455045E+02 -0.17752453256E+03  0.20439550132E+03  0.41800000000E+01 0.  1.
         -5    1    1    2    0  502 -0.73450036143E+02 -0.34450901627E+02 -0.27184197860E+03  0.28372047188E+03  0.41800000000E+01 0.  1.
        -11    1    3    3    0    0  0.68491144629E+02  0.42089058761E+02 -0.18372960863E+03  0.20054698913E+03  0.00000000000E+00 0. -1.
         11    1    3    3    0    0 -0.15326565243E+02  0.91526297912E+02 -0.41589643554E+03  0.42612417428E+03  0.00000000000E+00 0.  1.
</event>
<event>
 7    1  0.4274778E-006  0.1472818E+03  0.7561462E-02  0.1203853E+00
          1   -1    0    0  501    0  0.00000000000E+00  0.00000000000E+00  0.16571451191E+03  0.16571451191E+03  0.00000000000E+00 0. -1.
         -1   -1    0    0    0  501 -0.00000000000E+00 -0.00000000000E+00 -0.20353696341E+03  0.20353696341E+03  0.00000000000E+00 0.  1.
         23    2    1    2    0    0 -0.60982112234E+02  0.12847919150E+03  0.19811767600E+02  0.17127317591E+03  0.93360987516E+02 0.  0.
          5    1    1    2  502    0  0.67337810392E+02 -0.92636788655E+02  0.16018149757E+02  0.11571520575E+03  0.41800000000E+01 0.  1.
         -5    1    1    2    0  502 -0.63556981576E+01 -0.35842402843E+02 -0.73652368852E+02  0.82263093658E+02  0.41800000000E+01 0.  1.
        -11    1    3    3    0    0 -0.21499297263E+02  0.27560337844E+02  0.47925640011E+02  0.59318285338E+02  0.00000000000E+00 0. -1.
         11    1    3    3    0    0 -0.39482814971E+02  0.10091885365E+03 -0.28113872412E+02  0.11195489057E+03  0.00000000000E+00 0.  1.
</event>
<event>
 7    1  0.4274778E-006  0.8346514E+02  0.7561462E-02  0.1319496E+00
         -1   -1    0    0    0  501 -0.00000000000E+00  0.00000000000E+00  0.33190236457E+02  0.33190236457E+02  0.00000000000E+00 0.  1.
          1   -1    0    0  501    0  0.00000000000E+00 -0.00000000000E+00 -0.38615169328E+03  0.38615169328E+03  0.00000000000E+00 0. -1.
         23    2    1    2    0    0  0.26103635810E+02  0.14837652302E+02 -0.16803182366E+03  0.19406791181E+03  0.92336909763E+02 0.  0.
          5    1    1    2  502    0 -0.58651066629E+02 -0.73398658357E+01 -0.29409623374E+02  0.66153001400E+02  0.41800000000E+01 0. -1.
         -5    1    1    2    0  502  0.32547430819E+02 -0.74977864666E+01 -0.15552000980E+03  0.15912101653E+03  0.41800000000E+01 0. -1.
        -11    1    3    3    0    0  0.19792846128E+02 -0.26008259756E+02 -0.14086852032E+03  0.14461025672E+03  0.00000000000E+00 0. -1.
         11    1    3    3    0    0  0.63107896814E+01  0.40845912059E+02 -0.27163303340E+02  0.49457655086E+02  0.00000000000E+00 0.  1.
</event>
<event>
 7    1  0.4274778E-006  0.1006105E+03  0.7561462E-02  0.1279017E+00
          1   -1    0    0  501    0  0.00000000000E+00  0.00000000000E+00  0.30043062326E+03  0.30043062326E+03  0.00000000000E+00 0. -1.
         -1   -1    0    0    0  501 -0.00000000000E+00 -0.00000000000E+00 -0.51406752015E+02  0.51406752015E+02  0.00000000000E+00 0.  1.
         23    2    1    2    0    0  0.39448549579E+02  0.40226350243E+02  0.14062494446E+03  0.17698679326E+03  0.91512855202E+02 0.  0.
          5    1    1    2  502    0  0.75536367478E+00  0.21017081184E+02  0.98499264643E+02  0.10080608023E+03  0.41800000000E+01 0. -1.
         -5    1    1    2    0  502 -0.40203913254E+02 -0.61243431427E+02  0.98996621423E+01  0.74044501784E+02  0.41800000000E+01 0. -1.
        -11    1    3    3    0    0  0.65238250983E+02  0.46182970655E+02  0.11573383598E+03  0.14065282422E+03  0.00000000000E+00 0. -1.
         11    1    3    3    0    0 -0.25789701404E+02 -0.59566204121E+01  0.24891108485E+02  0.36333969049E+02  0.00000000000E+00 0.  1.
</event>
<event>
 7    1  0.4274778E-006  0.1501587E+03  0.7561462E-02  0.1200278E+00
         -1   -1    0    0    0  501 -0.00000000000E+00  0.00000000000E+00  0.43338325294E+02  0.43338325294E+02  0.00000000000E+00 0.  1.
          1   -1    0    0  501    0  0.00000000000E+00 -0.00000000000E+00 -0.63960315363E+03  0.63960315363E+03  0.00000000000E+00 0. -1.
         23    2    1    2    0    0  0.38633437541E+02  0.97272954098E+02 -0.42244352811E+03  0.44458320286E+03  0.90780613165E+02 0.  0.
          5    1    1    2  502    0 -0.84025866601E+02 -0.52457714793E+02 -0.10785147685E+03  0.14649768448E+03  0.41800000000E+01 0.  1.
         -5    1    1    2    0  502  0.45392429061E+02 -0.44815239305E+02 -0.65969823369E+02  0.91860591579E+02  0.41800000000E+01 0.  1.
        -11    1    3    3    0    0 -0.23800752876E+02  0.59966845173E+02 -0.16848818158E+03  0.18041830752E+03  0.00000000000E+00 0.  1.
         11    1    3    3    0    0  0.62434190417E+02  0.37306108925E+02 -0.25395534653E+03  0.26416489534E+03  0.00000000000E+00 0. -1.
</event>
<event>
 7    1  0.4274778E-006  0.1548507E+03  0.7561462E-02  0.1194636E+00
          2   -1    0    0  501    0  0.00000000000E+00  0.00000000000E+00  0.41685506565E+03  0.41685506565E+03  0.00000000000E+00 0. -1.
         -2   -1    0    0    0  501 -0.00000000000E+00 -0.00000000000E+00 -0.98132465946E+02  0.98132465946E+02  0.00000000000E+00 0.  1.
         23    2    1    2    0    0 -0.12831163076E+03 -0.22359447994E+01  0.29547463209E+03  0.33427358069E+03  0.89245137103E+02 0.  0.
          5    1    1    2  502    0  0.43166131940E+02  0.60009296798E+02  0.23673732095E+02  0.77732545566E+02  0.41800000000E+01 0.  1.
         -5    1    1    2    0  502  0.85145498820E+02 -0.57773351998E+02 -0.42576448769E+00  0.10298140534E+03  0.41800000000E+01 0.  1.
        -11    1    3    3    0    0 -0.24933708478E+02 -0.14067091147E+02  0.16462287630E+03  0.16709357939E+03  0.00000000000E+00 0. -1.
         11    1    3    3    0    0 -0.10337792228E+03  0.11831146347E+02  0.13085175579E+03  0.16718000129E+03  0.00000000000E+00 0.  1.
</event>
<event>
 7    1  0.4274778E-006  0.1405871E+03  0.7561462E-02  0.1212541E+00
         -1   -1    0    0    0  501 -0.00000000000E+00  0.00000000000E+00  0.36714712111E+03  0.36714712111E+03  0.00000000000E+00 0.  1.
          1   -1    0    0  501    0  0.00000000000E+00 -0.00000000000E+00 -0.86688013223E+02  0.86688013223E+02  0.00000000000E+00 0. -1.
         23    2    1    2    0    0  0.13867697890E+03  0.59224899400E+01  0.97832007193E+02  0.19254148595E+03  0.90745478212E+02 0.  0.
          5    1    1    2  502    0 -0.85283403153E+02 -0.18110775222E+02  0.18682271420E+03  0.20620731794E+03  0.41800000000E+01 0. -1.
         -5    1    1    2    0  502 -0.53393575747E+02  0.12188285282E+02 -0.41956135033E+01  0.55086330444E+02  0.41800000000E+01 0. -1.
        -11    1    3    3    0    0  0.52014003725E+02 -0.99970721924E+00 -0.11074569553E+02  0.53189304271E+02  0.00000000000E+00 0. -1.
         11    1    3    3    0    0  0.86662975174E+02  0.69221971592E+01  0.10890657675E+03  0.13935218168E+03  0.00000000000E+00 0.  1.
</event>
<event>
 7    1  0.5691958E-006  0.3516727E+03  0.7561462E-02  0.1061931E+00
          4   -1    0    0  501    0  0.00000000000E+00  0.00000000000E+00  0.23649684834E+03  0.23649684834E+03  0.00000000000E+00 0.  1.
         -4   -1    0    0    0  501 -0.00000000000E+00 -0.00000000000E+00 -0.53207896773E+03  0.53207896773E+03  0.00000000000E+00 0. -1.
         23    2    1    2    0    0 -0.17304677722E+03 -0.28912777570E+03 -0.12339926998E+03  0.37003522507E+03  0.90325135895E+02 0.  0.
          5    1    1    2  502    0  0.19144630821E+03  0.24725516897E+03 -0.15855654427E+03  0.35063436461E+03  0.41800000000E+01 0.  1.
         -5    1    1    2    0  502 -0.18399530988E+02  0.41872606722E+02 -0.13626305133E+02  0.47906226379E+02  0.41800000000E+01 0.  1.
        -11    1    3    3    0    0 -0.57342277095E+01 -0.63650087410E+02 -0.14561296581E+01  0.63924450004E+02  0.00000000000E+00 0.  1.
         11    1    3    3    0    0 -0.16731254952E+03 -0.22547768829E+03 -0.12194314033E+03  0.30611077507E+03  0.00000000000E+00 0. -1.
</event>
<event>
 7    1  0.4274778E-006  0.8284571E+02  0.7561462E-02  0.1321164E+00
         -1   -1    0    0    0  501 -0.00000000000E+00  0.00000000000E+00  0.34248102472E+03  0.34248102472E+03  0.00000000000E+00 0.  1.
          1   -1    0    0  501    0  0.00000000000E+00 -0.00000000000E+00 -0.47445886717E+02  0.47445886717E+02  0.00000000000E+00 0. -1.
         23    2    1    2    0    0  0.25076624988E+01  0.52206824862E+02  0.66446086341E+02  0.12416282942E+03  0.90936708130E+02 0.  0.
          5    1    1    2  502    0 -0.33110782249E+02 -0.68864167164E+02  0.21486106110E+03  0.22808188309E+03  0.41800000000E+01 0. -1.
         -5    1    1    2    0  502  0.30603119750E+02  0.16657342302E+02  0.13727990567E+02  0.37682198928E+02  0.41800000000E+01 0. -1.
        -11    1    3    3    0    0  0.80616286486E+01  0.37416810059E+02 -0.15066016147E+02  0.41133834905E+02  0.00000000000E+00 0. -1.
         11    1    3    3    0    0 -0.55539661497E+01  0.14790014803E+02  0.81512102487E+02  0.83028994512E+02  0.00000000000E+00 0.  1.
</event>
<event>
 7    1  0.4274778E-006  0.1131480E+03  0.7561462E-02  0.1254849E+00
          2   -1    0    0  501    0  0.00000000000E+00  0.00000000000E+00  0.36438423400E+02  0.36438423400E+02  0.00000000000E+00 0. -1.
         -2   -1    0    0    0  501 -0.00000000000E+00 -0.00000000000E+00 -0.40119472920E+03  0.40119472920E+03  0.00000000000E+00 0.  1.
         23    2    1    2    0    0  0.55433857364E+01  0.52356489785E+02 -0.17484646295E+03  0.20421332752E+03  0.91432304920E+02 0.  0.
          5    1    1    2  502    0  0.49772880858E+02 -0.59793718100E+02 -0.12897731004E+03  0.15068260450E+03  0.41800000000E+01 0.  1.
         -5    1    1    2    0  502 -0.55316266595E+02  0.74372283148E+01 -0.60932532818E+02  0.82737220588E+02  0.41800000000E+01 0.  1.
        -11    1    3    3    0    0 -0.26370554048E+01 -0.19709916861E+02 -0.65220636572E+01  0.20927785316E+02  0.00000000000E+00 0. -1.
         11    1    3    3    0    0  0.81804411412E+01  0.72066406646E+02 -0.16832439929E+03  0.18328554220E+03  0.00000000000E+00 0.  1.
</event>
<event>
 7    1  0.4274778E-006  0.1087006E+03  0.7561462E-02  0.1262995E+00
          2   -1    0    0  501    0  0.00000000000E+00  0.00000000000E+00  0.30718589785E+02  0.30718589785E+02  0.00000000000E+00 0. -1.
         -2   -1    0    0    0  501 -0.00000000000E+00 -0.00000000000E+00 -0.58849158611E+03  0.58849158611E+03  0.00000000000E+00 0.  1.
         23    2    1    2    0    0 -0.34000994972E+02 -0.35300007964E+02 -0.10707044318E+03  0.14890951742E+03  0.91147168660E+02 0.  0.
          5    1    1    2  502    0 -0.21985050682E+02 -0.27864423602E+02 -0.54408884723E+02  0.65096602775E+02  0.41800000000E+01 0. -1.
         -5    1    1    2    0  502  0.55986045654E+02  0.63164431566E+02 -0.39629366842E+03  0.40520405569E+03  0.41800000000E+01 0. -1.
        -11    1    3    3    0    0  0.28159329615E+02 -0.80816788871E+01 -0.58609769761E+02  0.65523785677E+02  0.00000000000E+00 0.  1.
         11    1    3    3    0    0 -0.62160324587E+02 -0.27218329077E+02 -0.48460673423E+02  0.83385731748E+02  0.00000000000E+00 0. -1.
</event>
<event>
 7    1  0.4274778E-006  0.1270974E+03  0.7561462E-02  0.1231827E+00
         -2   -1    0    0    0  501 -0.00000000000E+00  0.00000000000E+00  0.11684683555E+03  0.11684683555E+03  0.00000000000E+00 0.  1.
          2   -1    0    0  501    0  0.00000000000E+00 -0.00000000000E+00 -0.16083310073E+03  0.16083310073E+03  0.00000000000E+00 0. -1.
         23    2    1    2    0    0 -0.32249779552E+02  0.64863045249E+02 -0.61750995127E+02  0.13204109250E+03  0.91511757650E+02 0.  0.
          5    1    1    2  502    0 -0.58074850994E+01 -0.94525014626E+02  0.23919268904E+01  0.94825624108E+02  0.41800000000E+01 0. -1.
         -5    1    1    2    0  502  0.38057264651E+02  0.29661969378E+02  0.15372803056E+02  0.50813219677E+02  0.41800000000E+01 0. -1.
        -11    1    3    3    0    0  0.76799497022E+01  0.70256461741E+02 -0.18765184491E+02  0.73123759428E+02  0.00000000000E+00 0.  1.
         11    1    3    3    0    0 -0.39929729254E+02 -0.53934164930E+01 -0.42985810636E+02  0.58917333067E+02  0.00000000000E+00 0. -1.
</event>
<event>
 7    1  0.4274778E-006  0.1069424E+03  0.7561462E-02  0.1266339E+00
         -2   -1    0    0    0  501 -0.00000000000E+00  0.00000000000E+00  0.20745553815E+03  0.20745553815E+03  0.00000000000E+00 0.  1.
          2   -1    0    0  501    0  0.00000000000E+00 -0.00000000000E+00 -0.58754990249E+02  0.58754990249E+02  0.00000000000E+00 0. -1.
         23    2    1    2    0    0 -0.23973185181E+02  0.56410853886E+00  0.52954054964E+02  0.10686594754E+03  0.89672554220E+02 0.  0.
          5    1    1    2  502    0  0.41306181031E+02 -0.52161765515E+02  0.76468555920E+02  0.10144931157E+03  0.41800000000E+01 0.  1.
         -5    1    1    2    0  502 -0.17332995850E+02  0.51597656976E+02  0.19277937014E+02  0.57895269289E+02  0.41800000000E+01 0.  1.
        -11    1    3    3    0    0  0.18039234925E+02 -0.33824489569E+02  0.25365151542E+02  0.45966302919E+02  0.00000000000E+00 0.  1.
         11    1    3    3    0    0 -0.42012420106E+02  0.34388598108E+02  0.27588903423E+02  0.60899644622E+02  0.00000000000E+00 0. -1.
</event>
<event>
 7    1  0.4274778E-006  0.2697586E+03  0.7561462E-02  0.1101418E+00
         -2   -1    0    0    0  501 -0.00000000000E+00  0.00000000000E+00  0.68083298887E+02  0.68083298887E+02  0.00000000000E+00 0.  1.
          2   -1    0    0  501    0  0.00000000000E+00 -0.00000000000E+00 -0.14889889653E+04  0.14889889653E+04  0.00000000000E+00 0. -1.
         23    2    1    2    0    0 -0.18870808263E+03 -0.17875992472E+03 -0.10596138667E+04  0.10947465623E+04  0.90125678614E+02 0.  0.
          5    1    1    2  502    0  0.13968824387E+03  0.17186340438E+03 -0.34510011591E+03  0.41007486834E+03  0.41800000000E+01 0. -1.
         -5    1    1    2    0  502  0.49019838763E+02  0.68965203383E+01 -0.16191683785E+02  0.52250833571E+02  0.41800000000E+01 0. -1.
        -11    1    3    3    0    0 -0.43151619680E+02 -0.78934288646E+01 -0.99446787517E+02  0.10869237346E+03  0.00000000000E+00 0.  1.
         11    1    3    3    0    0 -0.14555646295E+03 -0.17086649586E+03 -0.96016707923E+03  0.98605418885E+03  0.00000000000E+00 0. -1.
</event>
<event>
 7    1  0.4274778E-006  0.1423611E+03  0.7561462E-02  0.1210187E+00
         -4   -1    0    0    0  501 -0.00000000000E+00  0.00000000000E+00  0.12324177372E+03  0.12324177372E+03  0.00000000000E+00 0.  1.
          4   -1    0    0  501    0  0.00000000000E+00 -0.00000000000E+00 -0.21580389384E+03  0.21580389384E+03  0.00000000000E+00 0. -1.
         23    2    1    2    0    0 -0.56191984911E+02  0.98111092417E+02 -0.88628318003E+02  0.17038229492E+03  0.91606888636E+02 0.  0.
          5    1    1    2  502    0  0.78541251605E+02 -0.11234776244E+03  0.11653739994E+02  0.13763731320E+03  0.41800000000E+01 0. -1.
         -5    1    1    2    0  502 -0.22349266694E+02  0.14236670025E+02 -0.15587542112E+02  0.31026059438E+02  0.41800000000E+01 0. -1.
        -11    1    3    3    0    0 -0.41321023222E+02  0.30066000334E+02  0.75247371468E+01  0.51652812172E+02  0.00000000000E+00 0.  1.
         11    1    3    3    0    0 -0.14870961689E+02  0.68045092084E+02 -0.96153055150E+02  0.11872948274E+03  0.00000000000E+00 0. -1.
</event>
<event>
 7    1  0.4274778E-006  0.1191091E+03  0.7561462E-02  0.1244574E+00
          2   -1    0    0  501    0  0.00000000000E+00  0.00000000000E+00  0.91093506686E+03  0.91093506686E+03  0.00000000000E+00 0. -1.
         -2   -1    0    0    0  501 -0.00000000000E+00 -0.00000000000E+00 -0.17187647011E+02  0.17187647011E+02  0.00000000000E+00 0.  1.
         23    2    1    2    0    0  0.60693241221E+02  0.14932801599E+02  0.40976052049E+03  0.42434036960E+03  0.90853767274E+02 0.  0.
          5    1    1    2  502    0 -0.18072991062E+02 -0.61765683351E+02  0.14201985250E+03  0.15597674041E+03  0.41800000000E+01 0.  1.
         -5    1    1    2    0  502 -0.42620250159E+02  0.46832881752E+02  0.34196704686E+03  0.34780560386E+03  0.41800000000E+01 0.  1.
        -11    1    3    3    0    0  0.57996979088E+02 -0.29969833177E+02  0.24552634557E+03  0.25405713305E+03  0.00000000000E+00 0. -1.
         11    1    3    3    0    0  0.26962621329E+01  0.44902634776E+02  0.16423417492E+03  0.17028323655E+03  0.00000000000E+00 0.  1.
</event>
<event>
 7    1  0.4274778E-006  0.2267061E+03  0.7561462E-02  0.1128980E+00
          2   -1    0    0  501    0  0.00000000000E+00  0.00000000000E+00  0.91377344378E+03  0.91377344378E+03  0.00000000000E+00 0. -1.
         -2   -1    0    0    0  501 -0.00000000000E+00 -0.00000000000E+00 -0.94466886950E+02  0.94466886950E+02  0.00000000000E+00 0.  1.
         23    2    1    2    0    0  0.95303573191E+02 -0.18746914731E+03  0.69901537782E+03  0.73557565466E+03  0.90673000619E+02 0.  0.
          5    1    1    2  502    0  0.89674117260E+01  0.56277256826E+02  0.83272506643E+02  0.10099171685E+03  0.41800000000E+01 0.  1.
         -5    1    1    2    0  502 -0.10427098492E+03  0.13119189048E+03  0.37018672364E+02  0.17167295922E+03  0.41800000000E+01 0.  1.
        -11    1    3    3    0    0  0.11031370497E+03 -0.18168324921E+03  0.65972013863E+03  0.69311512598E+03  0.00000000000E+00 0. -1.
         11    1    3    3    0    0 -0.15010131777E+02 -0.57858981051E+01  0.39295239197E+02  0.42460528687E+02  0.00000000000E+00 0.  1.
</event>
<event>
 7    1  0.4274778E-006  0.1051438E+03  0.7561462E-02  0.1269837E+00
         -1   -1    0    0    0  501 -0.00000000000E+00  0.00000000000E+00  0.14108238068E+03  0.14108238068E+03  0.00000000000E+00 0.  1.
          1   -1    0    0  501    0  0.00000000000E+00 -0.00000000000E+00 -0.97436196754E+02  0.97436196754E+02  0.00000000000E+00 0. -1.
         23    2    1    2    0    0 -0.28349291663E+02  0.26933031008E+02 -0.66909261235E+01  0.98117391392E+02  0.89739531446E+02 0.  0.
          5    1    1    2  502    0  0.55253506786E+02 -0.60792884199E+02  0.51298204412E+02  0.96941750332E+02  0.41800000000E+01 0.  1.
         -5    1    1    2    0  502 -0.26904215123E+02  0.33859853191E+02 -0.96109436696E+00  0.43459435707E+02  0.41800000000E+01 0.  1.
        -11    1    3    3    0    0 -0.33753614185E+02 -0.18728715870E+02  0.21497833059E+02  0.44184025336E+02  0.00000000000E+00 0.  1.
         11    1    3    3    0    0  0.54043225220E+01  0.45661746878E+02 -0.28188759182E+02  0.53933366056E+02  0.00000000000E+00 0. -1.
</event>
<event>
 7    1  0.4274778E-006  0.8529315E+02  0.7561462E-02  0.1314668E+00
         -2   -1    0    0    0  501 -0.00000000000E+00  0.00000000000E+00  0.41170138036E+02  0.41170138036E+02  0.00000000000E+00 0.  1.
          2   -1    0    0  501    0  0.00000000000E+00 -0.00000000000E+00 -0.34331924730E+03  0.34331924730E+03  0.00000000000E+00 0. -1.
         23    2    1    2    0    0 -0.17787563397E+02  0.26740686949E+01 -0.20427806624E+03  0.22464005423E+03  0.91706475016E+02 0.  0.
          5    1    1    2  502    0 -0.27506767104E+02  0.20179366085E+02 -0.10309844818E+03  0.10867654517E+03  0.41800000000E+01 0. -1.
         -5    1    1    2    0  502  0.45294330500E+02 -0.22853434780E+02  0.52274051584E+01  0.51172785945E+02  0.41800000000E+01 0. -1.
        -11    1    3    3    0    0  0.98657894695E+01  0.38676052952E+02 -0.50893572132E+02  0.64678640664E+02  0.00000000000E+00 0.  1.
         11    1    3    3    0    0 -0.27653352866E+02 -0.36001984257E+02 -0.15338449411E+03  0.15996141356E+03  0.00000000000E+00 0. -1.
</event>
<event>
 7    1  0.4274778E-006  0.2087456E+03  0.7561462E-02  0.1142563E+00
         -2   -1    0    0    0  501 -0.00000000000E+00  0.00000000000E+00  0.21222672165E+03  0.21222672165E+03  0.00000000000E+00 0.  1.
          2   -1    0    0  501    0  0.00000000000E+00 -0.00000000000E+00 -0.44736987935E+03  0.44736987935E+03  0.00000000000E+00 0. -1.
         23    2    1    2    0    0  0.82132043576E+01  0.76867091503E+02 -0.29675420682E+03  0.32009906339E+03  0.91784228674E+02 0.  0.
          5    1    1    2  502    0  0.66263956874E+01  0.12808167464E+03  0.25043618450E+02  0.13074203503E+03  0.41800000000E+01 0. -1.
         -5    1    1    2    0  502 -0.14839600045E+02 -0.20494876614E+03  0.36567430672E+02  0.20875550258E+03  0.41800000000E+01 0.  1.
        -11    1    3    3    0    0  0.17994631501E+02  0.68328572238E+02 -0.29872376599E+03  0.30696659250E+03  0.00000000000E+00 0. -1.
         11    1    3    3    0    0 -0.97814271437E+01  0.85385192652E+01  0.19695591668E+01  0.13132470884E+02  0.00000000000E+00 0.  1.
</event>
<event>
 7    1  0.4274778E-006  0.1319120E+03  0.7561462E-02  0.1224646E+00
          1   -1    0    0  501    0  0.00000000000E+00  0.00000000000E+00  0.24840932742E+03  0.24840932742E+03  0.00000000000E+00 0. -1.
         -1   -1    0    0    0  501 -0.00000000000E+00 -0.00000000000E+00 -0.74076607803E+02  0.74076607803E+02  0.00000000000E+00 0.  1.
         23    2    1    2    0    0  0.50099432028E+02 -0.59081948974E+02  0.10511523265E+03  0.15988385795E+03  0.92265953167E+02 0.  0.
          5    1    1    2  502    0 -0.50458365576E+02  0.96228050523E+02  0.59619037179E+02  0.12400720285E+03  0.41800000000E+01 0.  1.
         -5    1    1    2    0  502  0.35893354819E+00 -0.37146101549E+02  0.95984497886E+01  0.38594874426E+02  0.41800000000E+01 0.  1.
        -11    1    3    3    0    0  0.14639670657E+02 -0.76718595231E+02  0.52828796659E+02  0.94291805410E+02  0.00000000000E+00 0.  1.
         11    1    3    3    0    0  0.35459761371E+02  0.17636646257E+02  0.52286435990E+02  0.65592052539E+02  0.00000000000E+00 0. -1.
</event>
<event>
 7    1  0.4274778E-006  0.1892892E+03  0.7561462E-02  0.1159104E+00
          1   -1    0    0  501    0  0.00000000000E+00  0.00000000000E+00  0.36845180353E+03  0.36845180353E+03  0.00000000000E+00 0. -1.
         -1   -1    0    0    0  501 -0.00000000000E+00 -0.00000000000E+00 -0.10858851981E+03  0.10858851981E+03  0.00000000000E+00 0.  1.
         23    2    1    2    0    0  0.12481839840E+03 -0.10226445164E+03  0.15547856746E+03  0.24773119153E+03  0.10563857093E+03 0.  0.
          5    1    1    2  502    0 -0.14315257002E+03  0.55980320837E+02  0.72129117925E+02  0.16984268214E+03  0.41800000000E+01 0. -1.
         -5    1    1    2    0  502  0.18334171623E+02  0.46284130802E+02  0.32255598335E+02  0.59466449677E+02  0.41800000000E+01 0. -1.
        -11    1    3    3    0    0  0.10382200253E+03 -0.11111304852E+03  0.16376930015E+03  0.22348490202E+03  0.00000000000E+00 0. -1.
         11    1    3    3    0    0  0.20996395866E+02  0.88485968826E+01 -0.82907326888E+01  0.24246289504E+02  0.00000000000E+00 0.  1.
</event>
<event>
 7    1  0.4274778E-006  0.1014037E+03  0.7561462E-02  0.1277371E+00
         -1   -1    0    0    0  501 -0.00000000000E+00  0.00000000000E+00  0.45952092234E+03  0.45952092234E+03  0.00000000000E+00 0.  1.
          1   -1    0    0  501    0  0.00000000000E+00 -0.00000000000E+00 -0.25982415778E+02  0.25982415778E+02  0.00000000000E+00 0. -1.
         23    2    1    2    0    0  0.99240941641E+01 -0.12984719523E+02  0.16497412920E+03  0.18878791198E+03  0.90317893125E+02 0.  0.
          5    1    1    2  502    0 -0.35983732020E+02 -0.38689913658E+02  0.19995060320E+03  0.20685612031E+03  0.41800000000E+01 0. -1.
         -5    1    1    2    0  502  0.26059637856E+02  0.51674633181E+02  0.68613774168E+02  0.89859305835E+02  0.41800000000E+01 0. -1.
        -11    1    3    3    0    0  0.50323676320E+02 -0.96820892701E+01  0.91279497411E+02  0.10468123948E+03  0.00000000000E+00 0.  1.
         11    1    3    3    0    0 -0.40399582156E+02 -0.33026302533E+01  0.73694631785E+02  0.84106672499E+02  0.00000000000E+00 0. -1.
</event>
<event>
 7    1  0.4274778E-006  0.2472753E+03  0.7561462E-02  0.1115039E+00
          1   -1    0    0  501    0  0.00000000000E+00  0.00000000000E+00  0.21754407497E+03  0.21754407497E+03  0.00000000000E+00 0. -1.
         -1   -1    0    0    0  501 -0.00000000000E+00 -0.00000000000E+00 -0.34237843538E+03  0.34237843538E+03  0.00000000000E+00 0.  1.
         23    2    1    2    0    0  0.60988148074E+02  0.18027595882E+02  0.51606411079E+01  0.11364304313E+03  0.94040207449E+02 0.  0.
          5    1    1    2  502    0 -0.19629728074E+03 -0.13410947092E+03 -0.24370787670E+02  0.23901753138E+03  0.41800000000E+01 0. -1.
         -5    1    1    2    0  502  0.13530913266E+03  0.11608187504E+03 -0.10562421385E+03  0.20726193584E+03  0.41800000000E+01 0.  1.
        -11    1    3    3    0    0  0.55659380513E+02 -0.39850398063E+01 -0.36180358912E+02  0.66504628052E+02  0.00000000000E+00 0.  1.
         11    1    3    3    0    0  0.53287675605E+01  0.22012635688E+02  0.41341000020E+02  0.47138415081E+02  0.00000000000E+00 0. -1.
</event>
<event>
 7    1  0.4274778E-006  0.8314309E+02  0.7561462E-02  0.1320361E+00
         -4   -1    0    0    0  501 -0.00000000000E+00  0.00000000000E+00  0.18340936168E+03  0.18340936168E+03  0.00000000000E+00 0.  1.
          4   -1    0    0  501    0  0.00000000000E+00 -0.00000000000E+00 -0.13557773987E+03  0.13557773987E+03  0.00000000000E+00 0. -1.
         23    2    1    2    0    0 -0.33833573717E+02 -0.67959142263E+02 -0.64127302669E+02  0.13474459477E+03  0.90998017253E+02 0.  0.
          5    1    1    2  502    0  0.37924195422E+02  0.52974707566E+02  0.13855243932E+03  0.15316270787E+03  0.41800000000E+01 0. -1.
         -5    1    1    2    0  502 -0.40906217052E+01  0.14984434697E+02 -0.26593514834E+02  0.31079798911E+02  0.41800000000E+01 0. -1.
        -11    1    3    3    0    0 -0.29903404567E+02 -0.18208480545E+02 -0.75797442375E+02  0.83492602302E+02  0.00000000000E+00 0. -1.
         11    1    3    3    0    0 -0.39301691498E+01 -0.49750661718E+02  0.11670139707E+02  0.51251992466E+02  0.00000000000E+00 0.  1.
</event>
<event>
 7    1  0.4274778E-006  0.8383469E+02  0.7561462E-02  0.1318508E+00
          1   -1    0    0  501    0  0.00000000000E+00  0.00000000000E+00  0.66262606724E+02  0.66262606724E+02  0.00000000000E+00 0. -1.
         -1   -1    0    0    0  501 -0.00000000000E+00 -0.00000000000E+00 -0.20184359546E+03  0.20184359546E+03  0.00000000000E+00 0.  1.
         23    2    1    2    0    0  0.30070105308E+02 -0.54380698520E+00 -0.28094187968E+02  0.10045987666E+03  0.91642765462E+02 0.  0.
          5    1    1    2  502    0  0.23094454205E+02 -0.49547416390E+02 -0.37700345100E+02  0.66536371306E+02  0.41800000000E+01 0. -1.
         -5    1    1    2    0  502 -0.53164559512E+02  0.50091223375E+02 -0.69786455665E+02  0.10110995422E+03  0.41800000000E+01 0. -1.
        -11    1    3    3    0    0  0.27657036320E+02 -0.10388418882E+02 -0.60055930811E+02  0.66929408562E+02  0.00000000000E+00 0.  1.
         11    1    3    3    0    0  0.24130689874E+01  0.98446118964E+01  0.31961742842E+02  0.33530468098E+02  0.00000000000E+00 0. -1.
</event>
<event>
 7    1  0.4274778E-006  0.1020709E+03  0.7561462E-02  0.1276001E+00
          4   -1    0    0  501    0  0.00000000000E+00  0.00000000000E+00  0.42684722575E+02  0.42684722575E+02  0.00000000000E+00 0. -1.
         -4   -1    0    0    0  501 -0.00000000000E+00 -0.00000000000E+00 -0.28293490139E+03  0.28293490139E+03  0.00000000000E+00 0.  1.
         23    2    1    2    0    0 -0.45827598153E+01 -0.51360414906E+01 -0.72323358691E+02  0.11611102822E+03  0.90574400651E+02 0.  0.
          5    1    1    2  502    0 -0.58110688009E+02  0.16369956180E+02 -0.69013965464E+02  0.91789037229E+02  0.41800000000E+01 0. -1.
         -5    1    1    2    0  502  0.62693447825E+02 -0.11233914690E+02 -0.98912854664E+02  0.11771955852E+03  0.41800000000E+01 0. -1.
        -11    1    3    3    0    0 -0.41322831888E+02 -0.10576970117E+02 -0.65778386063E+02  0.78397989803E+02  0.00000000000E+00 0.  1.
         11    1    3    3    0    0  0.36740072073E+02  0.54409286265E+01 -0.65449726275E+01  0.37713038421E+02  0.00000000000E+00 0. -1.
</event>
<event>
 7    1  0.4274778E-006  0.2434386E+03  0.7561462E-02  0.1117523E+00
          3   -1    0    0  501    0  0.00000000000E+00  0.00000000000E+00  0.98269733864E+02  0.98269733864E+02  0.00000000000E+00 0. -1.
         -3   -1    0    0    0  501 -0.00000000000E+00 -0.00000000000E+00 -0.71929417895E+03  0.71929417895E+03  0.00000000000E+00 0.  1.
         23    2    1    2    0    0 -0.14465239404E+03  0.18639286659E+03 -0.21683531801E+03  0.33312501284E+03  0.91039020365E+02 0.  0.
          5    1    1    2  502    0  0.12926655973E+03 -0.12022087410E+03 -0.36605374529E+03  0.40641815766E+03  0.41800000000E+01 0. -1.
         -5    1    1    2    0  502  0.15385834313E+02 -0.66171992483E+02 -0.38135381784E+02  0.78020742309E+02  0.41800000000E+01 0. -1.
        -11    1    3    3    0    0 -0.54872637713E+02  0.11537627139E+03 -0.16165949378E+03  0.20604970832E+03  0.00000000000E+00 0.  1.
         11    1    3    3    0    0 -0.89779756328E+02  0.71016595195E+02 -0.55175824221E+02  0.12707530452E+03  0.00000000000E+00 0. -1.
</event>
<event>
 7    1  0.4274778E-006  0.1943155E+03  0.7561462E-02  0.1154626E+00
         -1   -1    0    0    0  501 -0.00000000000E+00  0.00000000000E+00  0.22258502810E+03  0.22258502810E+03  0.00000000000E+00 0.  1.
          1   -1    0    0  501    0  0.00000000000E+00 -0.00000000000E+00 -0.18863410215E+03  0.18863410215E+03  0.00000000000E+00 0. -1.
         23    2    1    2    0    0  0.14880530056E+02  0.17080979360E+03  0.22399708665E+02  0.19867220940E+03  0.97833961767E+02 0.  0.
          5    1    1    2  502    0 -0.61723190261E+02 -0.89583051918E+02  0.37535635298E+02  0.11515759516E+03  0.41800000000E+01 0.  1.
         -5    1    1    2    0  502  0.46842660205E+02 -0.81226741679E+02 -0.25984418005E+02  0.97389325688E+02  0.41800000000E+01 0.  1.
        -11    1    3    3    0    0  0.40261054829E+02  0.60220698554E+02 -0.23674716086E+02  0.76210086288E+02  0.00000000000E+00 0. -1.
         11    1    3    3    0    0 -0.25380524773E+02  0.11058909504E+03  0.46074424752E+02  0.12246212311E+03  0.00000000000E+00 0.  1.
</event>
<event>
 7    1  0.4274778E-006  0.8094788E+02  0.7561462E-02  0.1326383E+00
         -2   -1    0    0    0  501 -0.00000000000E+00  0.00000000000E+00  0.22289904475E+02  0.22289904475E+02  0.00000000000E+00 0. -1.
          2   -1    0    0  501    0  0.00000000000E+00 -0.00000000000E+00 -0.52517795657E+03  0.52517795657E+03  0.00000000000E+00 0.  1.
         23    2    1    2    0    0  0.26666603356E+01 -0.11156185989E+02 -0.22992573691E+03  0.24698936381E+03  0.89478096660E+02 0.  0.
          5    1    1    2  502    0  0.34258925873E+02  0.29942374648E+01 -0.25682435676E+03  0.25915026932E+03  0.41800000000E+01 0.  1.
         -5    1    1    2    0  502 -0.36925586208E+02  0.81619485240E+01 -0.16137958426E+02  0.41328227916E+02  0.41800000000E+01 0.  1.
        -11    1    3    3    0    0 -0.38205196234E+02 -0.25451077739E+02 -0.99878700516E+02  0.10992337874E+03  0.00000000000E+00 0.  1.
         11    1    3    3    0    0  0.40871856570E+02  0.14294891750E+02 -0.13004703639E+03  0.13706598507E+03  0.00000000000E+00 0. -1.
</event>
<event>
 7    1  0.4274778E-006  0.8260894E+02  0.7561462E-02  0.1321807E+00
         -1   -1    0    0    0  501 -0.00000000000E+00  0.00000000000E+00  0.60538483988E+02  0.60538483988E+02  0.00000000000E+00 0.  1.
          1   -1    0    0  501    0  0.00000000000E+00 -0.00000000000E+00 -0.33310432105E+03  0.33310432105E+03  0.00000000000E+00 0. -1.
         23    2    1    2    0    0  0.70477010360E+02  0.24312091600E+02 -0.20109008970E+03  0.23142647603E+03  0.86964951812E+02 0.  0.
          5    1    1    2  502    0 -0.88744295354E+00 -0.40493681194E+01 -0.87640931870E+02  0.87838432797E+02  0.41800000000E+01 0.  1.
         -5    1    1    2    0  502 -0.69589567406E+02 -0.20262723481E+02  0.16165184510E+02  0.74377896212E+02  0.41800000000E+01 0.  1.
        -11    1    3    3    0    0  0.21925450396E+02  0.30737405396E+02 -0.17865564630E+02  0.41769508796E+02  0.00000000000E+00 0.  1.
         11    1    3    3    0    0  0.48551559964E+02 -0.64253137960E+01 -0.18322452507E+03  0.18965696723E+03  0.00000000000E+00 0. -1.
</event>
<event>
 7    1  0.4274778E-006  0.1098903E+03  0.7561462E-02  0.1260773E+00
          1   -1    0    0  501    0  0.00000000000E+00  0.00000000000E+00  0.53814571748E+02  0.53814571748E+02  0.00000000000E+00 0. -1.
         -1   -1    0    0    0  501 -0.00000000000E+00 -0.00000000000E+00 -0.23380550041E+03  0.23380550041E+03  0.00000000000E+00 0.  1.
         23    2    1    2    0    0  0.24384267650E+02 -0.16709657453E+02 -0.57999987712E+02  0.11367410649E+03  0.93187975353E+02 0.  0.
          5    1    1    2  502    0 -0.65886450867E+02 -0.17854574059E+02 -0.54801980252E+02  0.87638688159E+02  0.41800000000E+01 0. -1.
         -5    1    1    2    0  502  0.41502183217E+02  0.34564231512E+02 -0.67188960697E+02  0.86307277511E+02  0.41800000000E+01 0.  1.
        -11    1    3    3    0    0 -0.30095925996E+02  0.15578338308E+02 -0.26035274564E+02  0.42735054786E+02  0.00000000000E+00 0. -1.
         11    1    3    3    0    0  0.54480193645E+02 -0.32287995760E+02 -0.31964713149E+02  0.70939051703E+02  0.00000000000E+00 0.  1.
</event>
<event>
 7    1  0.4274778E-006  0.1303403E+03  0.7561462E-02  0.1226952E+00
         -2   -1    0    0    0  501 -0.00000000000E+00  0.00000000000E+00  0.26755375402E+02  0.26755375402E+02  0.00000000000E+00 0.  1.
          2   -1    0    0  501    0  0.00000000000E+00 -0.00000000000E+00 -0.70886110828E+03  0.70886110828E+03  0.00000000000E+00 0. -1.
         23    2    1    2    0    0  0.83031844474E+02  0.14978346724E+02 -0.33723861433E+03  0.35918648177E+03  0.90368178178E+02 0.  0.
          5    1    1    2  502    0  0.26584595172E+02 -0.81382175484E+01 -0.23030413603E+02  0.36343412554E+02  0.41800000000E+01 0. -1.
         -5    1    1    2    0  502 -0.10961643965E+03 -0.68401291760E+01 -0.32183670495E+03  0.34008658935E+03  0.41800000000E+01 0. -1.
        -11    1    3    3    0    0  0.86544799159E+02 -0.18910039264E+02 -0.26260101373E+03  0.27714054964E+03  0.00000000000E+00 0.  1.
         11    1    3    3    0    0 -0.35129546847E+01  0.33888385988E+02 -0.74637600602E+02  0.82045932130E+02  0.00000000000E+00 0. -1.
</event>
<event>
 7    1  0.4274778E-006  0.1488492E+03  0.7561462E-02  0.1201894E+00
          2   -1    0    0  501    0  0.00000000000E+00  0.00000000000E+00  0.23706957844E+03  0.23706957844E+03  0.00000000000E+00 0. -1.
         -2   -1    0    0    0  501 -0.00000000000E+00 -0.00000000000E+00 -0.97754500323E+02  0.97754500323E+02  0.00000000000E+00 0.  1.
         23    2    1    2    0    0 -0.70605058743E+02  0.78819970407E+02  0.54940515397E+02  0.15052991286E+03  0.91886519027E+02 0.  0.
          5    1    1    2  502    0 -0.19740991655E+01 -0.84532638227E+02  0.70261911273E+02  0.11001760118E+03  0.41800000000E+01 0. -1.
         -5    1    1    2    0  502  0.72579157908E+02  0.57126678200E+01  0.14112651447E+02  0.74276564724E+02  0.41800000000E+01 0. -1.
        -11    1    3    3    0    0 -0.58077706530E+02 -0.22135261677E+01  0.21266106397E+02  0.61888342805E+02  0.00000000000E+00 0.  1.
         11    1    3    3    0    0 -0.12527352213E+02  0.81033496575E+02  0.33674409000E+02  0.88641570056E+02  0.00000000000E+00 0. -1.
</event>
<event>
 7    1  0.4274778E-006  0.9928315E+02  0.7561462E-02  0.1281811E+00
         -2   -1    0    0    0  501 -0.00000000000E+00  0.00000000000E+00  0.19024783064E+02  0.19024783064E+02  0.00000000000E+00 0.  1.
          2   -1    0    0  501    0  0.00000000000E+00 -0.00000000000E+00 -0.68808000851E+03  0.68808000851E+03  0.00000000000E+00 0. -1.
         23    2    1    2    0    0 -0.19849182150E+01 -0.29671233130E+02 -0.23748643488E+03  0.25678962304E+03  0.93041828091E+02 0.  0.
          5    1    1    2  502    0  0.58015711641E+02  0.36630498342E+02 -0.28548827908E+03  0.29364714557E+03  0.41800000000E+01 0.  1.
         -5    1    1    2    0  502 -0.56030793426E+02 -0.69592652118E+01 -0.14608051149E+03  0.15666802297E+03  0.41800000000E+01 0.  1.
        -11    1    3    3    0    0 -0.34456031749E+02 -0.15549856363E+02 -0.20589481183E+03  0.20933630764E+03  0.00000000000E+00 0. -1.
         11    1    3    3    0    0  0.32471113534E+02 -0.14121376767E+02 -0.31591623048E+02  0.47453315403E+02  0.00000000000E+00 0.  1.
</event>
<event>
 7    1  0.4274778E-006  0.1380259E+03  0.7561462E-02  0.1216010E+00
          1   -1    0    0  501    0  0.00000000000E+00  0.00000000000E+00  0.18683215899E+03  0.18683215899E+03  0.00000000000E+00 0. -1.
         -1   -1    0    0    0  501 -0.00000000000E+00 -0.00000000000E+00 -0.16118058662E+03  0.16118058662E+03  0.00000000000E+00 0.  1.
         23    2    1    2    0    0 -0.10613454352E+03  0.80621655260E+02  0.74660096398E+01  0.16432091291E+03  0.95818727258E+02 0.  0.
          5    1    1    2  502    0  0.98589004668E+02 -0.57854038566E+02  0.64535699148E+02  0.13133624970E+03  0.41800000000E+01 0. -1.
         -5    1    1    2    0  502  0.75455388537E+01 -0.22767616694E+02 -0.46350136414E+02  0.52355583008E+02  0.41800000000E+01 0. -1.
        -11    1    3    3    0    0 -0.34010933488E+02  0.79418933959E+01 -0.38589474759E+02  0.52047716853E+02  0.00000000000E+00 0.  1.
         11    1    3    3    0    0 -0.72123610034E+02  0.72679761865E+02  0.46055484399E+02  0.11227319605E+03  0.00000000000E+00 0. -1.
</event>
<event>
 7    1  0.4274778E-006  0.1607011E+03  0.7561462E-02  0.1187908E+00
         -2   -1    0    0    0  501 -0.00000000000E+00  0.00000000000E+00  0.41310671557E+02  0.41310671557E+02  0.00000000000E+00 0.  1.
          2   -1    0    0  501    0  0.00000000000E+00 -0.00000000000E+00 -0.69376611986E+03  0.69376611986E+03  0.00000000000E+00 0. -1.
         23    2    1    2    0    0  0.12780669466E+03  0.89057314009E+01 -0.35015927593E+03  0.38372999255E+03  0.90682552978E+02 0.  0.
          5    1    1    2  502    0 -0.75061868963E+02 -0.56151115236E+02 -0.23714134323E+03  0.25503082360E+03  0.41800000000E+01 0.  1.
         -5    1    1    2    0  502 -0.52744825694E+02  0.47245383836E+02 -0.65154829140E+02  0.96315975266E+02  0.41800000000E+01 0.  1.
        -11    1    3    3    0    0  0.15635882167E+02 -0.33298685225E+02 -0.93136759180E+02  0.10013859975E+03  0.00000000000E+00 0.  1.
         11    1    3    3    0    0  0.11217081249E+03  0.42204416626E+02 -0.25702251675E+03  0.28359139281E+03  0.00000000000E+00 0. -1.
</event>
<event>
 7    1  0.4274778E-006  0.9621341E+02  0.7561462E-02  0.1288466E+00
          2   -1    0    0  501    0  0.00000000000E+00  0.00000000000E+00  0.17898414344E+03  0.17898414344E+03  0.00000000000E+00 0. -1.
         -2   -1    0    0    0  501 -0.00000000000E+00 -0.00000000000E+00 -0.91769384852E+02  0.91769384852E+02  0.00000000000E+00 0.  1.
         23    2    1    2    0    0 -0.21944966189E+02 -0.52404242862E+02  0.75565155174E+02  0.13287303400E+03  0.93366826430E+02 0.  0.
          5    1    1    2  502    0  0.51443464086E+02  0.20132204071E+02 -0.41288782630E+02  0.69093933228E+02  0.41800000000E+01 0.  1.
         -5    1    1    2    0  502 -0.29498497896E+02  0.32272038791E+02  0.52938386047E+02  0.68786561065E+02  0.41800000000E+01 0.  1.
        -11    1    3    3    0    0  0.16702067228E+02 -0.51828625588E+02  0.80058639163E+01  0.55038707626E+02  0.00000000000E+00 0.  1.
         11    1    3    3    0    0 -0.38647033418E+02 -0.57561727394E+00  0.67559291258E+02  0.77834326377E+02  0.00000000000E+00 0. -1.
</event>
<event>
 7    1  0.4274778E-006  0.1522287E+03  0.7561462E-02  0.1197761E+00
         -1   -1    0    0    0  501 -0.00000000000E+00  0.00000000000E+00  0.47702509902E+02  0.47702509902E+02  0.00000000000E+00 0.  1.
          1   -1    0    0  501    0  0.00000000000E+00 -0.00000000000E+00 -0.50160638483E+03  0.50160638483E+03  0.00000000000E+00 0. -1.
         23    2    1    2    0    0 -0.23863571816E+02  0.10672261422E+03 -0.16942215818E+03  0.21985977406E+03  0.87608596173E+02 0.  0.
          5    1    1    2  502    0 -0.46239161512E+02 -0.13786276246E+02 -0.66120619370E+02  0.81960540359E+02  0.41800000000E+01 0. -1.
         -5    1    1    2    0  502  0.70102733328E+02 -0.92936337973E+02 -0.21836109738E+03  0.24748858031E+03  0.41800000000E+01 0. -1.
        -11    1    3    3    0    0 -0.35078363822E+02  0.11831799271E+03 -0.14285022941E+03  0.18877454026E+03  0.00000000000E+00 0.  1.
         11    1    3    3    0    0  0.11214792006E+02 -0.11595378492E+02 -0.26571928766E+02  0.31085233801E+02  0.00000000000E+00 0. -1.
</event>
<event>
 7    1  0.4274778E-006  0.1080590E+03  0.7561462E-02  0.1264207E+00
          2   -1    0    0  501    0  0.00000000000E+00  0.00000000000E+00  0.78216369243E+02  0.78216369243E+02  0.00000000000E+00 0. -1.
         -2   -1    0    0    0  501 -0.00000000000E+00 -0.00000000000E+00 -0.27081140183E+03  0.27081140183E+03  0.00000000000E+00 0.  1.
         23    2    1    2    0    0  0.88109408662E+02  0.63337955292E+01 -0.52905604802E+02  0.13568583755E+03  0.88364351590E+02 0.  0.
          5    1    1    2  502    0 -0.20643554191E+02  0.29355562224E+02  0.16295522194E+02  0.39634855957E+02  0.41800000000E+01 0. -1.
         -5    1    1    2    0  502 -0.67465854470E+02 -0.35689357753E+02 -0.15598494998E+03  0.17370707757E+03  0.41800000000E+01 0.  1.
        -11    1    3    3    0    0  0.80922517160E+02 -0.13872604400E+02 -0.39031354063E+01  0.82195726180E+02  0.00000000000E+00 0.  1.
         11    1    3    3    0    0  0.71868915020E+01  0.20206399930E+02 -0.49002469396E+02  0.53490111371E+02  0.00000000000E+00 0. -1.
</event>
<event>
 7    1  0.4274778E-006  0.1257850E+03  0.7561462E-02  0.1233848E+00
         -1   -1    0    0    0  501 -0.00000000000E+00  0.00000000000E+00  0.24681657783E+02  0.24681657783E+02  0.00000000000E+00 0.  1.
          1   -1    0    0  501    0  0.00000000000E+00 -0.00000000000E+00 -0.78377189193E+03  0.78377189193E+03  0.00000000000E+00 0. -1.
         23    2    1    2    0    0  0.52174223834E+02 -0.60843308761E+02 -0.43820182290E+03  0.45483348525E+03  0.91807428119E+02 0.  0.
          5    1    1    2  502    0  0.31534153930E+02  0.36507598482E+02 -0.52604417030E+02  0.71497585288E+02  0.41800000000E+01 0.  1.
         -5    1    1    2    0  502 -0.83708377764E+02  0.24335710279E+02 -0.26828399422E+03  0.28212247917E+03  0.41800000000E+01 0.  1.
        -11    1    3    3    0    0 -0.19196795925E+00  0.19756008443E+02 -0.33659180731E+02  0.39029183553E+02  0.00000000000E+00 0.  1.
         11    1    3    3    0    0  0.52366191793E+02 -0.80599317204E+02 -0.40454264217E+03  0.41580430169E+03  0.00000000000E+00 0. -1.
</event>
<event>
 7    1  0.4274778E-006  0.9220377E+02  0.7561462E-02  0.1297601E+00
         -1   -1    0    0    0  501 -0.00000000000E+00  0.00000000000E+00  0.15612278744E+03  0.15612278744E+03  0.00000000000E+00 0.  1.
          1   -1    0    0  501    0  0.00000000000E+00 -0.00000000000E+00 -0.11402399699E+03  0.11402399699E+03  0.00000000000E+00 0. -1.
         23    2    1    2    0    0  0.49310696627E+02 -0.60333424483E+02  0.13978345511E+02  0.12011298221E+03  0.90333091610E+02 0.  0.
          5    1    1    2  502    0 -0.16567806384E+02  0.15028807614E+01 -0.46427769861E+02  0.49495061099E+02  0.41800000000E+01 0.  1.
         -5    1    1    2    0  502 -0.32742890243E+02  0.58830543722E+02  0.74548214804E+02  0.10053874112E+03  0.41800000000E+01 0.  1.
        -11    1    3    3    0    0  0.62178523238E+02 -0.34925606028E+02  0.39799533813E+02  0.81669881842E+02  0.00000000000E+00 0.  1.
         11    1    3    3    0    0 -0.12867826611E+02 -0.25407818455E+02 -0.25821188301E+02  0.38443100364E+02  0.00000000000E+00 0. -1.
</event>
<event>
 7    1  0.4274778E-006  0.9898493E+02  0.7561462E-02  0.1282445E+00
         -2   -1    0    0    0  501 -0.00000000000E+00  0.00000000000E+00  0.20368239076E+03  0.20368239076E+03  0.00000000000E+00 0.  1.
          2   -1    0    0  501    0  0.00000000000E+00 -0.00000000000E+00 -0.75428325850E+02  0.75428325850E+02  0.00000000000E+00 0. -1.
         23    2    1    2    0    0  0.98803628453E+01  0.43231854881E+02  0.18841825702E+02  0.10710431987E+03  0.95654096060E+02 0.  0.
          5    1    1    2  502    0 -0.41735074636E+02 -0.76013913392E+02  0.70987987490E+02  0.11214587934E+03  0.41800000000E+01 0. -1.
         -5    1    1    2    0  502  0.31854711791E+02  0.32782058511E+02  0.38424251715E+02  0.59860517400E+02  0.41800000000E+01 0. -1.
        -11    1    3    3    0    0 -0.19200766332E+02  0.22259569537E+02  0.51049200073E+02  0.58908222616E+02  0.00000000000E+00 0.  1.
         11    1    3    3    0    0  0.29081129177E+02  0.20972285344E+02 -0.32207374372E+02  0.48196097256E+02  0.00000000000E+00 0. -1.
</event>
<event>
 7    1  0.4274778E-006  0.1284062E+03  0.7561462E-02  0.1229840E+00
          2   -1    0    0  501    0  0.00000000000E+00  0.00000000000E+00  0.88461254735E+03  0.88461254735E+03  0.00000000000E+00 0. -1.
         -2   -1    0    0    0  501 -0.00000000000E+00 -0.00000000000E+00 -0.22226974718E+02  0.22226974718E+02  0.00000000000E+00 0.  1.
         23    2    1    2    0    0  0.78562762746E+02 -0.11375597363E+02  0.49954959779E+03  0.51492205985E+03  0.96402360798E+02 0.  0.
          5    1    1    2  502    0 -0.27553207275E+02  0.59146146778E+02  0.96719535783E+02  0.11674582182E+03  0.41800000000E+01 0.  1.
         -5    1    1    2    0  502 -0.51009555471E+02 -0.47770549415E+02  0.26611643906E+03  0.27517164039E+03  0.41800000000E+01 0.  1.
        -11    1    3    3    0    0  0.17845689009E+02  0.38764669884E+02  0.12200718518E+03  0.12925525708E+03  0.00000000000E+00 0.  1.
         11    1    3    3    0    0  0.60717073737E+02 -0.50140267247E+02  0.37754241260E+03  0.38566680277E+03  0.00000000000E+00 0. -1.
</event>
<event>
 7    1  0.4274778E-006  0.1073863E+03  0.7561462E-02  0.1265488E+00
          2   -1    0    0  501    0  0.00000000000E+00  0.00000000000E+00  0.28759356475E+03  0.28759356475E+03  0.00000000000E+00 0. -1.
         -2   -1    0    0    0  501 -0.00000000000E+00 -0.00000000000E+00 -0.11026160940E+03  0.11026160940E+03  0.00000000000E+00 0.  1.
         23    2    1    2    0    0  0.17896472831E+02  0.53792901180E+02  0.22842752403E+03  0.25132054958E+03  0.88141505256E+02 0.  0.
          5    1    1    2  502    0 -0.51660871499E+02 -0.65572559154E+02 -0.67051174511E+02  0.10715380796E+03  0.41800000000E+01 0.  1.
         -5    1    1    2    0  502  0.33764398668E+02  0.11779657974E+02  0.15955605833E+02  0.39380816610E+02  0.41800000000E+01 0.  1.
        -11    1    3    3    0    0  0.20292905512E+02  0.73031679382E+02  0.12574526894E+03  0.14682404731E+03  0.00000000000E+00 0.  1.
         11    1    3    3    0    0 -0.23964326806E+01 -0.19238778201E+02  0.10268225509E+03  0.10449650227E+03  0.00000000000E+00 0. -1.
</event>
<event>
 7    1  0.4274778E-006  0.1138577E+03  0.7561462E-02  0.1253588E+00
         -2   -1    0    0    0  501 -0.00000000000E+00  0.00000000000E+00  0.30112925231E+02  0.30112925231E+02  0.00000000000E+00 0.  1.
          2   -1    0    0  501    0  0.00000000000E+00 -0.00000000000E+00 -0.62328434487E+03  0.62328434487E+03  0.00000000000E+00 0. -1.
         23    2    1    2    0    0 -0.28819045831E+02 -0.68547433019E+02 -0.34496199809E+03  0.36567415376E+03  0.95861976981E+02 0.  0.
          5    1    1    2  502    0 -0.43939120881E+02  0.21993667179E+02 -0.44522678257E+02  0.66438761419E+02  0.41800000000E+01 0. -1.
         -5    1    1    2    0  502  0.72758166712E+02  0.46553765840E+02 -0.20368674329E+03  0.22128435492E+03  0.41800000000E+01 0. -1.
        -11    1    3    3    0    0  0.16031635233E+02 -0.22660777488E+02 -0.19440339252E+02  0.33888802794E+02  0.00000000000E+00 0.  1.
         11    1    3    3    0    0 -0.44850681064E+02 -0.45886655531E+02 -0.32552165883E+03  0.33178535097E+03  0.00000000000E+00 0. -1.
</event>
<event>
 7    1  0.4274778E-006  0.1768427E+03  0.7561462E-02  0.1170894E+00
          2   -1    0    0  501    0  0.00000000000E+00  0.00000000000E+00  0.86817955880E+02  0.86817955880E+02  0.00000000000E+00 0.  1.
         -2   -1    0    0    0  501 -0.00000000000E+00 -0.00000000000E+00 -0.61564661200E+03  0.61564661200E+03  0.00000000000E+00 0. -1.
         23    2    1    2    0    0  0.17456145007E+03  0.16487536224E+02 -0.96861205712E+02  0.21977755434E+03  0.90424230834E+02 0.  0.
          5    1    1    2  502    0 -0.86011172175E+02 -0.76836742897E+01 -0.73996512094E+02  0.11379770117E+03  0.41800000000E+01 0.  1.
         -5    1    1    2    0  502 -0.88550277891E+02 -0.88038619340E+01 -0.35797093831E+03  0.36888931236E+03  0.41800000000E+01 0.  1.
        -11    1    3    3    0    0  0.99491601188E+02 -0.63069980571E+01 -0.62002584541E+01  0.99883933325E+02  0.00000000000E+00 0.  1.
         11    1    3    3    0    0  0.75069848878E+02  0.22794534281E+02 -0.90660947258E+02  0.11989362102E+03  0.00000000000E+00 0. -1.
</event>
<event>
 7    1  0.4274778E-006  0.9878055E+02  0.7561462E-02  0.1282881E+00
         -1   -1    0    0    0  501 -0.00000000000E+00  0.00000000000E+00  0.38636958800E+02  0.38636958800E+02  0.00000000000E+00 0.  1.
          1   -1    0    0  501    0  0.00000000000E+00 -0.00000000000E+00 -0.31808533471E+03  0.31808533471E+03  0.00000000000E+00 0. -1.
         23    2    1    2    0    0 -0.35936780494E+02 -0.24850974943E+02 -0.16471894874E+03  0.18145095674E+03  0.62314480507E+02 0.  0.
          5    1    1    2  502    0  0.50109026070E+02  0.63887042085E+02 -0.42228953411E+02  0.91614548770E+02  0.41800000000E+01 0.  1.
         -5    1    1    2    0  502 -0.14172245576E+02 -0.39036067142E+02 -0.72500473752E+02  0.83656787991E+02  0.41800000000E+01 0.  1.
        -11    1    3    3    0    0 -0.52269086889E+02 -0.11726439637E+02 -0.13356434780E+03  0.14390622584E+03  0.00000000000E+00 0.  1.
         11    1    3    3    0    0  0.16332306395E+02 -0.13124535306E+02 -0.31154600941E+02  0.37544730909E+02  0.00000000000E+00 0. -1.
</event>
<event>
 7    1  0.4274778E-006  0.1465961E+03  0.7561462E-02  0.1204719E+00
         -1   -1    0    0    0  501 -0.00000000000E+00  0.00000000000E+00  0.76519676178E+02  0.76519676178E+02  0.00000000000E+00 0.  1.
          1   -1    0    0  501    0  0.00000000000E+00 -0.00000000000E+00 -0.36472267908E+03  0.36472267908E+03  0.00000000000E+00 0. -1.
         23    2    1    2    0    0 -0.74758363061E+02 -0.90148952098E+02 -0.19714376172E+03  0.24719291620E+03  0.92320250322E+02 0.  0.
          5    1    1    2  502    0  0.29374867315E+02 -0.29629901601E+02 -0.32974820782E+02  0.53344400871E+02  0.41800000000E+01 0.  1.
         -5    1    1    2    0  502  0.45383495746E+02  0.11977885370E+03 -0.58084420398E+02  0.14070503819E+03  0.41800000000E+01 0.  1.
        -11    1    3    3    0    0 -0.65478968042E+02 -0.51355421204E+02 -0.55464903269E+02  0.10000615000E+03  0.00000000000E+00 0.  1.
         11    1    3    3    0    0 -0.92793950189E+01 -0.38793530895E+02 -0.14167885845E+03  0.14718676620E+03  0.00000000000E+00 0. -1.
</event>
<event>
 7    1  0.4274778E-006  0.7760166E+02  0.7561462E-02  0.1335999E+00
          4   -1    0    0  501    0  0.00000000000E+00  0.00000000000E+00  0.36378956254E+02  0.36378956254E+02  0.00000000000E+00 0. -1.
         -4   -1    0    0    0  501 -0.00000000000E+00 -0.00000000000E+00 -0.37460346038E+03  0.37460346038E+03  0.00000000000E+00 0.  1.
         23    2    1    2    0    0  0.39790770517E+02 -0.50010082943E+02 -0.12673393935E+03  0.15709401017E+03  0.67325499126E+02 0.  0.
          5    1    1    2  502    0 -0.10596804529E+02  0.58108688467E+02 -0.23957011528E+02  0.63877404009E+02  0.41800000000E+01 0.  1.
         -5    1    1    2    0  502 -0.29193965988E+02 -0.80986055237E+01 -0.18753355325E+03  0.19001100246E+03  0.41800000000E+01 0.  1.
        -11    1    3    3    0    0  0.23865605102E+02 -0.18852220291E+02 -0.54941842003E+01  0.30905652829E+02  0.00000000000E+00 0. -1.
         11    1    3    3    0    0  0.15925165415E+02 -0.31157862652E+02 -0.12123975515E+03  0.12618835734E+03  0.00000000000E+00 0.  1.
</event>
<event>
 7    1  0.4274778E-006  0.1202708E+03  0.7561462E-02  0.1242651E+00
          1   -1    0    0  501    0  0.00000000000E+00  0.00000000000E+00  0.78873235518E+03  0.78873235518E+03  0.00000000000E+00 0. -1.
         -1   -1    0    0    0  501 -0.00000000000E+00 -0.00000000000E+00 -0.33077967565E+02  0.33077967565E+02  0.00000000000E+00 0.  1.
         23    2    1    2    0    0 -0.11432657190E+03  0.25574250031E+01  0.43819995118E+03  0.46194450078E+03  0.91084681086E+02 0.  0.
          5    1    1    2  502    0  0.48182803189E+02  0.36634164060E+01  0.27859699506E+03  0.28278748416E+03  0.41800000000E+01 0.  1.
         -5    1    1    2    0  502  0.66143768713E+02 -0.62208414091E+01  0.38857441382E+02  0.77078337800E+02  0.41800000000E+01 0.  1.
        -11    1    3    3    0    0 -0.45327033429E+02  0.26417736163E+02  0.75305630331E+02  0.91778944769E+02  0.00000000000E+00 0.  1.
         11    1    3    3    0    0 -0.68999538473E+02 -0.23860311160E+02  0.36289432084E+03  0.37016555601E+03  0.00000000000E+00 0. -1.
</event>
<event>
 7    1  0.4274778E-006  0.1108935E+03  0.7561462E-02  0.1258924E+00
         -1   -1    0    0    0  501 -0.00000000000E+00  0.00000000000E+00  0.33753854437E+03  0.33753854437E+03  0.00000000000E+00 0.  1.
          1   -1    0    0  501    0  0.00000000000E+00 -0.00000000000E+00 -0.44479220084E+02  0.44479220084E+02  0.00000000000E+00 0. -1.
         23    2    1    2    0    0 -0.51187925724E+02  0.13953227418E+01  0.75750609298E+02  0.12610139626E+03  0.86840409162E+02 0.  0.
          5    1    1    2  502    0  0.17671328569E+02  0.59247102729E+02  0.13286017008E+03  0.14660079205E+03  0.41800000000E+01 0. -1.
         -5    1    1    2    0  502  0.33516597155E+02 -0.60642425471E+02  0.84448544903E+02  0.10931557615E+03  0.41800000000E+01 0. -1.
        -11    1    3    3    0    0  0.15985439848E+02 -0.14271517631E+02  0.46459759697E+02  0.51163656767E+02  0.00000000000E+00 0.  1.
         11    1    3    3    0    0 -0.67173365572E+02  0.15666840373E+02  0.29290849602E+02  0.74937739490E+02  0.00000000000E+00 0. -1.
</event>
<event>
 7    1  0.4274778E-006  0.1106075E+03  0.7561462E-02  0.1259449E+00
          2   -1    0    0  501    0  0.00000000000E+00  0.00000000000E+00  0.93371112393E+03  0.93371112393E+03  0.00000000000E+00 0. -1.
         -2   -1    0    0    0  501 -0.00000000000E+00 -0.00000000000E+00 -0.22074032606E+02  0.22074032606E+02  0.00000000000E+00 0.  1.
         23    2    1    2    0    0  0.69715497411E+02  0.11874310918E+02  0.61875007853E+03  0.62956363738E+03  0.92181690085E+02 0.  0.
          5    1    1    2  502    0 -0.85831101693E+02 -0.17131542605E+02  0.29581386658E+03  0.30851869284E+03  0.41800000000E+01 0. -1.
         -5    1    1    2    0  502  0.16115604282E+02  0.52572316870E+01 -0.29268537930E+01  0.17702826314E+02  0.41800000000E+01 0. -1.
        -11    1    3    3    0    0  0.76302765314E+02 -0.23742266161E+02  0.43439717496E+03  0.44168621532E+03  0.00000000000E+00 0.  1.
         11    1    3    3    0    0 -0.65872679026E+01  0.35616577079E+02  0.18435290358E+03  0.18787742206E+03  0.00000000000E+00 0. -1.
</event>
<event>
 7    1  0.4274778E-006  0.1096307E+03  0.7561462E-02  0.1261255E+00
         -2   -1    0    0    0  501 -0.00000000000E+00  0.00000000000E+00  0.70885516138E+02  0.70885516138E+02  0.00000000000E+00 0.  1.
          2   -1    0    0  501    0  0.00000000000E+00 -0.00000000000E+00 -0.21996175263E+03  0.21996175263E+03  0.00000000000E+00 0. -1.
         23    2    1    2    0    0 -0.45818075468E+02 -0.16257192977E+01 -0.11485146629E+03  0.15331659039E+03  0.90626588688E+02 0.  0.
          5    1    1    2  502    0  0.61075577700E+01 -0.53789578334E+02  0.11282969111E+02  0.55456278195E+02  0.41800000000E+01 0. -1.
         -5    1    1    2    0  502  0.39710517698E+02  0.55415297632E+02 -0.45507739306E+02  0.82074400176E+02  0.41800000000E+01 0. -1.
        -11    1    3    3    0    0 -0.69088891301E+02 -0.13717688830E+02 -0.60038592768E+02  0.92553133440E+02  0.00000000000E+00 0.  1.
         11    1    3    3    0    0  0.23270815833E+02  0.12091969533E+02 -0.54812873525E+02  0.60763456953E+02  0.00000000000E+00 0. -1.
</event>
<event>
 7    1  0.4274778E-006  0.1117721E+03  0.7561462E-02  0.1257323E+00
         -3   -1    0    0    0  501 -0.00000000000E+00  0.00000000000E+00  0.82177945893E+03  0.82177945893E+03  0.00000000000E+00 0.  1.
          3   -1    0    0  501    0  0.00000000000E+00 -0.00000000000E+00 -0.20934322072E+02  0.20934322072E+02  0.00000000000E+00 0. -1.
         23    2    1    2    0    0 -0.35497573893E+02  0.62487771208E+02  0.30245549939E+03  0.32386665096E+03  0.90804620975E+02 0.  0.
          5    1    1    2  502    0 -0.83913858841E+01  0.15527705395E+02  0.30680932595E+03  0.30734501766E+03  0.41800000000E+01 0. -1.
         -5    1    1    2    0  502  0.43888959777E+02 -0.78015476603E+02  0.19158031152E+03  0.21150211238E+03  0.41800000000E+01 0. -1.
        -11    1    3    3    0    0 -0.33089744308E+02 -0.16358083841E+02  0.98178485411E+02  0.10488819325E+03  0.00000000000E+00 0.  1.
         11    1    3    3    0    0 -0.24078295841E+01  0.78845855049E+02  0.20427701398E+03  0.21897845771E+03  0.00000000000E+00 0. -1.
</event>
<event>
 7    1  0.4274778E-006  0.9157400E+02  0.7561462E-02  0.1299084E+00
          2   -1    0    0  501    0  0.00000000000E+00  0.00000000000E+00  0.15591584878E+03  0.15591584878E+03  0.00000000000E+00 0. -1.
         -2   -1    0    0    0  501 -0.00000000000E+00 -0.00000000000E+00 -0.91743606380E+02  0.91743606380E+02  0.00000000000E+00 0.  1.
         23    2    1    2    0    0  0.18862855948E+00  0.48462245536E+02  0.43253113492E+02  0.11189218615E+03  0.91106556687E+02 0.  0.
          5    1    1    2  502    0 -0.54374014201E+02 -0.57171637260E+02  0.98006800345E+01  0.79615672178E+02  0.41800000000E+01 0. -1.
         -5    1    1    2    0  502  0.54185385641E+02  0.87093917238E+01  0.11118448872E+02  0.56151596831E+02  0.41800000000E+01 0. -1.
        -11    1    3    3    0    0 -0.33736299776E+01  0.12093061467E+02  0.67094748744E+02  0.68259276468E+02  0.00000000000E+00 0. -1.
         11    1    3    3    0    0  0.35622585371E+01  0.36369184069E+02 -0.23841635252E+02  0.43632909681E+02  0.00000000000E+00 0.  1.
</event>
<event>
 7    1  0.4274778E-006  0.8904079E+02  0.7561462E-02  0.1305191E+00
          1   -1    0    0  501    0  0.00000000000E+00  0.00000000000E+00  0.57237046269E+03  0.57237046269E+03  0.00000000000E+00 0. -1.
         -1   -1    0    0    0  501 -0.00000000000E+00 -0.00000000000E+00 -0.21185560480E+02  0.21185560480E+02  0.00000000000E+00 0.  1.
         23    2    1    2    0    0  0.12060786420E+02  0.97318823997E+01  0.26059813236E+03  0.27680944662E+03  0.92042984762E+02 0.  0.
          5    1    1    2  502    0 -0.38949781781E+01 -0.48818470931E+02  0.26413057098E+03  0.26866493051E+03  0.41800000000E+01 0.  1.
         -5    1    1    2    0  502 -0.81658082418E+01  0.39086588532E+02  0.26456198865E+02  0.48081646037E+02  0.41800000000E+01 0.  1.
        -11    1    3    3    0    0 -0.43960653882E+01 -0.38019917574E+02  0.71702955039E+02  0.81278246072E+02  0.00000000000E+00 0. -1.
         11    1    3    3    0    0  0.16456851808E+02  0.47751799974E+02  0.18889517732E+03  0.19553120055E+03  0.00000000000E+00 0.  1.
</event>
<event>
 7    1  0.4274778E-006  0.7065508E+02  0.7561462E-02  0.1357879E+00
          1   -1    0    0  501    0  0.00000000000E+00  0.00000000000E+00  0.10362900243E+03  0.10362900243E+03  0.00000000000E+00 0. -1.
         -1   -1    0    0    0  501 -0.00000000000E+00 -0.00000000000E+00 -0.16186801301E+03  0.16186801301E+03  0.00000000000E+00 0.  1.
         23    2    1    2    0    0 -0.16072683532E+02  0.25667712992E+02  0.39793047604E+02  0.10371307381E+03  0.90861171004E+02 0.  0.
          5    1    1    2  502    0  0.52336505182E+02 -0.44837399946E+02 -0.17369819684E+02  0.71194699553E+02  0.41800000000E+01 0. -1.
         -5    1    1    2    0  502 -0.36263821651E+02  0.19169686954E+02 -0.80662238503E+02  0.90589242070E+02  0.41800000000E+01 0. -1.
        -11    1    3    3    0    0 -0.32501768458E+01  0.11392966120E+02 -0.29511747326E+02  0.31801046473E+02  0.00000000000E+00 0.  1.
         11    1    3    3    0    0 -0.12822506686E+02  0.14274746873E+02  0.69304794930E+02  0.71912027341E+02  0.00000000000E+00 0. -1.
</event>
<event>
 7    1  0.4274778E-006  0.1113580E+03  0.7561462E-02  0.1258076E+00
         -1   -1    0    0    0  501 -0.00000000000E+00  0.00000000000E+00  0.20552037301E+03  0.20552037301E+03  0.00000000000E+00 0. -1.
          1   -1    0    0  501    0  0.00000000000E+00 -0.00000000000E+00 -0.85777954997E+02  0.85777954997E+02  0.00000000000E+00 0.  1.
         23    2    1    2    0    0 -0.84071084783E+01 -0.58523882297E+02  0.38345585346E+01  0.11080399328E+03  0.93632776399E+02 0.  0.
          5    1    1    2  502    0 -0.26944876560E+02  0.70074288244E+02  0.12126732551E+03  0.14268731157E+03  0.41800000000E+01 0.  1.
         -5    1    1    2    0  502  0.35351985039E+02 -0.11550405947E+02 -0.53594660347E+01  0.37807023156E+02  0.41800000000E+01 0.  1.
        -11    1    3    3    0    0  0.14761846109E+02  0.21896095732E+02  0.60185095800E+01  0.27084563250E+02  0.00000000000E+00 0.  1.
         11    1    3    3    0    0 -0.23168954587E+02 -0.80419978030E+02 -0.21839510454E+01  0.83719430033E+02  0.00000000000E+00 0. -1.
</event>
<event>
 7    1  0.4274778E-006  0.1588248E+03  0.7561462E-02  0.1190030E+00
         -1   -1    0    0    0  501 -0.00000000000E+00  0.00000000000E+00  0.64339062471E+02  0.64339062471E+02  0.00000000000E+00 0.  1.
          1   -1    0    0  501    0  0.00000000000E+00 -0.00000000000E+00 -0.48052006161E+03  0.48052006161E+03  0.00000000000E+00 0. -1.
         23    2    1    2    0    0 -0.13004682741E+03 -0.43978657832E+02 -0.19936799411E+03  0.25937075656E+03  0.93162721205E+02 0.  0.
          5    1    1    2  502    0  0.94034828489E+02  0.83958350389E+02 -0.11711035379E+03  0.17211583580E+03  0.41800000000E+01 0. -1.
         -5    1    1    2    0  502  0.36011998918E+02 -0.39979692557E+02 -0.99702651246E+02  0.11337253172E+03  0.41800000000E+01 0. -1.
        -11    1    3    3    0    0 -0.85090823181E+02 -0.33049503157E+02 -0.52316188663E+02  0.10521264869E+03  0.00000000000E+00 0.  1.
         11    1    3    3    0    0 -0.44956004226E+02 -0.10929154675E+02 -0.14705180544E+03  0.15415810787E+03  0.00000000000E+00 0. -1.
</event>
<event>
 7    1  0.4274778E-006  0.1185990E+03  0.7561462E-02  0.1245426E+00
         -1   -1    0    0    0  501 -0.00000000000E+00  0.00000000000E+00  0.52571150440E+02  0.52571150440E+02  0.00000000000E+00 0.  1.
          1   -1    0    0  501    0  0.00000000000E+00 -0.00000000000E+00 -0.37625353126E+03  0.37625353126E+03  0.00000000000E+00 0. -1.
         23    2    1    2    0    0  0.49737637149E+02  0.71119439975E+02 -0.16745101420E+03  0.21068005012E+03  0.93885217529E+02 0.  0.
          5    1    1    2  502    0 -0.42360350361E+02 -0.10615168375E+03 -0.13229330495E+03  0.17487587078E+03  0.41800000000E+01 0. -1.
         -5    1    1    2    0  502 -0.73772867882E+01  0.35032243778E+02 -0.23938061661E+02  0.43268760793E+02  0.41800000000E+01 0. -1.
        -11    1    3    3    0    0  0.23978311829E+02  0.34166367905E+02 -0.15958454110E+03  0.16495310210E+03  0.00000000000E+00 0. -1.
         11    1    3    3    0    0  0.25759325320E+02  0.36953072070E+02 -0.78664731019E+01  0.45726948022E+02  0.00000000000E+00 0.  1.
</event>
<event>
 7    1  0.4274778E-006  0.8296999E+02  0.7561462E-02  0.1320828E+00
          1   -1    0    0  501    0  0.00000000000E+00  0.00000000000E+00  0.28844374909E+02  0.28844374909E+02  0.00000000000E+00 0. -1.
         -1   -1    0    0    0  501 -0.00000000000E+00 -0.00000000000E+00 -0.46597732546E+03  0.46597732546E+03  0.00000000000E+00 0.  1.
         23    2    1    2    0    0 -0.40834502106E+02 -0.28714799427E+01 -0.16607796528E+03  0.19349417960E+03  0.90456647240E+02 0.  0.
          5    1    1    2  502    0  0.55652735012E+02  0.48092020564E+01 -0.37846115437E+02  0.67602930354E+02  0.41800000000E+01 0.  1.
         -5    1    1    2    0  502 -0.14818232906E+02 -0.19377221137E+01 -0.23320886983E+03  0.23372459041E+03  0.41800000000E+01 0.  1.
        -11    1    3    3    0    0 -0.17573349945E+02 -0.43875100951E+02 -0.53170822954E+02  0.71140589858E+02  0.00000000000E+00 0.  1.
         11    1    3    3    0    0 -0.23261152161E+02  0.41003621008E+02 -0.11290714233E+03  0.12235358975E+03  0.00000000000E+00 0. -1.
</event>
<event>
 7    1  0.4274778E-006  0.8551176E+02  0.7561462E-02  0.1314100E+00
          1   -1    0    0  501    0  0.00000000000E+00  0.00000000000E+00  0.92472904877E+03  0.92472904877E+03  0.00000000000E+00 0. -1.
         -1   -1    0    0    0  501 -0.00000000000E+00 -0.00000000000E+00 -0.16102059908E+02  0.16102059908E+02  0.00000000000E+00 0.  1.
         23    2    1    2    0    0 -0.46115311977E+02  0.33665000678E+02  0.39965014953E+03  0.41360658023E+03  0.89945577558E+02 0.  0.
          5    1    1    2  502    0 -0.29060179345E+01 -0.68401649657E+01 -0.52104910280E+01  0.99927180360E+01  0.41800000000E+01 0.  1.
         -5    1    1    2    0  502  0.49021329912E+02 -0.26824835712E+02  0.51418733036E+03  0.51723181041E+03  0.41800000000E+01 0.  1.
        -11    1    3    3    0    0 -0.42861178656E+02  0.63410231902E+02  0.28011265324E+03  0.29038084759E+03  0.00000000000E+00 0.  1.
         11    1    3    3    0    0 -0.32541333218E+01 -0.29745231224E+02  0.11953749629E+03  0.12322573263E+03  0.00000000000E+00 0. -1.
</event>
<event>
 7    1  0.4274778E-006  0.1077114E+03  0.7561462E-02  0.1264868E+00
         -2   -1    0    0    0  501 -0.00000000000E+00  0.00000000000E+00  0.21064561409E+03  0.21064561409E+03  0.00000000000E+00 0.  1.
          2   -1    0    0  501    0  0.00000000000E+00 -0.00000000000E+00 -0.31163814499E+03  0.31163814499E+03  0.00000000000E+00 0. -1.
         23    2    1    2    0    0  0.31536282485E+02  0.13321955237E+00 -0.28402897774E+03  0.29951153040E+03  0.89666837736E+02 0.  0.
          5    1    1    2  502    0 -0.55547486481E+02  0.47458367080E+02  0.97692092721E+02  0.12206161248E+03  0.41800000000E+01 0. -1.
         -5    1    1    2    0  502  0.24011203995E+02 -0.47591586632E+02  0.85344354120E+02  0.10071061620E+03  0.41800000000E+01 0.  1.
        -11    1    3    3    0    0  0.60153711833E+02 -0.20673456187E+00 -0.23650770570E+03  0.24403771561E+03  0.00000000000E+00 0. -1.
         11    1    3    3    0    0 -0.28617429348E+02  0.33995411425E+00 -0.47521272038E+02  0.55473814790E+02  0.00000000000E+00 0.  1.
</event>
<event>
 7    1  0.4274778E-006  0.1144683E+03  0.7561462E-02  0.1252512E+00
          1   -1    0    0  501    0  0.00000000000E+00  0.00000000000E+00  0.48454188408E+03  0.48454188408E+03  0.00000000000E+00 0. -1.
         -1   -1    0    0    0  501 -0.00000000000E+00 -0.00000000000E+00 -0.45665960259E+02  0.45665960259E+02  0.00000000000E+00 0.  1.
         23    2    1    2    0    0  0.18575236430E+02 -0.92092584124E+02  0.30960470039E+03  0.33597899579E+03  0.90557891154E+02 0.  0.
          5    1    1    2  502    0 -0.42109121292E+02  0.39300001438E+02  0.12307043652E+03  0.13594658125E+03  0.41800000000E+01 0. -1.
         -5    1    1    2    0  502  0.23533884862E+02  0.52792582686E+02  0.62007869161E+01  0.58282267301E+02  0.41800000000E+01 0.  1.
        -11    1    3    3    0    0  0.36075887232E+02 -0.24986679021E+02  0.46709196656E+02  0.64090192856E+02  0.00000000000E+00 0.  1.
         11    1    3    3    0    0 -0.17500650802E+02 -0.67105905103E+02  0.26289550373E+03  0.27188880293E+03  0.00000000000E+00 0. -1.
</event>
<event>
 7    1  0.4274778E-006  0.7298948E+02  0.7561462E-02  0.1350212E+00
         -2   -1    0    0    0  501 -0.00000000000E+00  0.00000000000E+00  0.32451207525E+03  0.32451207525E+03  0.00000000000E+00 0.  1.
          2   -1    0    0  501    0  0.00000000000E+00 -0.00000000000E+00 -0.53949825108E+02  0.53949825108E+02  0.00000000000E+00 0. -1.
         23    2    1    2    0    0 -0.25172115747E+02 -0.62351264196E+02  0.70202040364E+02  0.13287629575E+03  0.90589557584E+02 0.  0.
          5    1    1    2  502    0  0.31755900471E+02  0.48772950477E+02  0.15921083282E+02  0.60482982779E+02  0.41800000000E+01 0.  1.
         -5    1    1    2    0  502 -0.65837847249E+01  0.13578313719E+02  0.18443912649E+03  0.18510262183E+03  0.41800000000E+01 0.  1.
        -11    1    3    3    0    0  0.88211719508E+00 -0.31825397305E+02  0.84479264727E+02  0.90279456208E+02  0.00000000000E+00 0.  1.
         11    1    3    3    0    0 -0.26054232942E+02 -0.30525866891E+02 -0.14277224362E+02  0.42596839544E+02  0.00000000000E+00 0. -1.
</event>
<event>
 7    1  0.4274778E-006  0.1281040E+03  0.7561462E-02  0.1230297E+00
         -1   -1    0    0    0  501 -0.00000000000E+00  0.00000000000E+00  0.58565895861E+03  0.58565895861E+03  0.00000000000E+00 0.  1.
          1   -1    0    0  501    0  0.00000000000E+00 -0.00000000000E+00 -0.39941810171E+02  0.39941810171E+02  0.00000000000E+00 0. -1.
         23    2    1    2    0    0  0.97430226586E+02  0.81577332885E+01  0.16226411691E+03  0.21057913445E+03  0.91949608827E+02 0.  0.
          5    1    1    2  502    0 -0.91450780190E+02  0.32667051822E+02  0.34512369132E+03  0.35855015853E+03  0.41800000000E+01 0. -1.
         -5    1    1    2    0  502 -0.59794463960E+01 -0.40824785111E+02  0.38329340213E+02  0.56471475806E+02  0.41800000000E+01 0. -1.
        -11    1    3    3    0    0  0.33150463494E+01  0.22141199146E+02  0.85331964715E+02  0.88219988858E+02  0.00000000000E+00 0.  1.
         11    1    3    3    0    0  0.94115180236E+02 -0.13983465857E+02  0.76932152194E+02  0.12235914559E+03  0.00000000000E+00 0. -1.
</event>
<event>
 7    1  0.4274778E-006  0.8063744E+02  0.7561462E-02  0.1327252E+00
          2   -1    0    0  501    0  0.00000000000E+00  0.00000000000E+00  0.32982680401E+02  0.32982680401E+02  0.00000000000E+00 0. -1.
         -2   -1    0    0    0  501 -0.00000000000E+00 -0.00000000000E+00 -0.37472473421E+03  0.37472473421E+03  0.00000000000E+00 0.  1.
         23    2    1    2    0    0 -0.13370414122E+02 -0.12087276824E+02 -0.11860632022E+03  0.15126624607E+03  0.92136571288E+02 0.  0.
          5    1    1    2  502    0  0.53212339949E+02 -0.27887006441E+02 -0.16344592220E+03  0.17418748559E+03  0.41800000000E+01 0.  1.
         -5    1    1    2    0  502 -0.39841925827E+02  0.39974283265E+02 -0.59689811391E+02  0.82253682957E+02  0.41800000000E+01 0.  1.
        -11    1    3    3    0    0  0.14568312521E+02 -0.17648593628E+01  0.10962963259E+02  0.18317669658E+02  0.00000000000E+00 0. -1.
         11    1    3    3    0    0 -0.27938726643E+02 -0.10322417461E+02 -0.12956928348E+03  0.13294857641E+03  0.00000000000E+00 0.  1.
</event>
<event>
 7    1  0.4274778E-006  0.9911700E+02  0.7561462E-02  0.1282164E+00
         -2   -1    0    0    0  501 -0.00000000000E+00  0.00000000000E+00  0.94502635018E+02  0.94502635018E+02  0.00000000000E+00 0.  1.
          2   -1    0    0  501    0  0.00000000000E+00 -0.00000000000E+00 -0.15312090376E+03  0.15312090376E+03  0.00000000000E+00 0. -1.
         23    2    1    2    0    0 -0.18329476070E+02  0.46566459124E+02 -0.58641453861E+02  0.11289430146E+03  0.82473622343E+02 0.  0.
          5    1    1    2  502    0 -0.69140331235E+01 -0.84256656358E+02 -0.16563541947E+02  0.86248543852E+02  0.41800000000E+01 0.  1.
         -5    1    1    2    0  502  0.25243509193E+02  0.37690197235E+02  0.16586727069E+02  0.48480693465E+02  0.41800000000E+01 0.  1.
        -11    1    3    3    0    0 -0.33750685066E+02  0.35969995834E+02 -0.73832623370E+02  0.88793049370E+02  0.00000000000E+00 0. -1.
         11    1    3    3    0    0  0.15421208996E+02  0.10596463289E+02  0.15191169510E+02  0.24101252088E+02  0.00000000000E+00 0.  1.
</event>
<event>
 7    1  0.4274778E-006  0.1216510E+03  0.7561462E-02  0.1240398E+00
          3   -1    0    0  501    0  0.00000000000E+00  0.00000000000E+00  0.24918382676E+02  0.24918382676E+02  0.00000000000E+00 0. -1.
         -3   -1    0    0    0  501 -0.00000000000E+00 -0.00000000000E+00 -0.16686979294E+04  0.16686979294E+04  0.00000000000E+00 0.  1.
         23    2    1    2    0    0 -0.93065483711E+02  0.32367040091E+02 -0.19928618283E+03  0.24037267392E+03  0.91406948077E+02 0.  0.
          5    1    1    2  502    0  0.76219462226E+02 -0.42262753778E+01 -0.13651240305E+04  0.13672630906E+04  0.41800000000E+01 0.  1.
         -5    1    1    2    0  502  0.16846021484E+02 -0.28140764713E+02 -0.79369333437E+02  0.85980547619E+02  0.41800000000E+01 0.  1.
        -11    1    3    3    0    0 -0.65945864755E+01 -0.27717743174E+02 -0.52381346930E+02  0.59628578414E+02  0.00000000000E+00 0.  1.
         11    1    3    3    0    0 -0.86470897235E+02  0.60084783265E+02 -0.14690483590E+03  0.18074409550E+03  0.00000000000E+00 0. -1.
</event>
<event>
 7    1  0.4274778E-006  0.8613362E+02  0.7561462E-02  0.1312494E+00
         -2   -1    0    0    0  501 -0.00000000000E+00  0.00000000000E+00  0.64912033783E+02  0.64912033783E+02  0.00000000000E+00 0.  1.
          2   -1    0    0  501    0  0.00000000000E+00 -0.00000000000E+00 -0.24095474615E+03  0.24095474615E+03  0.00000000000E+00 0. -1.
         23    2    1    2    0    0 -0.30263697549E+02 -0.11870634086E+02 -0.16092523399E+03  0.17574027727E+03  0.62696975818E+02 0.  0.
          5    1    1    2  502    0 -0.18887731504E+02  0.53875266262E+02  0.14252385086E+02  0.58990622957E+02  0.41800000000E+01 0. -1.
         -5    1    1    2    0  502  0.49151429053E+02 -0.42004632176E+02 -0.29369863467E+02  0.71135879711E+02  0.41800000000E+01 0. -1.
        -11    1    3    3    0    0  0.87628394902E+01 -0.63445727895E+01 -0.81441880982E+00  0.10849158392E+02  0.00000000000E+00 0.  1.
         11    1    3    3    0    0 -0.39026537039E+02 -0.55260612965E+01 -0.16011081518E+03  0.16489111888E+03  0.00000000000E+00 0. -1.
</event>
<event>
 7    1  0.4274778E-006  0.9108949E+02  0.7561462E-02  0.1300235E+00
         -1   -1    0    0    0  501 -0.00000000000E+00  0.00000000000E+00  0.14345896134E+03  0.14345896134E+03  0.00000000000E+00 0.  1.
          1   -1    0    0  501    0  0.00000000000E+00 -0.00000000000E+00 -0.10456242086E+03  0.10456242086E+03  0.00000000000E+00 0. -1.
         23    2    1    2    0    0  0.54413682630E+02 -0.90355349261E+00  0.45135118280E+00  0.10629160021E+03  0.91301890944E+02 0.  0.
          5    1    1    2  502    0 -0.16168294899E+02  0.30745774907E+02 -0.37645390358E+02  0.51394204438E+02  0.41800000000E+01 0. -1.
         -5    1    1    2    0  502 -0.38245387730E+02 -0.29842221415E+02  0.76090579648E+02  0.90335577558E+02  0.41800000000E+01 0. -1.
        -11    1    3    3    0    0  0.25435158860E+01  0.35206752276E+02  0.19441650373E+02  0.40298419921E+02  0.00000000000E+00 0.  1.
         11    1    3    3    0    0  0.51870166744E+02 -0.36110305769E+02 -0.18990299190E+02  0.65993180285E+02  0.00000000000E+00 0. -1.
</event>
<event>
 7    1  0.4274778E-006  0.8135232E+02  0.7561462E-02  0.1325257E+00
          2   -1    0    0  501    0  0.00000000000E+00  0.00000000000E+00  0.13636447361E+03  0.13636447361E+03  0.00000000000E+00 0. -1.
         -2   -1    0    0    0  501 -0.00000000000E+00 -0.00000000000E+00 -0.14691580142E+03  0.14691580142E+03  0.00000000000E+00 0.  1.
         23    2    1    2    0    0  0.26854643282E+02  0.41184906166E+01  0.40239735456E+01  0.92738547675E+02  0.88578281938E+02 0.  0.
          5    1    1    2  502    0  0.37382204998E+02  0.69277371238E+01  0.72335471686E+02  0.81824908531E+02  0.41800000000E+01 0. -1.
         -5    1    1    2    0  502 -0.64236848280E+02 -0.11046227740E+02 -0.86910773042E+02  0.10871681882E+03  0.41800000000E+01 0.  1.
        -11    1    3    3    0    0 -0.71608739973E+01  0.20262835612E+02  0.36933604747E+02  0.42731157052E+02  0.00000000000E+00 0.  1.
         11    1    3    3    0    0  0.34015517279E+02 -0.16144344995E+02 -0.32909631201E+02  0.50007390623E+02  0.00000000000E+00 0. -1.
</event>
<event>
 7    1  0.4274778E-006  0.1624052E+03  0.7561462E-02  0.1186008E+00
          2   -1    0    0  501    0  0.00000000000E+00  0.00000000000E+00  0.10676440484E+03  0.10676440484E+03  0.00000000000E+00 0. -1.
         -2   -1    0    0    0  501 -0.00000000000E+00 -0.00000000000E+00 -0.34862834327E+03  0.34862834327E+03  0.00000000000E+00 0.  1.
         23    2    1    2    0    0  0.10626595669E+03 -0.70146324117E+02 -0.19173320784E+01  0.15633000970E+03  0.90677645719E+02 0.  0.
          5    1    1    2  502    0 -0.96181574512E+02  0.10451358692E+03 -0.19862323537E+03  0.24421844147E+03  0.41800000000E+01 0.  1.
         -5    1    1    2    0  502 -0.10084382178E+02 -0.34367262800E+02 -0.41323370990E+02  0.54844296935E+02  0.41800000000E+01 0.  1.
        -11    1    3    3    0    0 -0.98485366303E+01 -0.15402891698E+02 -0.19533849506E+02  0.26754700951E+02  0.00000000000E+00 0.  1.
         11    1    3    3    0    0  0.11611449332E+03 -0.54743432419E+02  0.17616517428E+02  0.12957530875E+03  0.00000000000E+00 0. -1.
</event>
<event>
 7    1  0.4274778E-006  0.1081308E+03  0.7561462E-02  0.1264071E+00
         -2   -1    0    0    0  501 -0.00000000000E+00  0.00000000000E+00  0.22521037641E+03  0.22521037641E+03  0.00000000000E+00 0.  1.
          2   -1    0    0  501    0  0.00000000000E+00 -0.00000000000E+00 -0.62945828161E+02  0.62945828161E+02  0.00000000000E+00 0. -1.
         23    2    1    2    0    0  0.88770571225E+01  0.34912646849E+02  0.32619092090E+02  0.10443692731E+03  0.92441178946E+02 0.  0.
          5    1    1    2  502    0  0.16866452501E+02  0.43074947665E+02  0.60538199323E+02  0.76303828958E+02  0.41800000000E+01 0.  1.
         -5    1    1    2    0  502 -0.25743509624E+02 -0.77987594514E+02  0.69107256838E+02  0.10741544830E+03  0.41800000000E+01 0.  1.
        -11    1    3    3    0    0  0.37402713507E+02  0.43899833900E+02 -0.32143095544E+01  0.57762359543E+02  0.00000000000E+00 0. -1.
         11    1    3    3    0    0 -0.28525656384E+02 -0.89871870507E+01  0.35833401644E+02  0.46674567771E+02  0.00000000000E+00 0.  1.
</event>
<event>
 7    1  0.4274778E-006  0.1032497E+03  0.7561462E-02  0.1273607E+00
         -1   -1    0    0    0  501 -0.00000000000E+00  0.00000000000E+00  0.52296539404E+02  0.52296539404E+02  0.00000000000E+00 0.  1.
          1   -1    0    0  501    0  0.00000000000E+00 -0.00000000000E+00 -0.33072643353E+03  0.33072643353E+03  0.00000000000E+00 0. -1.
         23    2    1    2    0    0 -0.17724337647E+02 -0.67931659025E+02 -0.16207358692E+03  0.19832831686E+03  0.90207600820E+02 0.  0.
          5    1    1    2  502    0 -0.21465461707E+02  0.69277132346E+02 -0.12476410443E+03  0.14437327061E+03  0.41800000000E+01 0.  1.
         -5    1    1    2    0  502  0.39189799354E+02 -0.13454733214E+01  0.84077972281E+01  0.40321385468E+02  0.41800000000E+01 0.  1.
        -11    1    3    3    0    0  0.90369203734E+01 -0.67034789579E+02 -0.15716911837E+03  0.17110657706E+03  0.00000000000E+00 0. -1.
         11    1    3    3    0    0 -0.26761258021E+02 -0.89686944611E+00 -0.49044685508E+01  0.27221739794E+02  0.00000000000E+00 0.  1.
</event>
<event>
 7    1  0.4274778E-006  0.1166797E+03  0.7561462E-02  0.1248677E+00
          1   -1    0    0  501    0  0.00000000000E+00  0.00000000000E+00  0.33401571620E+03  0.33401571620E+03  0.00000000000E+00 0. -1.
         -1   -1    0    0    0  501 -0.00000000000E+00 -0.00000000000E+00 -0.51569482027E+02  0.51569482027E+02  0.00000000000E+00 0.  1.
         23    2    1    2    0    0 -0.23002424130E+02 -0.74975104296E+02  0.11229199707E+03  0.16030964341E+03  0.83302529291E+02 0.  0.
          5    1    1    2  502    0  0.39895986585E+02  0.90018937005E+02  0.17584437405E+03  0.20157830997E+03  0.41800000000E+01 0. -1.
         -5    1    1    2    0  502 -0.16893562456E+02 -0.15043832709E+02 -0.56901369384E+01  0.23697244848E+02  0.41800000000E+01 0. -1.
        -11    1    3    3    0    0 -0.52953548378E+02 -0.46366944748E+02  0.53577123584E+02  0.88456090930E+02  0.00000000000E+00 0.  1.
         11    1    3    3    0    0  0.29951124249E+02 -0.28608159548E+02  0.58714873481E+02  0.71853552483E+02  0.00000000000E+00 0. -1.
</event>
<event>
 7    1  0.4274778E-006  0.1234792E+03  0.7561462E-02  0.1237465E+00
         -2   -1    0    0    0  501 -0.00000000000E+00  0.00000000000E+00  0.51314780237E+03  0.51314780237E+03  0.00000000000E+00 0.  1.
          2   -1    0    0  501    0  0.00000000000E+00 -0.00000000000E+00 -0.76481465939E+02  0.76481465939E+02  0.00000000000E+00 0. -1.
         23    2    1    2    0    0 -0.41992352951E+02  0.70440512798E+02 -0.31390259455E+01  0.12508416229E+03  0.94397937602E+02 0.  0.
          5    1    1    2  502    0  0.39565830795E+02  0.13779290765E+02  0.48394890271E+02  0.64147187193E+02  0.41800000000E+01 0. -1.
         -5    1    1    2    0  502  0.24265221559E+01 -0.84219803563E+02  0.39141047210E+03  0.40039791882E+03  0.41800000000E+01 0. -1.
        -11    1    3    3    0    0 -0.55008339464E+02  0.66712846080E+01 -0.18118821495E+02  0.58298500334E+02  0.00000000000E+00 0. -1.
         11    1    3    3    0    0  0.13015986513E+02  0.63769228189E+02  0.14979795549E+02  0.66785661960E+02  0.00000000000E+00 0.  1.
</event>
<event>
 7    1  0.4274778E-006  0.1119420E+03  0.7561462E-02  0.1257015E+00
          3   -1    0    0  501    0  0.00000000000E+00  0.00000000000E+00  0.27553256847E+02  0.27553256847E+02  0.00000000000E+00 0. -1.
         -3   -1    0    0    0  501 -0.00000000000E+00 -0.00000000000E+00 -0.77239775858E+03  0.77239775858E+03  0.00000000000E+00 0.  1.
         23    2    1    2    0    0 -0.37997749800E+02  0.45491090213E+02 -0.13003751478E+03  0.16975778860E+03  0.91622504126E+02 0.  0.
          5    1    1    2  502    0  0.59020161345E+02 -0.78549335097E+02 -0.46561073734E+03  0.47588255758E+03  0.41800000000E+01 0.  1.
         -5    1    1    2    0  502 -0.21022411546E+02  0.33058244884E+02 -0.14919624962E+03  0.15431066924E+03  0.41800000000E+01 0.  1.
        -11    1    3    3    0    0  0.15071140989E+02  0.25132003123E+02 -0.10248394779E+03  0.10659135249E+03  0.00000000000E+00 0.  1.
         11    1    3    3    0    0 -0.53068890788E+02  0.20359087089E+02 -0.27553566985E+02  0.63166436105E+02  0.00000000000E+00 0. -1.
</event>
<event>
 6    1  0.4274778E-006  0.1561206E+03  0.7561462E-02  0.1193148E+00
          1   -1    0    0  501    0  0.00000000000E+00  0.00000000000E+00  0.63826106780E+02  0.63826106780E+02  0.00000000000E+00 0. -1.
         -1   -1    0    0    0  501 -0.00000000000E+00 -0.00000000000E+00 -0.48998050639E+03  0.48998050639E+03  0.00000000000E+00 0.  1.
          5    1    1    2  502    0  0.30619279619E+02 -0.46699932272E+02 -0.14613279344E+03  0.15649501487E+03  0.41800000000E+01 0. -1.
         -5    1    1    2    0  502 -0.86146346356E+02 -0.25301890966E+02 -0.17645379073E+03  0.19802724899E+03  0.41800000000E+01 0.  1.
        -11    1    1    2    0    0  0.26563974230E+02  0.11304610671E+03 -0.90915357576E+02  0.14748108086E+03  0.00000000000E+00 0.  1.
         11    1    1    2    0    0  0.28963092507E+02 -0.41044283471E+02 -0.12652457862E+02  0.51803268461E+02  0.00000000000E+00 0. -1.
</event>
<event>
 7    1  0.4274778E-006  0.6771657E+02  0.7561462E-02  0.1368035E+00
         -1   -1    0    0    0  501 -0.00000000000E+00  0.00000000000E+00  0.11750249225E+03  0.11750249225E+03  0.00000000000E+00 0.  1.
          1   -1    0    0  501    0  0.00000000000E+00 -0.00000000000E+00 -0.10485727733E+03  0.10485727733E+03  0.00000000000E+00 0. -1.
         23    2    1    2    0    0  0.14575023399E+02 -0.10971556057E+02 -0.12147297293E+02  0.93539640655E+02  0.90935698122E+02 0.  0.
          5    1    1    2  502    0  0.24628487050E+02  0.26938289111E+02  0.62157745939E+02  0.72203127182E+02  0.41800000000E+01 0.  1.
         -5    1    1    2    0  502 -0.39203510449E+02 -0.15966733054E+02 -0.37365233724E+02  0.56617001750E+02  0.41800000000E+01 0.  1.
        -11    1    3    3    0    0  0.33252618178E+02 -0.15875624921E+02 -0.43319114407E+02  0.56871062548E+02  0.00000000000E+00 0. -1.
         11    1    3    3    0    0 -0.18677594779E+02  0.49040688646E+01  0.31171817114E+02  0.36668578107E+02  0.00000000000E+00 0.  1.
</event>
<event>
 6    1  0.4274778E-006  0.1814554E+03  0.7561462E-02  0.1166402E+00
         -2   -1    0    0    0  501 -0.00000000000E+00  0.00000000000E+00  0.14880539344E+03  0.14880539344E+03  0.00000000000E+00 0.  1.
          2   -1    0    0  501    0  0.00000000000E+00 -0.00000000000E+00 -0.37079171558E+03  0.37079171558E+03  0.00000000000E+00 0. -1.
          5    1    1    2  502    0  0.11540718206E+03 -0.24458787563E+02  0.29811827095E+02  0.12175084145E+03  0.41800000000E+01 0.  1.
         -5    1    1    2    0  502  0.40238371044E+02 -0.53579813125E+02 -0.68847790914E+02  0.96163473276E+02  0.41800000000E+01 0.  1.
        -11    1    1    2    0    0 -0.10169396288E+03  0.69331701546E+02 -0.13713547843E+02  0.12384106072E+03  0.00000000000E+00 0.  1.
         11    1    1    2    0    0 -0.53951590223E+02  0.87068991417E+01 -0.16923681047E+03  0.17784173357E+03  0.00000000000E+00 0. -1.
</event>
<event>
 7    1  0.4274778E-006  0.1190094E+03  0.7561462E-02  0.1244740E+00
         -2   -1    0    0    0  501 -0.00000000000E+00  0.00000000000E+00  0.11543617225E+03  0.11543617225E+03  0.00000000000E+00 0. -1.
          2   -1    0    0  501    0  0.00000000000E+00 -0.00000000000E+00 -0.15551287380E+03  0.15551287380E+03  0.00000000000E+00 0.  1.
         23    2    1    2    0    0 -0.53854277636E+02 -0.55279275243E+02 -0.48245540457E+02  0.12374097255E+03  0.83833851295E+02 0.  0.
          5    1    1    2  502    0  0.35332452376E+02 -0.31627592701E+02 -0.23103559153E+02  0.52914399330E+02  0.41800000000E+01 0. -1.
         -5    1    1    2    0  502  0.18521825259E+02  0.86906867944E+02  0.31272398063E+02  0.94293674164E+02  0.41800000000E+01 0. -1.
        -11    1    3    3    0    0 -0.95358307465E+01 -0.56325444442E+02 -0.54520621939E+02  0.78968259296E+02  0.00000000000E+00 0.  1.
         11    1    3    3    0    0 -0.44318446889E+02  0.10461691991E+01  0.62750814819E+01  0.44772713256E+02  0.00000000000E+00 0. -1.
</event>
<event>
 7    1  0.4274778E-006  0.8633976E+02  0.7561462E-02  0.1311966E+00
         -2   -1    0    0    0  501 -0.00000000000E+00  0.00000000000E+00  0.30666935984E+03  0.30666935984E+03  0.00000000000E+00 0. -1.
          2   -1    0    0  501    0  0.00000000000E+00 -0.00000000000E+00 -0.56673884900E+02  0.56673884900E+02  0.00000000000E+00 0.  1.
         23    2    1    2    0    0 -0.23082213869E+02 -0.15760805538E+02  0.15949618566E+02  0.96500480185E+02  0.90976704465E+02 0.  0.
          5    1    1    2  502    0  0.47621406518E+02  0.21504182688E+02  0.28402752037E+02  0.59618931181E+02  0.41800000000E+01 0.  1.
         -5    1    1    2    0  502 -0.24539192650E+02 -0.57433771496E+01  0.20564310434E+03  0.20722383338E+03  0.41800000000E+01 0.  1.
        -11    1    3    3    0    0 -0.16204584358E+02  0.37583732985E+02  0.11591773201E+02  0.42538156345E+02  0.00000000000E+00 0.  1.
         11    1    3    3    0    0 -0.68776295110E+01 -0.53344538523E+02  0.43578453645E+01  0.53962323840E+02  0.00000000000E+00 0. -1.
</event>
<event>
 7    1  0.4274778E-006  0.1178676E+03  0.7561462E-02  0.1246657E+00
          2   -1    0    0  501    0  0.00000000000E+00  0.00000000000E+00  0.88416411515E+02  0.88416411515E+02  0.00000000000E+00 0. -1.
         -2   -1    0    0    0  501 -0.00000000000E+00 -0.00000000000E+00 -0.22769752233E+03  0.22769752233E+03  0.00000000000E+00 0.  1.
         23    2    1    2    0    0 -0.25712893688E+00  0.79890301783E+02 -0.13653696750E+02  0.12166014347E+03  0.90731695893E+02 0.  0.
          5    1    1    2  502    0  0.27170387518E+02  0.14294545034E+02  0.47279347621E+01  0.31343097210E+02  0.41800000000E+01 0.  1.
         -5    1    1    2    0  502 -0.26913258581E+02 -0.94184846817E+02 -0.13035534883E+03  0.16311069317E+03  0.41800000000E+01 0.  1.
        -11    1    3    3    0    0  0.30813715511E+02  0.65663155896E+02 -0.35851549742E+02  0.80910251048E+02  0.00000000000E+00 0.  1.
         11    1    3    3    0    0 -0.31070844448E+02  0.14227145887E+02  0.22197852992E+02  0.40749892420E+02  0.00000000000E+00 0. -1.
</event>
<event>
 7    1  0.4274778E-006  0.1095068E+03  0.7561462E-02  0.1261486E+00
          1   -1    0    0  501    0  0.00000000000E+00  0.00000000000E+00  0.82420710436E+03  0.82420710436E+03  0.00000000000E+00 0. -1.
         -1   -1    0    0    0  501 -0.00000000000E+00 -0.00000000000E+00 -0.23209429397E+02  0.23209429397E+02  0.00000000000E+00 0.  1.
         23    2    1    2    0    0 -0.74059377133E+02  0.30480773869E+02  0.46432550135E+03  0.47943674292E+03  0.88586400422E+02 0.  0.
          5    1    1    2  502    0  0.83695119581E+02 -0.22674878035E+02  0.10633910734E+03  0.13727527558E+03  0.41800000000E+01 0.  1.
         -5    1    1    2    0  502 -0.96357424480E+01 -0.78058958348E+01  0.23033306627E+03  0.23070451525E+03  0.41800000000E+01 0.  1.
        -11    1    3    3    0    0  0.20527404369E+02  0.65505772643E+01  0.98002074517E+02  0.10034286722E+03  0.00000000000E+00 0.  1.
         11    1    3    3    0    0 -0.94586781502E+02  0.23930196605E+02  0.36632342684E+03  0.37909387570E+03  0.00000000000E+00 0. -1.
</event>
<event>
 7    1  0.4274778E-006  0.1599101E+03  0.7561462E-02  0.1188798E+00
         -1   -1    0    0    0  501 -0.00000000000E+00  0.00000000000E+00  0.59772775196E+03  0.59772775196E+03  0.00000000000E+00 0.  1.
          1   -1    0    0  501    0  0.00000000000E+00 -0.00000000000E+00 -0.60729735836E+02  0.60729735836E+02  0.00000000000E+00 0. -1.
         23    2    1    2    0    0 -0.12287816061E+03  0.93081644130E+02  0.20842239775E+03  0.27456847950E+03  0.90469438056E+02 0.  0.
          5    1    1    2  502    0  0.77536292647E+02 -0.28982026941E+02  0.27873551625E+03  0.29079682767E+03  0.41800000000E+01 0.  1.
         -5    1    1    2    0  502  0.45341867961E+02 -0.64099617189E+02  0.49840102120E+02  0.93092180624E+02  0.41800000000E+01 0.  1.
        -11    1    3    3    0    0 -0.93291017310E+02  0.49426120266E+02  0.19238011784E+03  0.21944535770E+03  0.00000000000E+00 0.  1.
         11    1    3    3    0    0 -0.29587143298E+02  0.43655523865E+02  0.16042279912E+02  0.55123121802E+02  0.00000000000E+00 0. -1.
</event>
<event>
 7    1  0.4274778E-006  0.9833650E+02  0.7561462E-02  0.1283833E+00
         -2   -1    0    0    0  501 -0.00000000000E+00  0.00000000000E+00  0.63735651383E+02  0.63735651383E+02  0.00000000000E+00 0.  1.
          2   -1    0    0  501    0  0.00000000000E+00 -0.00000000000E+00 -0.23838338608E+03  0.23838338608E+03  0.00000000000E+00 0. -1.
         23    2    1    2    0    0 -0.27760210224E+02 -0.73337362191E+01 -0.13840327606E+03  0.16875408894E+03  0.92184937776E+02 0.  0.
          5    1    1    2  502    0  0.69540532210E+02 -0.35719634210E+01  0.94062127184E+01  0.70388875402E+02  0.41800000000E+01 0.  1.
         -5    1    1    2    0  502 -0.41780321986E+02  0.10905699640E+02 -0.45650671354E+02  0.62976073115E+02  0.41800000000E+01 0.  1.
        -11    1    3    3    0    0 -0.16494846002E+02  0.35552311616E+02 -0.23754060079E+02  0.45829053842E+02  0.00000000000E+00 0. -1.
         11    1    3    3    0    0 -0.11265364222E+02 -0.42886047835E+02 -0.11464921598E+03  0.12292503510E+03  0.00000000000E+00 0.  1.
</event>
<event>
 7    1  0.4274778E-006  0.2491180E+03  0.7561462E-02  0.1113863E+00
         -1   -1    0    0    0  501 -0.00000000000E+00  0.00000000000E+00  0.62553746442E+03  0.62553746442E+03  0.00000000000E+00 0.  1.
          1   -1    0    0  501    0  0.00000000000E+00 -0.00000000000E+00 -0.11172940640E+03  0.11172940640E+03  0.00000000000E+00 0. -1.
         23    2    1    2    0    0  0.21988511219E+03  0.61912354535E+02  0.35601540140E+03  0.43275247962E+03  0.91351739902E+02 0.  0.
          5    1    1    2  502    0 -0.48132786498E+02  0.31601276929E+02  0.82991844017E+01  0.58324563447E+02  0.41800000000E+01 0.  1.
         -5    1    1    2    0  502 -0.17175232569E+03 -0.93513631464E+02  0.14949347223E+03  0.24618982775E+03  0.41800000000E+01 0.  1.
        -11    1    3    3    0    0  0.15426849963E+03 -0.60481515635E+00  0.24379392215E+03  0.28850409400E+03  0.00000000000E+00 0.  1.
         11    1    3    3    0    0  0.65616612556E+02  0.62517169691E+02  0.11222147925E+03  0.14424838562E+03  0.00000000000E+00 0. -1.
</event>
<event>
 7    1  0.4274778E-006  0.1318202E+03  0.7561462E-02  0.1224780E+00
         -3   -1    0    0    0  501 -0.00000000000E+00  0.00000000000E+00  0.26610687762E+03  0.26610687762E+03  0.00000000000E+00 0.  1.
          3   -1    0    0  501    0  0.00000000000E+00 -0.00000000000E+00 -0.70806802604E+02  0.70806802604E+02  0.00000000000E+00 0. -1.
         23    2    1    2    0    0 -0.34971437801E+02  0.67332139681E+02  0.50174127203E+02  0.13084157857E+03  0.94050290514E+02 0.  0.
          5    1    1    2  502    0 -0.38426843883E+02  0.79931617624E+01  0.26818637213E+02  0.47720275227E+02  0.41800000000E+01 0.  1.
         -5    1    1    2    0  502  0.73398281684E+02 -0.75325301443E+02  0.11830731060E+03  0.15835182643E+03  0.41800000000E+01 0.  1.
        -11    1    3    3    0    0  0.44917939631E+01  0.77924339946E+02  0.43752725357E+02  0.89480053337E+02  0.00000000000E+00 0.  1.
         11    1    3    3    0    0 -0.39463231765E+02 -0.10592200265E+02  0.64214018456E+01  0.41361525231E+02  0.00000000000E+00 0. -1.
</event>
<event>
 7    1  0.4274778E-006  0.1646312E+03  0.7561462E-02  0.1183565E+00
          4   -1    0    0  501    0  0.00000000000E+00  0.00000000000E+00  0.60356444291E+03  0.60356444291E+03  0.00000000000E+00 0. -1.
         -4   -1    0    0    0  501 -0.00000000000E+00 -0.00000000000E+00 -0.61352722606E+02  0.61352722606E+02  0.00000000000E+00 0.  1.
         23    2    1    2    0    0 -0.14848322248E+03 -0.49268909216E+02  0.31587246216E+03  0.36267271678E+03  0.85331086787E+02 0.  0.
          5    1    1    2  502    0  0.96437810402E+01  0.28977167296E+02  0.12594497846E+03  0.12966221013E+03  0.41800000000E+01 0.  1.
         -5    1    1    2    0  502  0.13883944144E+03  0.20291741920E+02  0.10039427968E+03  0.17258223860E+03  0.41800000000E+01 0.  1.
        -11    1    3    3    0    0 -0.29812357800E+02 -0.19792538229E+02  0.16316260605E+03  0.16704058567E+03  0.00000000000E+00 0. -1.
         11    1    3    3    0    0 -0.11867086468E+03 -0.29476370987E+02  0.15270985610E+03  0.19563213111E+03  0.00000000000E+00 0.  1.
</event>
<event>
 7    1  0.4274778E-006  0.1242047E+03  0.7561462E-02  0.1236317E+00
          3   -1    0    0  501    0  0.00000000000E+00  0.00000000000E+00  0.17423277347E+03  0.17423277347E+03  0.00000000000E+00 0. -1.
         -3   -1    0    0    0  501 -0.00000000000E+00 -0.00000000000E+00 -0.11873720054E+03  0.11873720054E+03  0.00000000000E+00 0.  1.
         23    2    1    2    0    0 -0.10037898847E+03 -0.27613854070E+02  0.24043430676E+02  0.12729042405E+03  0.69183084868E+02 0.  0.
          5    1    1    2  502    0  0.67013451589E+02  0.65363231794E+02  0.56332629057E+02  0.10933431420E+03  0.41800000000E+01 0. -1.
         -5    1    1    2    0  502  0.33365536885E+02 -0.37749377724E+02 -0.24880486803E+02  0.56345235768E+02  0.41800000000E+01 0. -1.
        -11    1    3    3    0    0 -0.33061216715E+02 -0.76569708310E+01 -0.24563983785E+02  0.41893466702E+02  0.00000000000E+00 0.  1.
         11    1    3    3    0    0 -0.67317771759E+02 -0.19956883239E+02  0.48607414460E+02  0.85396957345E+02  0.00000000000E+00 0. -1.
</event>
<event>
 7    1  0.4274778E-006  0.1114655E+03  0.7561462E-02  0.1257880E+00
          2   -1    0    0  501    0  0.00000000000E+00  0.00000000000E+00  0.65494295315E+03  0.65494295315E+03  0.00000000000E+00 0. -1.
         -2   -1    0    0    0  501 -0.00000000000E+00 -0.00000000000E+00 -0.44135776769E+02  0.44135776769E+02  0.00000000000E+00 0.  1.
         23    2    1    2    0    0 -0.90603128839E+02  0.25302071735E+01  0.42080051075E+03  0.44036464955E+03  0.92911925087E+02 0.  0.
          5    1    1    2  502    0  0.86799979655E+02 -0.10584972985E+02  0.21484600452E+03  0.23199688830E+03  0.41800000000E+01 0. -1.
         -5    1    1    2    0  502  0.38031491843E+01  0.80547658116E+01 -0.24839338886E+02  0.26717192074E+02  0.41800000000E+01 0.  1.
        -11    1    3    3    0    0 -0.10794188850E+03 -0.52314218143E+00  0.39216948717E+03  0.40675377274E+03  0.00000000000E+00 0.  1.
         11    1    3    3    0    0  0.17338759660E+02  0.30533493549E+01  0.28631023577E+02  0.33610876810E+02  0.00000000000E+00 0. -1.
</event>
<event>
 7    1  0.4274778E-006  0.9872681E+02  0.7561462E-02  0.1282996E+00
         -1   -1    0    0    0  501 -0.00000000000E+00  0.00000000000E+00  0.15707964626E+03  0.15707964626E+03  0.00000000000E+00 0.  1.
          1   -1    0    0  501    0  0.00000000000E+00 -0.00000000000E+00 -0.99643332620E+02  0.99643332620E+02  0.00000000000E+00 0. -1.
         23    2    1    2    0    0  0.44302471116E+02  0.45440783538E+02  0.20912892402E+02  0.11178055001E+03  0.89610091708E+02 0.  0.
          5    1    1    2  502    0  0.24435420890E+02 -0.28537542576E+02 -0.29580889896E+02  0.47999818514E+02  0.41800000000E+01 0.  1.
         -5    1    1    2    0  502 -0.68737892006E+02 -0.16903240963E+02  0.66104311131E+02  0.96942610355E+02  0.41800000000E+01 0.  1.
        -11    1    3    3    0    0  0.43974192054E+02  0.59884356311E+02  0.42659711963E+02  0.85672146713E+02  0.00000000000E+00 0.  1.
         11    1    3    3    0    0  0.32827906172E+00 -0.14443572773E+02 -0.21746819561E+02  0.26108403295E+02  0.00000000000E+00 0. -1.
</event>
<event>
 7    1  0.4274778E-006  0.1418579E+03  0.7561462E-02  0.1210851E+00
          2   -1    0    0  501    0  0.00000000000E+00  0.00000000000E+00  0.59793192614E+02  0.59793192614E+02  0.00000000000E+00 0. -1.
         -2   -1    0    0    0  501 -0.00000000000E+00 -0.00000000000E+00 -0.37479008249E+03  0.37479008249E+03  0.00000000000E+00 0.  1.
         23    2    1    2    0    0 -0.99225169547E+02  0.24982075434E+02 -0.13901164519E+03  0.19564997186E+03  0.92113710296E+02 0.  0.
          5    1    1    2  502    0  0.53853638813E+02  0.40701245232E+02 -0.13043462850E+03  0.14692675212E+03  0.41800000000E+01 0.  1.
         -5    1    1    2    0  502  0.45371530734E+02 -0.65683320666E+02 -0.45550616181E+02  0.92006551122E+02  0.41800000000E+01 0.  1.
        -11    1    3    3    0    0  0.26301959588E+00  0.36040840693E+02 -0.24638733874E+02  0.43658659898E+02  0.00000000000E+00 0.  1.
         11    1    3    3    0    0 -0.99488189143E+02 -0.11058765259E+02 -0.11437291132E+03  0.15199131196E+03  0.00000000000E+00 0. -1.
</event>
<event>
 7    1  0.4274778E-006  0.1117086E+03  0.7561462E-02  0.1257438E+00
          1   -1    0    0  501    0  0.00000000000E+00  0.00000000000E+00  0.19746228807E+02  0.19746228807E+02  0.00000000000E+00 0. -1.
         -1   -1    0    0    0  501 -0.00000000000E+00 -0.00000000000E+00 -0.91118387192E+03  0.91118387192E+03  0.00000000000E+00 0.  1.
         23    2    1    2    0    0  0.58758166361E+02  0.29378094299E+02 -0.25350702402E+03  0.27753888266E+03  0.91904437465E+02 0.  0.
          5    1    1    2  502    0 -0.68379515766E+02 -0.66859003631E+02 -0.35047626933E+03  0.36331387574E+03  0.41800000000E+01 0.  1.
         -5    1    1    2    0  502  0.96213494055E+01  0.37480909333E+02 -0.28745434977E+03  0.29007734232E+03  0.41800000000E+01 0.  1.
        -11    1    3    3    0    0  0.21538420649E+02 -0.18315388287E+02 -0.16080545021E+02  0.32526004063E+02  0.00000000000E+00 0. -1.
         11    1    3    3    0    0  0.37219745712E+02  0.47693482585E+02 -0.23742647900E+03  0.24501287860E+03  0.00000000000E+00 0.  1.
</event>
<event>
 7    1  0.4274778E-006  0.1419337E+03  0.7561462E-02  0.1210750E+00
          1   -1    0    0  501    0  0.00000000000E+00  0.00000000000E+00  0.62410308367E+03  0.62410308367E+03  0.00000000000E+00 0. -1.
         -1   -1    0    0    0  501 -0.00000000000E+00 -0.00000000000E+00 -0.40278810003E+02  0.40278810003E+02  0.00000000000E+00 0.  1.
         23    2    1    2    0    0 -0.11572111613E+03 -0.59090696942E+01  0.24992798437E+03  0.28946704194E+03  0.88886878542E+02 0.  0.
          5    1    1    2  502    0  0.11946171518E+03 -0.36354385237E+02  0.21580517501E+03  0.24936336676E+03  0.41800000000E+01 0.  1.
         -5    1    1    2    0  502 -0.37405990509E+01  0.42263454931E+02  0.11809111430E+03  0.12555148498E+03  0.41800000000E+01 0.  1.
        -11    1    3    3    0    0 -0.39136942504E+02 -0.66881706078E+01  0.18453980561E+03  0.18876273930E+03  0.00000000000E+00 0. -1.
         11    1    3    3    0    0 -0.76584173630E+02  0.77910091355E+00  0.65388178758E+02  0.10070430264E+03  0.00000000000E+00 0.  1.
</event>
<event>
 7    1  0.4274778E-006  0.1908355E+03  0.7561462E-02  0.1157710E+00
          2   -1    0    0  501    0  0.00000000000E+00  0.00000000000E+00  0.10577466102E+03  0.10577466102E+03  0.00000000000E+00 0. -1.
         -2   -1    0    0    0  501 -0.00000000000E+00 -0.00000000000E+00 -0.41574440144E+03  0.41574440144E+03  0.00000000000E+00 0.  1.
         23    2    1    2    0    0 -0.75071620201E+02  0.15623881673E+03 -0.20476170301E+03  0.28330431282E+03  0.91036600505E+02 0.  0.
          5    1    1    2  502    0  0.81957284980E+02 -0.39596388860E+02 -0.19331319008E+02  0.93145278285E+02  0.41800000000E+01 0. -1.
         -5    1    1    2    0  502 -0.68856647797E+01 -0.11664242787E+03 -0.85876718400E+02  0.14506947136E+03  0.41800000000E+01 0. -1.
        -11    1    3    3    0    0 -0.90896469418E+01  0.27626997114E+02  0.40263443414E+01  0.29361268703E+02  0.00000000000E+00 0. -1.
         11    1    3    3    0    0 -0.65981973259E+02  0.12861181961E+03 -0.20878804735E+03  0.25394304412E+03  0.00000000000E+00 0.  1.
</event>
<event>
 7    1  0.4274778E-006  0.9483705E+02  0.7561462E-02  0.1291544E+00
         -1   -1    0    0    0  501 -0.00000000000E+00  0.00000000000E+00  0.97907529816E+02  0.97907529816E+02  0.00000000000E+00 0.  1.
          1   -1    0    0  501    0  0.00000000000E+00 -0.00000000000E+00 -0.14573473774E+03  0.14573473774E+03  0.00000000000E+00 0. -1.
         23    2    1    2    0    0 -0.49758974540E+02  0.12226610810E+01 -0.23238132171E+02  0.10678307742E+03  0.91570543244E+02 0.  0.
          5    1    1    2  502    0  0.65654818656E+02  0.13088911347E+02  0.33383569844E+02  0.74925362518E+02  0.41800000000E+01 0. -1.
         -5    1    1    2    0  502 -0.15895844115E+02 -0.14311572428E+02 -0.57972645593E+02  0.61933827611E+02  0.41800000000E+01 0. -1.
        -11    1    3    3    0    0  0.24177171097E+02  0.10362187412E+02  0.56065061891E+01  0.26895044932E+02  0.00000000000E+00 0.  1.
         11    1    3    3    0    0 -0.73936145638E+02 -0.91395263314E+01 -0.28844638361E+02  0.79888032492E+02  0.00000000000E+00 0. -1.
</event>
<event>
 7    1  0.4274778E-006  0.8690206E+02  0.7561462E-02  0.1310532E+00
         -2   -1    0    0    0  501 -0.00000000000E+00  0.00000000000E+00  0.10754002540E+03  0.10754002540E+03  0.00000000000E+00 0. -1.
          2   -1    0    0  501    0  0.00000000000E+00 -0.00000000000E+00 -0.17980765055E+03  0.17980765055E+03  0.00000000000E+00 0.  1.
         23    2    1    2    0    0  0.15661434341E+02  0.17321684949E+02 -0.11747977457E+03  0.15230385998E+03  0.94072562614E+02 0.  0.
          5    1    1    2  502    0 -0.36836123381E+02 -0.63525137007E+02  0.40151864070E+02  0.83797300707E+02  0.41800000000E+01 0.  1.
         -5    1    1    2    0  502  0.21174689040E+02  0.46203452057E+02  0.50602853606E+01  0.51246515256E+02  0.41800000000E+01 0.  1.
        -11    1    3    3    0    0  0.17541419381E+02 -0.11109392801E+02  0.90176817527E+01  0.22637106407E+02  0.00000000000E+00 0. -1.
         11    1    3    3    0    0 -0.18799850396E+01  0.28431077750E+02 -0.12649745633E+03  0.12966675358E+03  0.00000000000E+00 0.  1.
</event>
<event>
 7    1  0.4274778E-006  0.2113807E+03  0.7561462E-02  0.1140477E+00
         -2   -1    0    0    0  501 -0.00000000000E+00  0.00000000000E+00  0.29762160958E+02  0.29762160958E+02  0.00000000000E+00 0.  1.
          2   -1    0    0  501    0  0.00000000000E+00 -0.00000000000E+00 -0.16091810979E+04  0.16091810979E+04  0.00000000000E+00 0. -1.
         23    2    1    2    0    0  0.10670588187E+03 -0.14799189475E+03 -0.95533643047E+03  0.97681443435E+03  0.90614555327E+02 0.  0.
          5    1    1    2  502    0 -0.13005005554E+03  0.92791741691E+02 -0.48412311899E+03  0.50981956711E+03  0.41800000000E+01 0.  1.
         -5    1    1    2    0  502  0.23344173674E+02  0.55200153062E+02 -0.13995938747E+03  0.15230925738E+03  0.41800000000E+01 0.  1.
        -11    1    3    3    0    0  0.12187943600E+03 -0.12006900207E+03 -0.77054480452E+03  0.78931011519E+03  0.00000000000E+00 0.  1.
         11    1    3    3    0    0 -0.15173554133E+02 -0.27922892679E+02 -0.18479162596E+03  0.18750431916E+03  0.00000000000E+00 0. -1.
</event>
<event>
 7    1  0.4274778E-006  0.9794837E+02  0.7561462E-02  0.1284670E+00
         -1   -1    0    0    0  501 -0.00000000000E+00  0.00000000000E+00  0.63018480360E+02  0.63018480360E+02  0.00000000000E+00 0.  1.
          1   -1    0    0  501    0  0.00000000000E+00 -0.00000000000E+00 -0.21552380309E+03  0.21552380309E+03  0.00000000000E+00 0. -1.
         23    2    1    2    0    0 -0.27636302092E+02 -0.32601110515E+02 -0.50613381427E+02  0.11169770567E+03  0.89933672630E+02 0.  0.
          5    1    1    2  502    0  0.25929766672E+02  0.68996504680E+02 -0.19045417410E+02  0.76243496654E+02  0.41800000000E+01 0. -1.
         -5    1    1    2    0  502  0.17065354200E+01 -0.36395394166E+02 -0.82846523896E+02  0.90601081126E+02  0.41800000000E+01 0. -1.
        -11    1    3    3    0    0 -0.53019858551E+02 -0.26573821406E+02 -0.54707831249E+01  0.59558398676E+02  0.00000000000E+00 0.  1.
         11    1    3    3    0    0  0.25383556459E+02 -0.60272891083E+01 -0.45142598302E+02  0.52139306995E+02  0.00000000000E+00 0. -1.
</event>
<event>
 7    1  0.4274778E-006  0.1008055E+03  0.7561462E-02  0.1278611E+00
          2   -1    0    0  501    0  0.00000000000E+00  0.00000000000E+00  0.41819334781E+03  0.41819334781E+03  0.00000000000E+00 0.  1.
         -2   -1    0    0    0  501 -0.00000000000E+00 -0.00000000000E+00 -0.32413816442E+02  0.32413816442E+02  0.00000000000E+00 0. -1.
         23    2    1    2    0    0 -0.11507189130E+02  0.38539359195E+02  0.19274703925E+03  0.21709821262E+03  0.91446788765E+02 0.  0.
          5    1    1    2  502    0  0.52909545544E+02 -0.31960228924E+02  0.37607581148E+02  0.72475366866E+02  0.41800000000E+01 0.  1.
         -5    1    1    2    0  502 -0.41402356414E+02 -0.65791302713E+01  0.15542491097E+03  0.16103358476E+03  0.41800000000E+01 0.  1.
        -11    1    3    3    0    0 -0.54876487136E+00  0.67014022404E+02  0.10885573403E+03  0.12783094763E+03  0.00000000000E+00 0.  1.
         11    1    3    3    0    0 -0.10958424259E+02 -0.28474663209E+02  0.83891305221E+02  0.89267264989E+02  0.00000000000E+00 0. -1.
</event>
<event>
 7    1  0.4274778E-006  0.1149811E+03  0.7561462E-02  0.1251614E+00
          2   -1    0    0  501    0  0.00000000000E+00  0.00000000000E+00  0.26911472716E+03  0.26911472716E+03  0.00000000000E+00 0. -1.
         -2   -1    0    0    0  501 -0.00000000000E+00 -0.00000000000E+00 -0.66049425646E+02  0.66049425646E+02  0.00000000000E+00 0.  1.
         23    2    1    2    0    0 -0.24172299925E+02 -0.33998746438E+02  0.17256964157E+03  0.19981958982E+03  0.91691725050E+02 0.  0.
          5    1    1    2  502    0 -0.50024652616E+02  0.25098653522E+02  0.20887908516E+02  0.59884767680E+02  0.41800000000E+01 0.  1.
         -5    1    1    2    0  502  0.74196952540E+02  0.89000929162E+01  0.96077514318E+01  0.75459795307E+02  0.41800000000E+01 0.  1.
        -11    1    3    3    0    0 -0.58570447524E+02 -0.21771961977E+02  0.90275634303E+02  0.10979164722E+03  0.00000000000E+00 0. -1.
         11    1    3    3    0    0  0.34398147599E+02 -0.12226784461E+02  0.82294007264E+02  0.90027942596E+02  0.00000000000E+00 0.  1.
</event>
<event>
 7    1  0.4274778E-006  0.1290314E+03  0.7561462E-02  0.1228900E+00
         -1   -1    0    0    0  501 -0.00000000000E+00  0.00000000000E+00  0.56891927869E+02  0.56891927869E+02  0.00000000000E+00 0.  1.
          1   -1    0    0  501    0  0.00000000000E+00 -0.00000000000E+00 -0.37552589200E+03  0.37552589200E+03  0.00000000000E+00 0. -1.
         23    2    1    2    0    0  0.16378613062E+02  0.94586674199E+02 -0.17281337682E+03  0.21764835385E+03  0.91057371048E+02 0.  0.
          5    1    1    2  502    0  0.31331806209E+02 -0.93734664370E+01 -0.10282507800E+03  0.10798154018E+03  0.41800000000E+01 0.  1.
         -5    1    1    2    0  502 -0.47710419271E+02 -0.85213207762E+02 -0.42995509297E+02  0.10678792583E+03  0.41800000000E+01 0.  1.
        -11    1    3    3    0    0 -0.33823051211E+02  0.27734153125E+02 -0.89520911506E+02  0.99635212850E+02  0.00000000000E+00 0.  1.
         11    1    3    3    0    0  0.50201664273E+02  0.66852521074E+02 -0.83292465319E+02  0.11801314100E+03  0.00000000000E+00 0. -1.
</event>
<event>
 7    1  0.4274778E-006  0.8824264E+02  0.7561462E-02  0.1307164E+00
         -1   -1    0    0    0  501 -0.00000000000E+00  0.00000000000E+00  0.49701126334E+02  0.49701126334E+02  0.00000000000E+00 0.  1.
          1   -1    0    0  501    0  0.00000000000E+00 -0.00000000000E+00 -0.38629010660E+03  0.38629010660E+03  0.00000000000E+00 0. -1.
         23    2    1    2    0    0 -0.25235851050E+02  0.17255670258E+02 -0.27969888284E+03  0.29523441686E+03  0.89427565680E+02 0.  0.
          5    1    1    2  502    0 -0.35390237229E+02 -0.13819936613E+02 -0.68829214941E+02  0.78729872148E+02  0.41800000000E+01 0.  1.
         -5    1    1    2    0  502  0.60626088279E+02 -0.34357336455E+01  0.11939117514E+02  0.62026943925E+02  0.41800000000E+01 0.  1.
        -11    1    3    3    0    0  0.34760894169E+01  0.40380388321E+02 -0.59636046243E+02  0.72104902538E+02  0.00000000000E+00 0.  1.
         11    1    3    3    0    0 -0.28711940467E+02 -0.23124718063E+02 -0.22006283660E+03  0.22312951432E+03  0.00000000000E+00 0. -1.
</event>
<event>
 7    1  0.4274778E-006  0.1057766E+03  0.7561462E-02  0.1268597E+00
         -2   -1    0    0    0  501 -0.00000000000E+00  0.00000000000E+00  0.46381212278E+02  0.46381212278E+02  0.00000000000E+00 0.  1.
          2   -1    0    0  501    0  0.00000000000E+00 -0.00000000000E+00 -0.26872614473E+03  0.26872614473E+03  0.00000000000E+00 0. -1.
         23    2    1    2    0    0  0.68692676411E+01 -0.16960483605E+02 -0.11267383374E+03  0.14774539580E+03  0.93800129684E+02 0.  0.
          5    1    1    2  502    0 -0.11388949193E+02  0.70436772167E+02 -0.51427397356E+02  0.88052805950E+02  0.41800000000E+01 0. -1.
         -5    1    1    2    0  502  0.45196815516E+01 -0.53476288561E+02 -0.58243701359E+02  0.79309155257E+02  0.41800000000E+01 0. -1.
        -11    1    3    3    0    0 -0.35000118640E+02  0.10061643500E+02 -0.17697934603E+02  0.40490268756E+02  0.00000000000E+00 0. -1.
         11    1    3    3    0    0  0.41869386281E+02 -0.27022127105E+02 -0.94975899134E+02  0.10725512704E+03  0.00000000000E+00 0.  1.
</event>
<event>
 7    1  0.4274778E-006  0.9354979E+02  0.7561462E-02  0.1294476E+00
          2   -1    0    0  501    0  0.00000000000E+00  0.00000000000E+00  0.25066420769E+03  0.25066420769E+03  0.00000000000E+00 0. -1.
         -2   -1    0    0    0  501 -0.00000000000E+00 -0.00000000000E+00 -0.70001987919E+02  0.70001987919E+02  0.00000000000E+00 0.  1.
         23    2    1    2    0    0 -0.35022211961E+02  0.52818835712E+02  0.13307349160E+03  0.17258521873E+03  0.89781506000E+02 0.  0.
          5    1    1    2  502    0  0.70462703581E+02 -0.52311160363E+02 -0.91434151008E+00  0.87862156329E+02  0.41800000000E+01 0. -1.
         -5    1    1    2    0  502 -0.35440491620E+02 -0.50767534963E+00  0.48503069681E+02  0.60218820555E+02  0.41800000000E+01 0. -1.
        -11    1    3    3    0    0 -0.74493061161E+01  0.80003021925E+01 -0.13197560042E+02  0.17136878008E+02  0.00000000000E+00 0.  1.
         11    1    3    3    0    0 -0.27572905845E+02  0.44818533520E+02  0.14627105165E+03  0.15544834072E+03  0.00000000000E+00 0. -1.
</event>
<event>
 7    1  0.4274778E-006  0.1185400E+03  0.7561462E-02  0.1245525E+00
         -2   -1    0    0    0  501 -0.00000000000E+00  0.00000000000E+00  0.38126208109E+02  0.38126208109E+02  0.00000000000E+00 0.  1.
          2   -1    0    0  501    0  0.00000000000E+00 -0.00000000000E+00 -0.64633316408E+03  0.64633316408E+03  0.00000000000E+00 0. -1.
         23    2    1    2    0    0  0.44062100955E+02 -0.69208463303E+02 -0.44435700521E+03  0.46063249348E+03  0.89430787958E+02 0.  0.
          5    1    1    2  502    0  0.22273693961E+02  0.44091542105E+01 -0.11810483808E+03  0.12034028113E+03  0.41800000000E+01 0. -1.
         -5    1    1    2    0  502 -0.66335794917E+02  0.64799309092E+02 -0.45745112684E+02  0.10348659759E+03  0.41800000000E+01 0.  1.
        -11    1    3    3    0    0 -0.15302925777E+02 -0.58971025461E+02 -0.23658352906E+03  0.24430212361E+03  0.00000000000E+00 0. -1.
         11    1    3    3    0    0  0.59365026732E+02 -0.10237437841E+02 -0.20777347615E+03  0.21633036986E+03  0.00000000000E+00 0.  1.
</event>
<event>
 7    1  0.4274778E-006  0.1139415E+03  0.7561462E-02  0.1253440E+00
         -3   -1    0    0    0  501 -0.00000000000E+00  0.00000000000E+00  0.18222960429E+03  0.18222960429E+03  0.00000000000E+00 0.  1.
          3   -1    0    0  501    0  0.00000000000E+00 -0.00000000000E+00 -0.79067397786E+02  0.79067397786E+02  0.00000000000E+00 0. -1.
         23    2    1    2    0    0  0.52044410136E+02 -0.26321847013E+01  0.34781955352E+02  0.10951372711E+03  0.89821617575E+02 0.  0.
          5    1    1    2  502    0  0.21215949303E+02 -0.39710654639E+02  0.40308997094E+01  0.45395739328E+02  0.41800000000E+01 0. -1.
         -5    1    1    2    0  502 -0.73260359440E+02  0.42342839340E+02  0.64349351440E+02  0.10638753564E+03  0.41800000000E+01 0. -1.
        -11    1    3    3    0    0  0.72084427497E+02  0.12075216992E+02  0.41118199586E+02  0.83861086864E+02  0.00000000000E+00 0.  1.
         11    1    3    3    0    0 -0.20040017360E+02 -0.14707401693E+02 -0.63362442340E+01  0.25652640241E+02  0.00000000000E+00 0. -1.
</event>
<event>
 7    1  0.4274778E-006  0.1236706E+03  0.7561462E-02  0.1237162E+00
         -2   -1    0    0    0  501 -0.00000000000E+00  0.00000000000E+00  0.22975899011E+03  0.22975899011E+03  0.00000000000E+00 0.  1.
          2   -1    0    0  501    0  0.00000000000E+00 -0.00000000000E+00 -0.98550325356E+02  0.98550325356E+02  0.00000000000E+00 0. -1.
         23    2    1    2    0    0 -0.69760998298E+02 -0.16800651536E+02 -0.20952016507E+02  0.11866774612E+03  0.92163920264E+02 0.  0.
          5    1    1    2  502    0  0.43435378227E+02 -0.45815483814E+02  0.11707042026E+03  0.13307383792E+03  0.41800000000E+01 0.  1.
         -5    1    1    2    0  502  0.26325620071E+02  0.62616135350E+02  0.35090261001E+02  0.76567731424E+02  0.41800000000E+01 0.  1.
        -11    1    3    3    0    0 -0.21932711085E+02 -0.52129437881E+02 -0.17088918422E+02  0.59080904209E+02  0.00000000000E+00 0.  1.
         11    1    3    3    0    0 -0.47828287213E+02  0.35328786345E+02 -0.38630980849E+01  0.59586841913E+02  0.00000000000E+00 0. -1.
</event>
<event>
 7    1  0.4274778E-006  0.8703212E+02  0.7561462E-02  0.1310202E+00
          1   -1    0    0  501    0  0.00000000000E+00  0.00000000000E+00  0.40168880694E+03  0.40168880694E+03  0.00000000000E+00 0. -1.
         -1   -1    0    0    0  501 -0.00000000000E+00 -0.00000000000E+00 -0.29356810335E+02  0.29356810335E+02  0.00000000000E+00 0.  1.
         23    2    1    2    0    0 -0.83918069109E+01  0.14274697570E+01  0.17779524269E+03  0.19960790949E+03  0.90331108235E+02 0.  0.
          5    1    1    2  502    0 -0.17192282019E+02  0.50613979985E+02  0.14655413241E+03  0.15605427151E+03  0.41800000000E+01 0.  1.
         -5    1    1    2    0  502  0.25584088930E+02 -0.52041449742E+02  0.47982621506E+02  0.75383436272E+02  0.41800000000E+01 0.  1.
        -11    1    3    3    0    0 -0.35312754914E+02 -0.50134274608E+00  0.22255563489E+02  0.41743887101E+02  0.00000000000E+00 0.  1.
         11    1    3    3    0    0  0.26920948003E+02  0.19288125031E+01  0.15553967920E+03  0.15786402239E+03  0.00000000000E+00 0. -1.
</event>
<event>
 7    1  0.4274778E-006  0.1670359E+03  0.7561462E-02  0.1180975E+00
         -3   -1    0    0    0  501 -0.00000000000E+00  0.00000000000E+00  0.50306598301E+03  0.50306598301E+03  0.00000000000E+00 0.  1.
          3   -1    0    0  501    0  0.00000000000E+00 -0.00000000000E+00 -0.76059903508E+02  0.76059903508E+02  0.00000000000E+00 0. -1.
         23    2    1    2    0    0  0.16091452812E+03  0.23954023507E+02  0.17846926256E+03  0.25680825796E+03  0.87360878389E+02 0.  0.
          5    1    1    2  502    0 -0.41727697382E+02 -0.25020362723E+02  0.17617402628E+03  0.18281679139E+03  0.41800000000E+01 0. -1.
         -5    1    1    2    0  502 -0.11918683073E+03  0.10663392163E+01  0.72362790662E+02  0.13950083717E+03  0.41800000000E+01 0. -1.
        -11    1    3    3    0    0  0.17943610565E+02 -0.77238790314E+01  0.75003624241E+02  0.77505968265E+02  0.00000000000E+00 0.  1.
         11    1    3    3    0    0  0.14297091755E+03  0.31677902538E+02  0.10346563832E+03  0.17930228969E+03  0.00000000000E+00 0. -1.
</event>
<event>
 7    1  0.4274778E-006  0.1319916E+03  0.7561462E-02  0.1224530E+00
         -2   -1    0    0    0  501 -0.00000000000E+00  0.00000000000E+00  0.51975453148E+02  0.51975453148E+02  0.00000000000E+00 0.  1.
          2   -1    0    0  501    0  0.00000000000E+00 -0.00000000000E+00 -0.62277686700E+03  0.62277686700E+03  0.00000000000E+00 0. -1.
         23    2    1    2    0    0  0.64986709218E+02  0.10860367328E+03 -0.39391500605E+03  0.42384439822E+03  0.91962012159E+02 0.  0.
          5    1    1    2  502    0 -0.12493931569E+02 -0.17109726185E+02  0.18755499269E+02  0.28602136442E+02  0.41800000000E+01 0.  1.
         -5    1    1    2    0  502 -0.52492777650E+02 -0.91493947098E+02 -0.19564190707E+03  0.22230578549E+03  0.41800000000E+01 0.  1.
        -11    1    3    3    0    0  0.60749590345E+02  0.51725585970E+02 -0.12034275292E+03  0.14438984435E+03  0.00000000000E+00 0.  1.
         11    1    3    3    0    0  0.42371188731E+01  0.56878087314E+02 -0.27357225313E+03  0.27945455387E+03  0.00000000000E+00 0. -1.
</event>
<event>
 7    1  0.4274778E-006  0.1077747E+03  0.7561462E-02  0.1264747E+00
         -1   -1    0    0    0  501 -0.00000000000E+00  0.00000000000E+00  0.26320569896E+02  0.26320569896E+02  0.00000000000E+00 0.  1.
          1   -1    0    0  501    0  0.00000000000E+00 -0.00000000000E+00 -0.47912044538E+03  0.47912044538E+03  0.00000000000E+00 0. -1.
         23    2    1    2    0    0  0.20735078459E+01 -0.28509636156E+02 -0.22379287680E+03  0.24293466145E+03  0.90093835767E+02 0.  0.
          5    1    1    2  502    0 -0.40886390979E+02  0.59150021823E+02 -0.92346547247E+02  0.11711438527E+03  0.41800000000E+01 0.  1.
         -5    1    1    2    0  502  0.38812883133E+02 -0.30640385666E+02 -0.13666045144E+03  0.14539196855E+03  0.41800000000E+01 0.  1.
        -11    1    3    3    0    0 -0.42764023604E+02 -0.23457038467E+02 -0.10227393604E+03  0.11330910096E+03  0.00000000000E+00 0.  1.
         11    1    3    3    0    0  0.44837531450E+02 -0.50525976893E+01 -0.12151894076E+03  0.12962556049E+03  0.00000000000E+00 0. -1.
</event>
<event>
 7    1  0.4721722E-006  0.1781046E+03  0.7561462E-02  0.1169650E+00
         -1   -1    0    0    0  501 -0.00000000000E+00  0.00000000000E+00  0.21517436165E+03  0.21517436165E+03  0.00000000000E+00 0.  1.
          1   -1    0    0  501    0  0.00000000000E+00 -0.00000000000E+00 -0.17346147338E+03  0.17346147338E+03  0.00000000000E+00 0. -1.
         23    2    1    2    0    0 -0.24989924184E+02 -0.14888490029E+03 -0.32637643129E+02  0.17895352549E+03  0.90376649043E+02 0.  0.
          5    1    1    2  502    0 -0.45929262151E+02  0.37097588889E+02  0.44125606755E+02  0.73825942558E+02  0.41800000000E+01 0.  1.
         -5    1    1    2    0  502  0.70919186335E+02  0.11178731140E+03  0.30224924644E+02  0.13585636699E+03  0.41800000000E+01 0.  1.
        -11    1    3    3    0    0  0.14045101988E+02 -0.10459203844E+03  0.10182544539E+02  0.10602095834E+03  0.00000000000E+00 0.  1.
         11    1    3    3    0    0 -0.39035026172E+02 -0.44292861852E+02 -0.42820187667E+02  0.72932567150E+02  0.00000000000E+00 0. -1.
</event>
<event>
 7    1  0.4274778E-006  0.1341132E+03  0.7561462E-02  0.1221477E+00
          1   -1    0    0  501    0  0.00000000000E+00  0.00000000000E+00  0.40730565363E+03  0.40730565363E+03  0.00000000000E+00 0. -1.
         -1   -1    0    0    0  501 -0.00000000000E+00 -0.00000000000E+00 -0.10747556746E+03  0.10747556746E+03  0.00000000000E+00 0.  1.
         23    2    1    2    0    0 -0.46011730394E+02 -0.10341912420E+03  0.31305460046E+03  0.34556111929E+03  0.92718443216E+02 0.  0.
          5    1    1    2  502    0  0.77201167641E+02  0.89134668845E+02  0.21828840634E+02  0.11999575059E+03  0.41800000000E+01 0.  1.
         -5    1    1    2    0  502 -0.31189437247E+02  0.14284455354E+02 -0.35053354925E+02  0.49224351210E+02  0.41800000000E+01 0.  1.
        -11    1    3    3    0    0 -0.40748597574E+02 -0.63769798034E+02  0.28931628195E+03  0.29905007332E+03  0.00000000000E+00 0. -1.
         11    1    3    3    0    0 -0.52631328202E+01 -0.39649326165E+02  0.23738318508E+02  0.46511045978E+02  0.00000000000E+00 0.  1.
</event>
<event>
 7    1  0.4274778E-006  0.9791803E+02  0.7561462E-02  0.1284736E+00
         -2   -1    0    0    0  501 -0.00000000000E+00  0.00000000000E+00  0.52872939022E+03  0.52872939022E+03  0.00000000000E+00 0.  1.
          2   -1    0    0  501    0  0.00000000000E+00 -0.00000000000E+00 -0.33421502529E+02  0.33421502529E+02  0.00000000000E+00 0. -1.
         23    2    1    2    0    0  0.45438925353E+02 -0.53523747775E+02  0.17847691048E+03  0.21435950752E+03  0.95741858015E+02 0.  0.
          5    1    1    2  502    0 -0.43351712521E+02  0.29351061309E+02  0.31173022514E+02  0.61074425999E+02  0.41800000000E+01 0. -1.
         -5    1    1    2    0  502 -0.20872128318E+01  0.24172686466E+02  0.28565795470E+03  0.28671695923E+03  0.41800000000E+01 0. -1.
        -11    1    3    3    0    0  0.10271366448E+02  0.28046379879E+02  0.42831129831E+02  0.52216913693E+02  0.00000000000E+00 0. -1.
         11    1    3    3    0    0  0.35167558905E+02 -0.81570127654E+02  0.13564578065E+03  0.16214259382E+03  0.00000000000E+00 0.  1.
</event>
<event>
 7    1  0.4274778E-006  0.1192754E+03  0.7561462E-02  0.1244297E+00
         -2   -1    0    0    0  501 -0.00000000000E+00  0.00000000000E+00  0.51262618069E+02  0.51262618069E+02  0.00000000000E+00 0.  1.
          2   -1    0    0  501    0  0.00000000000E+00 -0.00000000000E+00 -0.31629221972E+03  0.31629221972E+03  0.00000000000E+00 0. -1.
         23    2    1    2    0    0  0.62536901918E+02 -0.22003077077E+02 -0.13033913010E+03  0.17214458055E+03  0.90832088345E+02 0.  0.
          5    1    1    2  502    0 -0.83974181096E+02  0.55813458915E+02 -0.89430489607E+02  0.13484098100E+03  0.41800000000E+01 0.  1.
         -5    1    1    2    0  502  0.21437279177E+02 -0.33810381838E+02 -0.45259981939E+02  0.60569276235E+02  0.41800000000E+01 0.  1.
        -11    1    3    3    0    0  0.26837500455E+02 -0.46776982277E+02 -0.11328124129E+03  0.12546305085E+03  0.00000000000E+00 0. -1.
         11    1    3    3    0    0  0.35699401463E+02  0.24773905199E+02 -0.17057888814E+02  0.46681529693E+02  0.00000000000E+00 0.  1.
</event>
<event>
 7    1  0.4274778E-006  0.8083888E+02  0.7561462E-02  0.1326688E+00
          1   -1    0    0  501    0  0.00000000000E+00  0.00000000000E+00  0.43391274390E+02  0.43391274390E+02  0.00000000000E+00 0. -1.
         -1   -1    0    0    0  501 -0.00000000000E+00 -0.00000000000E+00 -0.57617240652E+03  0.57617240652E+03  0.00000000000E+00 0.  1.
         23    2    1    2    0    0  0.45972518382E+02 -0.10825704526E+02 -0.36489515247E+02  0.10557544322E+03  0.87086285741E+02 0.  0.
          5    1    1    2  502    0  0.30965275147E+01 -0.41926158347E+02 -0.33025602655E+03  0.33294730321E+03  0.41800000000E+01 0. -1.
         -5    1    1    2    0  502 -0.49069045897E+02  0.52751862873E+02 -0.16603559033E+03  0.18104093448E+03  0.41800000000E+01 0. -1.
        -11    1    3    3    0    0  0.32906977101E+02 -0.69190022842E+01 -0.65439915537E+02  0.73573937505E+02  0.00000000000E+00 0.  1.
         11    1    3    3    0    0  0.13065541281E+02 -0.39067022415E+01  0.28950400290E+02  0.32001505719E+02  0.00000000000E+00 0. -1.
</event>
<event>
 7    1  0.4274778E-006  0.7791069E+02  0.7561462E-02  0.1335087E+00
         -2   -1    0    0    0  501 -0.00000000000E+00  0.00000000000E+00  0.23165594642E+03  0.23165594642E+03  0.00000000000E+00 0.  1.
          2   -1    0    0  501    0  0.00000000000E+00 -0.00000000000E+00 -0.80018066578E+02  0.80018066578E+02  0.00000000000E+00 0. -1.
         23    2    1    2    0    0  0.73022668421E+01 -0.11992213119E+02  0.41549246962E+01  0.92339858018E+02  0.91171539984E+02 0.  0.
          5    1    1    2  502    0  0.46342682246E+02  0.29890463421E+02 -0.60783629177E+01  0.55637243794E+02  0.41800000000E+01 0. -1.
         -5    1    1    2    0  502 -0.53644949088E+02 -0.17898250302E+02  0.15356131807E+03  0.16369691119E+03  0.41800000000E+01 0.  1.
        -11    1    3    3    0    0 -0.16096792790E+01 -0.26627289114E+02 -0.38233115249E+02  0.46619466906E+02  0.00000000000E+00 0.  1.
         11    1    3    3    0    0  0.89119461212E+01  0.14635075995E+02  0.42388039945E+02  0.45720391112E+02  0.00000000000E+00 0. -1.
</event>
<event>
 7    1  0.4274778E-006  0.1550158E+03  0.7561462E-02  0.1194442E+00
          3   -1    0    0  501    0  0.00000000000E+00  0.00000000000E+00  0.45639116747E+02  0.45639116747E+02  0.00000000000E+00 0. -1.
         -3   -1    0    0    0  501 -0.00000000000E+00 -0.00000000000E+00 -0.61219920365E+03  0.61219920365E+03  0.00000000000E+00 0.  1.
         23    2    1    2    0    0 -0.29930326891E+02 -0.17553447261E+02 -0.15524156053E+03  0.18626646496E+03  0.96908750239E+02 0.  0.
          5    1    1    2  502    0  0.62626332238E+02  0.10102696867E+03 -0.12960034938E+03  0.17590403306E+03  0.41800000000E+01 0. -1.
         -5    1    1    2    0  502 -0.32696005346E+02 -0.83473521410E+02 -0.28171817699E+03  0.29566782237E+03  0.41800000000E+01 0.  1.
        -11    1    3    3    0    0 -0.37971630092E+02  0.32910097332E+02 -0.93266040900E+02  0.10594089665E+03  0.00000000000E+00 0.  1.
         11    1    3    3    0    0  0.80413032009E+01 -0.50463544593E+02 -0.61975519632E+02  0.80325568306E+02  0.00000000000E+00 0. -1.
</event>
<event>
 7    1  0.4274778E-006  0.2752973E+03  0.7561462E-02  0.1098286E+00
         -2   -1    0    0    0  501 -0.00000000000E+00  0.00000000000E+00  0.11330824897E+03  0.11330824897E+03  0.00000000000E+00 0.  1.
          2   -1    0    0  501    0  0.00000000000E+00 -0.00000000000E+00 -0.76075500370E+03  0.76075500370E+03  0.00000000000E+00 0. -1.
         23    2    1    2    0    0 -0.11890637621E+03  0.23694214443E+03 -0.41252703745E+03  0.49840989266E+03  0.89182724594E+02 0.  0.
          5    1    1    2  502    0  0.84294204296E+02 -0.23408749438E+03 -0.16829820752E+03  0.30040676916E+03  0.41800000000E+01 0. -1.
         -5    1    1    2    0  502  0.34612171916E+02 -0.28546500463E+01 -0.66621509754E+02  0.75246590844E+02  0.41800000000E+01 0. -1.
        -11    1    3    3    0    0 -0.11232079013E+03  0.20115894846E+03 -0.28878028202E+03  0.36942513954E+03  0.00000000000E+00 0.  1.
         11    1    3    3    0    0 -0.65855860797E+01  0.35783195965E+02 -0.12374675544E+03  0.12898475313E+03  0.00000000000E+00 0. -1.
</event>
<event>
 7    1  0.4274778E-006  0.1171708E+03  0.7561462E-02  0.1247839E+00
          2   -1    0    0  501    0  0.00000000000E+00  0.00000000000E+00  0.75409906702E+03  0.75409906702E+03  0.00000000000E+00 0. -1.
         -2   -1    0    0    0  501 -0.00000000000E+00 -0.00000000000E+00 -0.18422378058E+02  0.18422378058E+02  0.00000000000E+00 0.  1.
         23    2    1    2    0    0 -0.49260681053E+02 -0.19555162280E+01  0.30121850289E+03  0.31774184608E+03  0.88299804779E+02 0.  0.
          5    1    1    2  502    0 -0.28050632739E+02 -0.37296320535E+02  0.12987925548E+03  0.13807225256E+03  0.41800000000E+01 0.  1.
         -5    1    1    2    0  502  0.77311313792E+02  0.39251836763E+02  0.30457893059E+03  0.31670734644E+03  0.41800000000E+01 0.  1.
        -11    1    3    3    0    0 -0.43479318645E+02  0.39549519355E+02  0.19035602731E+03  0.19922357482E+03  0.00000000000E+00 0. -1.
         11    1    3    3    0    0 -0.57813624081E+01 -0.41505035583E+02  0.11086247558E+03  0.11851827126E+03  0.00000000000E+00 0.  1.
</event>
<event>
 7    1  0.4274778E-006  0.9755589E+02  0.7561462E-02  0.1285521E+00
          1   -1    0    0  501    0  0.00000000000E+00  0.00000000000E+00  0.24851614996E+03  0.24851614996E+03  0.00000000000E+00 0. -1.
         -1   -1    0    0    0  501 -0.00000000000E+00 -0.00000000000E+00 -0.56940645641E+02  0.56940645641E+02  0.00000000000E+00 0.  1.
         23    2    1    2    0    0  0.37033491724E+02  0.30315365842E+02  0.94848948139E+02  0.14024593947E+03  0.91553807456E+02 0.  0.
          5    1    1    2  502    0 -0.37095733354E+02 -0.55604879867E+02  0.19209439942E+01  0.67001183004E+02  0.41800000000E+01 0.  1.
         -5    1    1    2    0  502  0.62241629324E-01  0.25289514025E+02  0.94805612182E+02  0.98209673122E+02  0.41800000000E+01 0.  1.
        -11    1    3    3    0    0  0.12669828553E+02  0.61579370436E+02  0.66508703293E+02  0.91520221987E+02  0.00000000000E+00 0.  1.
         11    1    3    3    0    0  0.24363663172E+02 -0.31264004594E+02  0.28340244845E+02  0.48725717484E+02  0.00000000000E+00 0. -1.
</event>
<event>
 7    1  0.4274778E-006  0.9223265E+02  0.7561462E-02  0.1297533E+00
          1   -1    0    0  501    0  0.00000000000E+00  0.00000000000E+00  0.66566454730E+03  0.66566454730E+03  0.00000000000E+00 0. -1.
         -1   -1    0    0    0  501 -0.00000000000E+00 -0.00000000000E+00 -0.25356741823E+02  0.25356741823E+02  0.00000000000E+00 0.  1.
         23    2    1    2    0    0  0.56930022943E+02 -0.32248186615E+02  0.35546239203E+03  0.37311240841E+03  0.92619566532E+02 0.  0.
          5    1    1    2  502    0  0.30257383053E+01 -0.31162305817E+01 -0.11760693503E+02  0.13215608083E+02  0.41800000000E+01 0.  1.
         -5    1    1    2    0  502 -0.59955761248E+02  0.35364417196E+02  0.29660610695E+03  0.30469327263E+03  0.41800000000E+01 0.  1.
        -11    1    3    3    0    0  0.74718279836E+02 -0.33799659860E+01  0.18960325560E+03  0.20382257001E+03  0.00000000000E+00 0.  1.
         11    1    3    3    0    0 -0.17788256893E+02 -0.28868220629E+02  0.16585913644E+03  0.16928983840E+03  0.00000000000E+00 0. -1.
</event>
<event>
 7    1  0.4274778E-006  0.1436592E+03  0.7561462E-02  0.1208488E+00
          2   -1    0    0  501    0  0.00000000000E+00  0.00000000000E+00  0.48266345544E+03  0.48266345544E+03  0.00000000000E+00 0. -1.
         -2   -1    0    0    0  501 -0.00000000000E+00 -0.00000000000E+00 -0.59767264672E+02  0.59767264672E+02  0.00000000000E+00 0.  1.
         23    2    1    2    0    0 -0.18670184995E+02 -0.10993483295E+03  0.30608314655E+03  0.33815005245E+03  0.90688048102E+02 0.  0.
          5    1    1    2  502    0  0.17492273192E+02  0.13168050401E+03  0.12318119780E+03  0.18120931171E+03  0.41800000000E+01 0.  1.
         -5    1    1    2    0  502  0.11779118024E+01 -0.21745671056E+02 -0.63681535757E+01  0.23071355961E+02  0.41800000000E+01 0.  1.
        -11    1    3    3    0    0  0.12994861969E+02 -0.97273529709E+02  0.15646932413E+03  0.18469882353E+03  0.00000000000E+00 0.  1.
         11    1    3    3    0    0 -0.31665046963E+02 -0.12661303242E+02  0.14961382242E+03  0.15345122892E+03  0.00000000000E+00 0. -1.
</event>
<event>
 7    1  0.4274778E-006  0.1066935E+03  0.7561462E-02  0.1266819E+00
          2   -1    0    0  501    0  0.00000000000E+00  0.00000000000E+00  0.18176298846E+03  0.18176298846E+03  0.00000000000E+00 0. -1.
         -2   -1    0    0    0  501 -0.00000000000E+00 -0.00000000000E+00 -0.23976322396E+03  0.23976322396E+03  0.00000000000E+00 0.  1.
         23    2    1    2    0    0 -0.31098949126E+01 -0.28526066987E+02  0.14980508574E+03  0.17728608895E+03  0.90362523621E+02 0.  0.
          5    1    1    2  502    0  0.17122086066E+02 -0.42660080143E+02 -0.38896141386E+02  0.60360835678E+02  0.41800000000E+01 0.  1.
         -5    1    1    2    0  502 -0.14012191153E+02  0.71186147129E+02 -0.16890917985E+03  0.18387928780E+03  0.41800000000E+01 0.  1.
        -11    1    3    3    0    0 -0.24503815736E+02 -0.55181723104E+02  0.89333914269E+02  0.10782396667E+03  0.00000000000E+00 0. -1.
         11    1    3    3    0    0  0.21393920824E+02  0.26655656117E+02  0.60471171473E+02  0.69462122273E+02  0.00000000000E+00 0.  1.
</event>
<event>
 7    1  0.4274778E-006  0.1538372E+03  0.7561462E-02  0.1195836E+00
          2   -1    0    0  501    0  0.00000000000E+00  0.00000000000E+00  0.10063371357E+04  0.10063371357E+04  0.00000000000E+00 0. -1.
         -2   -1    0    0    0  501 -0.00000000000E+00 -0.00000000000E+00 -0.29155861469E+02  0.29155861469E+02  0.00000000000E+00 0.  1.
         23    2    1    2    0    0  0.84752134334E+02  0.67710726784E+02  0.62534684140E+03  0.64119122283E+03  0.91103487238E+02 0.  0.
          5    1    1    2  502    0 -0.53200127391E+02 -0.10512782572E+03  0.30258615221E+03  0.32474292172E+03  0.41800000000E+01 0. -1.
         -5    1    1    2    0  502 -0.31552006943E+02  0.37417098935E+02  0.49248280632E+02  0.69558852637E+02  0.41800000000E+01 0.  1.
        -11    1    3    3    0    0  0.57931327341E+01 -0.21064285915E+02  0.12796162421E+03  0.12981310333E+03  0.00000000000E+00 0.  1.
         11    1    3    3    0    0  0.78959001600E+02  0.88775012698E+02  0.49738521720E+03  0.51137811950E+03  0.00000000000E+00 0. -1.
</event>
<event>
 7    1  0.4274778E-006  0.8753655E+02  0.7561462E-02  0.1308929E+00
         -2   -1    0    0    0  501 -0.00000000000E+00  0.00000000000E+00  0.19237480927E+02  0.19237480927E+02  0.00000000000E+00 0.  1.
          2   -1    0    0  501    0  0.00000000000E+00 -0.00000000000E+00 -0.86448789744E+03  0.86448789744E+03  0.00000000000E+00 0. -1.
         23    2    1    2    0    0  0.35766455339E+02 -0.53144708821E+02 -0.48274161983E+03  0.49492784003E+03  0.88377010105E+02 0.  0.
          5    1    1    2  502    0 -0.54985709932E+01  0.22021587040E+02 -0.33796263836E+03  0.33874976296E+03  0.41800000000E+01 0.  1.
         -5    1    1    2    0  502 -0.30267884346E+02  0.31123121781E+02 -0.24546158326E+02  0.50047775383E+02  0.41800000000E+01 0.  1.
        -11    1    3    3    0    0 -0.28185093334E+02 -0.27799200103E+02 -0.14892416873E+03  0.15409608380E+03  0.00000000000E+00 0.  1.
         11    1    3    3    0    0  0.63951548673E+02 -0.25345508718E+02 -0.33381745111E+03  0.34083175623E+03  0.00000000000E+00 0. -1.
</event>
<event>
 7    1  0.4274778E-006  0.1255450E+03  0.7561462E-02  0.1234220E+00
         -1   -1    0    0    0  501 -0.00000000000E+00  0.00000000000E+00  0.46481900470E+03  0.46481900470E+03  0.00000000000E+00 0.  1.
          1   -1    0    0  501    0  0.00000000000E+00 -0.00000000000E+00 -0.39096325233E+02  0.39096325233E+02  0.00000000000E+00 0. -1.
         23    2    1    2    0    0 -0.36242376267E+01  0.68748207426E+02  0.12391460699E+03  0.17003650562E+03  0.93904910911E+02 0.  0.
          5    1    1    2  502    0 -0.50823589226E+02 -0.61790462844E+02  0.12302012963E+03  0.14680777641E+03  0.41800000000E+01 0. -1.
         -5    1    1    2    0  502  0.54447826852E+02 -0.69577445824E+01  0.17878794284E+03  0.18707104791E+03  0.41800000000E+01 0. -1.
        -11    1    3    3    0    0  0.36313635016E+02  0.66687338832E+02  0.88578229643E+02  0.11667040762E+03  0.00000000000E+00 0.  1.
         11    1    3    3    0    0 -0.39937872643E+02  0.20608685938E+01  0.35336377350E+02  0.53366097991E+02  0.00000000000E+00 0. -1.
</event>
<event>
 7    1  0.4274778E-006  0.1155909E+03  0.7561462E-02  0.1250553E+00
          1   -1    0    0  501    0  0.00000000000E+00  0.00000000000E+00  0.48350296063E+02  0.48350296063E+02  0.00000000000E+00 0. -1.
         -1   -1    0    0    0  501 -0.00000000000E+00 -0.00000000000E+00 -0.40652153067E+03  0.40652153067E+03  0.00000000000E+00 0.  1.
         23    2    1    2    0    0 -0.48644297731E+02  0.65162041838E+02 -0.80753585865E+02  0.13987909865E+03  0.80203872794E+02 0.  0.
          5    1    1    2  502    0  0.10925631947E+02 -0.76503959796E+02 -0.71716008392E+02  0.10551248058E+03  0.41800000000E+01 0.  1.
         -5    1    1    2    0  502  0.37718665784E+02  0.11341917958E+02 -0.20570164035E+03  0.20948024750E+03  0.41800000000E+01 0.  1.
        -11    1    3    3    0    0 -0.47832931360E+02 -0.11664030936E+01 -0.35533463006E+02  0.59598463167E+02  0.00000000000E+00 0.  1.
         11    1    3    3    0    0 -0.81136637146E+00  0.66328444932E+02 -0.45220122859E+02  0.80280635485E+02  0.00000000000E+00 0. -1.
</event>
<event>
 7    1  0.4274778E-006  0.8844548E+02  0.7561462E-02  0.1306660E+00
         -2   -1    0    0    0  501 -0.00000000000E+00  0.00000000000E+00  0.12315757811E+03  0.12315757811E+03  0.00000000000E+00 0. -1.
          2   -1    0    0  501    0  0.00000000000E+00 -0.00000000000E+00 -0.15394376120E+03  0.15394376120E+03  0.00000000000E+00 0.  1.
         23    2    1    2    0    0 -0.88384327698E+00 -0.16172554712E+02 -0.94426410613E+02  0.13581911199E+03  0.96271238989E+02 0.  0.
          5    1    1    2  502    0  0.28468818111E+02  0.64319768370E+02  0.34082481595E+02  0.78272563261E+02  0.41800000000E+01 0. -1.
         -5    1    1    2    0  502 -0.27584974834E+02 -0.48147213658E+02  0.29557745928E+02  0.63009664052E+02  0.41800000000E+01 0. -1.
        -11    1    3    3    0    0  0.23344111272E+02 -0.40598224606E+01 -0.10432353232E+03  0.10698050797E+03  0.00000000000E+00 0.  1.
         11    1    3    3    0    0 -0.24227954549E+02 -0.12112732251E+02  0.98971217044E+01  0.28838604027E+02  0.00000000000E+00 0. -1.
</event>
<event>
 7    1  0.4274778E-006  0.1002792E+03  0.7561462E-02  0.1279710E+00
         -2   -1    0    0    0  501 -0.00000000000E+00  0.00000000000E+00  0.10642703222E+03  0.10642703222E+03  0.00000000000E+00 0.  1.
          2   -1    0    0  501    0  0.00000000000E+00 -0.00000000000E+00 -0.16242499277E+03  0.16242499277E+03  0.00000000000E+00 0. -1.
         23    2    1    2    0    0 -0.52416397575E+02  0.79743334656E+01 -0.77435129282E+02  0.13130678494E+03  0.91837921340E+02 0.  0.
          5    1    1    2  502    0  0.92034357078E+02 -0.19816263062E+02  0.16870073863E+02  0.95734418872E+02  0.41800000000E+01 0. -1.
         -5    1    1    2    0  502 -0.39617959503E+02  0.11841929596E+02  0.45670948725E+01  0.41810821175E+02  0.41800000000E+01 0. -1.
        -11    1    3    3    0    0 -0.47901448494E+02 -0.76405713094E+01  0.36162397483E+01  0.48641590102E+02  0.00000000000E+00 0.  1.
         11    1    3    3    0    0 -0.45149490811E+01  0.15614904775E+02 -0.81051369030E+02  0.82665194841E+02  0.00000000000E+00 0. -1.
</event>
<event>
 7    1  0.4274778E-006  0.1364560E+03  0.7561462E-02  0.1218179E+00
          2   -1    0    0  501    0  0.00000000000E+00  0.00000000000E+00  0.89345372829E+03  0.89345372829E+03  0.00000000000E+00 0. -1.
         -2   -1    0    0    0  501 -0.00000000000E+00 -0.00000000000E+00 -0.26666875479E+02  0.26666875479E+02  0.00000000000E+00 0.  1.
         23    2    1    2    0    0  0.86455069146E+02  0.42276686294E+02  0.54996593476E+03  0.56616754281E+03  0.93922095132E+02 0.  0.
          5    1    1    2  502    0 -0.72422092107E+02 -0.76788315293E+02  0.28770605064E+03  0.30648596830E+03  0.41800000000E+01 0.  1.
         -5    1    1    2    0  502 -0.14032977039E+02  0.34511628999E+02  0.29114867410E+02  0.47467092654E+02  0.41800000000E+01 0.  1.
        -11    1    3    3    0    0  0.73067777456E+02 -0.11856219184E+02  0.23762403377E+03  0.24888682460E+03  0.00000000000E+00 0.  1.
         11    1    3    3    0    0  0.13387291690E+02  0.54132905479E+02  0.31234190099E+03  0.31728071821E+03  0.00000000000E+00 0. -1.
</event>
<event>
 7    1  0.4274778E-006  0.1157500E+03  0.7561462E-02  0.1250278E+00
         -2   -1    0    0    0  501 -0.00000000000E+00  0.00000000000E+00  0.77710962858E+02  0.77710962858E+02  0.00000000000E+00 0.  1.
          2   -1    0    0  501    0  0.00000000000E+00 -0.00000000000E+00 -0.24615652632E+03  0.24615652632E+03  0.00000000000E+00 0. -1.
         23    2    1    2    0    0 -0.41043328609E+01  0.56367890195E+02 -0.15089243105E+03  0.18548424222E+03  0.91878690502E+02 0.  0.
          5    1    1    2  502    0  0.43708069570E+01 -0.94472320395E+02  0.33413997903E+01  0.94724656910E+02  0.41800000000E+01 0. -1.
         -5    1    1    2    0  502 -0.26647409616E+00  0.38104430200E+02 -0.20894532198E+02  0.43658590049E+02  0.41800000000E+01 0. -1.
        -11    1    3    3    0    0 -0.93358377758E+01 -0.19937872046E+02 -0.80263755309E+01  0.23432868217E+02  0.00000000000E+00 0.  1.
         11    1    3    3    0    0  0.52315049149E+01  0.76305762241E+02 -0.14286605552E+03  0.16205137400E+03  0.00000000000E+00 0. -1.
</event>
<event>
 7    1  0.4274778E-006  0.1015759E+03  0.7561462E-02  0.1277016E+00
         -1   -1    0    0    0  501 -0.00000000000E+00  0.00000000000E+00  0.21437761612E+03  0.21437761612E+03  0.00000000000E+00 0.  1.
          1   -1    0    0  501    0  0.00000000000E+00 -0.00000000000E+00 -0.79640339976E+02  0.79640339976E+02  0.00000000000E+00 0. -1.
         23    2    1    2    0    0 -0.72486118033E+02 -0.13988027757E+02  0.56809985549E+02  0.12918814043E+03  0.89511445874E+02 0.  0.
          5    1    1    2  502    0  0.52321838711E+02  0.47728614106E+02  0.97613196161E+02  0.12067064214E+03  0.41800000000E+01 0. -1.
         -5    1    1    2    0  502  0.20164279322E+02 -0.33740586349E+02 -0.19685905568E+02  0.44159173518E+02  0.41800000000E+01 0. -1.
        -11    1    3    3    0    0 -0.40532022205E+02 -0.35728114844E+02  0.69931714765E+02  0.88373003481E+02  0.00000000000E+00 0.  1.
         11    1    3    3    0    0 -0.31954095828E+02  0.21740087087E+02 -0.13121729216E+02  0.40815136952E+02  0.00000000000E+00 0. -1.
</event>
<event>
 7    1  0.4274778E-006  0.1420304E+03  0.7561462E-02  0.1210623E+00
          1   -1    0    0  501    0  0.00000000000E+00  0.00000000000E+00  0.39331769490E+03  0.39331769490E+03  0.00000000000E+00 0. -1.
         -1   -1    0    0    0  501 -0.00000000000E+00 -0.00000000000E+00 -0.57250214964E+02  0.57250214964E+02  0.00000000000E+00 0.  1.
         23    2    1    2    0    0  0.92167528919E+02 -0.37766146471E+02  0.18205735078E+03  0.22645220655E+03  0.90634362529E+02 0.  0.
          5    1    1    2  502    0  0.15027132899E+02 -0.24751891939E+02  0.65188969694E+02  0.71453096837E+02  0.41800000000E+01 0. -1.
         -5    1    1    2    0  502 -0.10719466182E+03  0.62518038411E+02  0.88821159466E+02  0.15266260648E+03  0.41800000000E+01 0.  1.
        -11    1    3    3    0    0  0.39043882029E+02  0.26554426640E+02  0.40813732401E+02  0.62412523188E+02  0.00000000000E+00 0.  1.
         11    1    3    3    0    0  0.53123646890E+02 -0.64320573112E+02  0.14124361838E+03  0.16403968336E+03  0.00000000000E+00 0. -1.
</event>
<event>
 7    1  0.4274778E-006  0.9422308E+02  0.7561462E-02  0.1292936E+00
          1   -1    0    0  501    0  0.00000000000E+00  0.00000000000E+00  0.39347936674E+02  0.39347936674E+02  0.00000000000E+00 0. -1.
         -1   -1    0    0    0  501 -0.00000000000E+00 -0.00000000000E+00 -0.43178463714E+03  0.43178463714E+03  0.00000000000E+00 0.  1.
         23    2    1    2    0    0 -0.56828920148E+02 -0.96519521053E+01 -0.96236959477E+02  0.14448259962E+03  0.91054834466E+02 0.  0.
          5    1    1    2  502    0  0.73857538963E+02  0.39658264283E+02 -0.27105600838E+03  0.28375437630E+03  0.41800000000E+01 0.  1.
         -5    1    1    2    0  502 -0.17028618815E+02 -0.30006312178E+02 -0.25143732603E+02  0.42895597891E+02  0.41800000000E+01 0.  1.
        -11    1    3    3    0    0 -0.24488296550E+02  0.15330034374E+02  0.10066733133E+02  0.30594537712E+02  0.00000000000E+00 0. -1.
         11    1    3    3    0    0 -0.32340623598E+02 -0.24981986479E+02 -0.10630369261E+03  0.11388806191E+03  0.00000000000E+00 0.  1.
</event>
<event>
 7    1  0.4274778E-006  0.1964213E+03  0.7561462E-02  0.1152794E+00
         -1   -1    0    0    0  501 -0.00000000000E+00  0.00000000000E+00  0.30951057043E+02  0.30951057043E+02  0.00000000000E+00 0.  1.
          1   -1    0    0  501    0  0.00000000000E+00 -0.00000000000E+00 -0.15272033014E+04  0.15272033014E+04  0.00000000000E+00 0. -1.
         23    2    1    2    0    0 -0.50874569818E+02 -0.11774557305E+03 -0.75156373954E+03  0.76794452567E+03  0.91861298150E+02 0.  0.
          5    1    1    2  502    0 -0.70077427140E+02  0.89921834695E+02 -0.53048784611E+03  0.54261552634E+03  0.41800000000E+01 0. -1.
         -5    1    1    2    0  502  0.12095199696E+03  0.27823738360E+02 -0.21420065867E+03  0.24759430640E+03  0.41800000000E+01 0.  1.
        -11    1    3    3    0    0 -0.71941566334E+02 -0.11134318233E+03 -0.68855000222E+03  0.70119469392E+03  0.00000000000E+00 0.  1.
         11    1    3    3    0    0  0.21066996516E+02 -0.64023907293E+01 -0.63013737312E+02  0.66749831755E+02  0.00000000000E+00 0. -1.
</event>
<event>
 7    1  0.4274778E-006  0.7373359E+02  0.7561462E-02  0.1347838E+00
         -3   -1    0    0    0  501 -0.00000000000E+00  0.00000000000E+00  0.41237363346E+03  0.41237363346E+03  0.00000000000E+00 0.  1.
          3   -1    0    0  501    0  0.00000000000E+00 -0.00000000000E+00 -0.35793565051E+02  0.35793565051E+02  0.00000000000E+00 0. -1.
         23    2    1    2    0    0 -0.16061707558E+01 -0.22111091447E+02  0.68907683294E+02  0.11529787756E+03  0.89743253805E+02 0.  0.
          5    1    1    2  502    0 -0.37675180870E+02 -0.10484421419E+02  0.27344184946E+02  0.47901139824E+02  0.41800000000E+01 0.  1.
         -5    1    1    2    0  502  0.39281351626E+02  0.32595512867E+02  0.28032820017E+03  0.28496818112E+03  0.41800000000E+01 0.  1.
        -11    1    3    3    0    0  0.24107455484E+02 -0.18361476788E+01  0.77714784515E+02  0.81388749717E+02  0.00000000000E+00 0.  1.
         11    1    3    3    0    0 -0.25713626240E+02 -0.20274943769E+02 -0.88071012215E+01  0.33909127844E+02  0.00000000000E+00 0. -1.
</event>
<event>
 7    1  0.4274778E-006  0.9982544E+02  0.7561462E-02  0.1280663E+00
         -3   -1    0    0    0  501 -0.00000000000E+00  0.00000000000E+00  0.28801759222E+03  0.28801759222E+03  0.00000000000E+00 0.  1.
          3   -1    0    0  501    0  0.00000000000E+00 -0.00000000000E+00 -0.52540612777E+02  0.52540612777E+02  0.00000000000E+00 0. -1.
         23    2    1    2    0    0  0.18314007651E+02 -0.16373623161E+02  0.21192546770E+02  0.91220627183E+02  0.85255969722E+02 0.  0.
          5    1    1    2  502    0  0.98289290970E+01  0.67812654651E+02  0.11198048656E+03  0.13134788063E+03  0.41800000000E+01 0.  1.
         -5    1    1    2    0  502 -0.28142936748E+02 -0.51439031490E+02  0.10230394612E+03  0.11798969718E+03  0.41800000000E+01 0.  1.
        -11    1    3    3    0    0  0.41257847891E+02 -0.24374662976E+02 -0.12646810825E+02  0.49560831630E+02  0.00000000000E+00 0. -1.
         11    1    3    3    0    0 -0.22943840240E+02  0.80010398144E+01  0.33839357595E+02  0.41659795553E+02  0.00000000000E+00 0.  1.
</event>
<event>
 7    1  0.4274778E-006  0.1464894E+03  0.7561462E-02  0.1204854E+00
          2   -1    0    0  501    0  0.00000000000E+00  0.00000000000E+00  0.50801351450E+03  0.50801351450E+03  0.00000000000E+00 0. -1.
         -2   -1    0    0    0  501 -0.00000000000E+00 -0.00000000000E+00 -0.71617495656E+02  0.71617495656E+02  0.00000000000E+00 0.  1.
         23    2    1    2    0    0 -0.54699392251E+02  0.11746502082E+03  0.14737433972E+03  0.21517528485E+03  0.88267505755E+02 0.  0.
          5    1    1    2  502    0  0.46840049759E+02 -0.47749464949E+02  0.28638772288E+03  0.29412480664E+03  0.41800000000E+01 0. -1.
         -5    1    1    2    0  502  0.78593424924E+01 -0.69715555874E+02  0.26339562434E+01  0.70330918668E+02  0.41800000000E+01 0.  1.
        -11    1    3    3    0    0 -0.19845487174E+02  0.11914302516E+03  0.10310234579E+03  0.15880490393E+03  0.00000000000E+00 0. -1.
         11    1    3    3    0    0 -0.34853905077E+02 -0.16780043420E+01  0.44271993934E+02  0.56370380915E+02  0.00000000000E+00 0.  1.
</event>
<event>
 7    1  0.4274778E-006  0.1146049E+03  0.7561462E-02  0.1252272E+00
         -2   -1    0    0    0  501 -0.00000000000E+00  0.00000000000E+00  0.60379692075E+02  0.60379692075E+02  0.00000000000E+00 0.  1.
          2   -1    0    0  501    0  0.00000000000E+00 -0.00000000000E+00 -0.22509272262E+03  0.22509272262E+03  0.00000000000E+00 0. -1.
         23    2    1    2    0    0 -0.30674936127E+02 -0.85601761473E+01 -0.69506835544E+02  0.11893228949E+03  0.91101377456E+02 0.  0.
          5    1    1    2  502    0 -0.49169187032E+02 -0.16181808633E+02 -0.46483521456E+02  0.69696843910E+02  0.41800000000E+01 0. -1.
         -5    1    1    2    0  502  0.79844123159E+02  0.24741984780E+02 -0.48722673541E+02  0.96843281290E+02  0.41800000000E+01 0.  1.
        -11    1    3    3    0    0  0.26562743541E+02  0.16316359692E+02 -0.10101040039E+02  0.32769405669E+02  0.00000000000E+00 0.  1.
         11    1    3    3    0    0 -0.57237679668E+02 -0.24876535839E+02 -0.59405795506E+02  0.86162883824E+02  0.00000000000E+00 0. -1.
</event>
<event>
 7    1  0.4274778E-006  0.9266812E+02  0.7561462E-02  0.1296516E+00
          2   -1    0    0  501    0  0.00000000000E+00  0.00000000000E+00  0.29737960783E+03  0.29737960783E+03  0.00000000000E+00 0. -1.
         -2   -1    0    0    0  501 -0.00000000000E+00 -0.00000000000E+00 -0.90984582100E+02  0.90984582100E+02  0.00000000000E+00 0.  1.
         23    2    1    2    0    0  0.58980227275E+02 -0.13399696573E+02  0.22339243080E+03  0.24838666401E+03  0.90186127763E+02 0.  0.
          5    1    1    2  502    0 -0.77112167299E+02  0.25462898326E+02 -0.53450502331E+02  0.97309167791E+02  0.41800000000E+01 0.  1.
         -5    1    1    2    0  502  0.18131940024E+02 -0.12063201753E+02  0.36453097258E+02  0.42668358127E+02  0.41800000000E+01 0.  1.
        -11    1    3    3    0    0  0.41025759848E+01  0.18107481203E+02  0.26515627331E+01  0.18754807121E+02  0.00000000000E+00 0.  1.
         11    1    3    3    0    0  0.54877651291E+02 -0.31507177776E+02  0.22074086807E+03  0.22963185689E+03  0.00000000000E+00 0. -1.
</event>
<event>
 7    1  0.4274778E-006  0.2995037E+03  0.7561462E-02  0.1085489E+00
         -1   -1    0    0    0  501 -0.00000000000E+00  0.00000000000E+00  0.34500593133E+03  0.34500593133E+03  0.00000000000E+00 0.  1.
          1   -1    0    0  501    0  0.00000000000E+00 -0.00000000000E+00 -0.32397226565E+03  0.32397226565E+03  0.00000000000E+00 0. -1.
         23    2    1    2    0    0  0.95182412462E+02 -0.27727205916E+03 -0.79009610575E+02  0.31678723155E+03  0.90399917468E+02 0.  0.
          5    1    1    2  502    0 -0.72106816024E+02  0.27148859815E+03  0.13340934586E+03  0.31099996432E+03  0.41800000000E+01 0. -1.
         -5    1    1    2    0  502 -0.23075596438E+02  0.57834610080E+01 -0.33366069607E+02  0.41191001119E+02  0.41800000000E+01 0.  1.
        -11    1    3    3    0    0  0.91156558318E+02 -0.24517143500E+03 -0.97939470861E+02  0.27930393949E+03  0.00000000000E+00 0.  1.
         11    1    3    3    0    0  0.40258541444E+01 -0.32100624158E+02  0.18929860286E+02  0.37483292056E+02  0.00000000000E+00 0. -1.
</event>
<event>
 7    1  0.4274778E-006  0.1798054E+03  0.7561462E-02  0.1167992E+00
          2   -1    0    0  501    0  0.00000000000E+00  0.00000000000E+00  0.23409860940E+03  0.23409860940E+03  0.00000000000E+00 0. -1.
         -2   -1    0    0    0  501 -0.00000000000E+00 -0.00000000000E+00 -0.15216771295E+03  0.15216771295E+03  0.00000000000E+00 0.  1.
         23    2    1    2    0    0 -0.13568873311E+03  0.76184108858E+02  0.29484884724E+02  0.17983542996E+03  0.85181997551E+02 0.  0.
          5    1    1    2  502    0  0.48552990299E+02 -0.96480474331E+02  0.43148920216E+02  0.11638374676E+03  0.41800000000E+01 0. -1.
         -5    1    1    2    0  502  0.87135742807E+02  0.20296365473E+02  0.92970915062E+01  0.90047145632E+02  0.41800000000E+01 0. -1.
        -11    1    3    3    0    0 -0.99493686514E+02  0.76907897808E+02 -0.10142169095E+02  0.12616133320E+03  0.00000000000E+00 0.  1.
         11    1    3    3    0    0 -0.36195046593E+02 -0.72378894990E+00  0.39627053819E+02  0.53674096757E+02  0.00000000000E+00 0. -1.
</event>
<event>
 7    1  0.4274778E-006  0.9652457E+02  0.7561462E-02  0.1287779E+00
          1   -1    0    0  501    0  0.00000000000E+00  0.00000000000E+00  0.68751345737E+02  0.68751345737E+02  0.00000000000E+00 0. -1.
         -1   -1    0    0    0  501 -0.00000000000E+00 -0.00000000000E+00 -0.26641559339E+03  0.26641559339E+03  0.00000000000E+00 0.  1.
         23    2    1    2    0    0  0.27395483227E+02 -0.14388145391E+01  0.50651710647E+01  0.95377689123E+02  0.91206715410E+02 0.  0.
          5    1    1    2  502    0 -0.75375583827E+02  0.17046984407E+02 -0.12551539251E+03  0.14745733102E+03  0.41800000000E+01 0. -1.
         -5    1    1    2    0  502  0.47980100600E+02 -0.15608169867E+02 -0.77214026202E+02  0.92331918980E+02  0.41800000000E+01 0. -1.
        -11    1    3    3    0    0  0.46166122425E+02  0.40733066517E+00 -0.30351959947E+02  0.55251409490E+02  0.00000000000E+00 0.  1.
         11    1    3    3    0    0 -0.18770639199E+02 -0.18461452043E+01  0.35417131011E+02  0.40126279632E+02  0.00000000000E+00 0. -1.
</event>
<event>
 7    1  0.4274778E-006  0.1131351E+03  0.7561462E-02  0.1254872E+00
         -1   -1    0    0    0  501 -0.00000000000E+00  0.00000000000E+00  0.24976461748E+02  0.24976461748E+02  0.00000000000E+00 0.  1.
          1   -1    0    0  501    0  0.00000000000E+00 -0.00000000000E+00 -0.56560197830E+03  0.56560197830E+03  0.00000000000E+00 0. -1.
         23    2    1    2    0    0  0.19344470814E+02 -0.31187667532E+02 -0.31456375332E+03  0.32962310099E+03  0.91401064816E+02 0.  0.
          5    1    1    2  502    0 -0.55604582935E+02 -0.25140134345E+02 -0.84796425038E+02  0.10455525858E+03  0.41800000000E+01 0. -1.
         -5    1    1    2    0  502  0.36260112121E+02  0.56327801877E+02 -0.14126533819E+03  0.15640008046E+03  0.41800000000E+01 0. -1.
        -11    1    3    3    0    0 -0.36671848235E+02 -0.15490645855E+02 -0.11164506371E+03  0.11853018524E+03  0.00000000000E+00 0. -1.
         11    1    3    3    0    0  0.56016319049E+02 -0.15697021677E+02 -0.20291868961E+03  0.21109291575E+03  0.00000000000E+00 0.  1.
</event>
<event>
 7    1  0.4274778E-006  0.1833428E+03  0.7561462E-02  0.1164607E+00
          2   -1    0    0  501    0  0.00000000000E+00  0.00000000000E+00  0.33258788622E+03  0.33258788622E+03  0.00000000000E+00 0. -1.
         -2   -1    0    0    0  501 -0.00000000000E+00 -0.00000000000E+00 -0.10660568052E+03  0.10660568052E+03  0.00000000000E+00 0.  1.
         23    2    1    2    0    0  0.31837999871E+02 -0.14582657157E+03  0.87190581001E+02  0.19557865674E+03  0.91486427106E+02 0.  0.
          5    1    1    2  502    0 -0.77165149254E+02  0.74356845860E+02  0.11123411933E+03  0.15451181990E+03  0.41800000000E+01 0. -1.
         -5    1    1    2    0  502  0.45327149384E+02  0.71469725706E+02  0.27557505370E+02  0.89103090104E+02  0.41800000000E+01 0.  1.
        -11    1    3    3    0    0 -0.34102214521E+01 -0.13870696038E+03  0.74206649029E+02  0.15734636071E+03  0.00000000000E+00 0.  1.
         11    1    3    3    0    0  0.35248221323E+02 -0.71196111833E+01  0.12983931972E+02  0.38232296024E+02  0.00000000000E+00 0. -1.
</event>
<event>
 7    1  0.4274778E-006  0.1454327E+03  0.7561462E-02  0.1206200E+00
         -2   -1    0    0    0  501 -0.00000000000E+00  0.00000000000E+00  0.38857824835E+02  0.38857824835E+02  0.00000000000E+00 0.  1.
          2   -1    0    0  501    0  0.00000000000E+00 -0.00000000000E+00 -0.56823179770E+03  0.56823179770E+03  0.00000000000E+00 0. -1.
         23    2    1    2    0    0  0.59751638428E+02  0.77292402009E+02 -0.30326778288E+03  0.33083519524E+03  0.89085377987E+02 0.  0.
          5    1    1    2  502    0 -0.79346121121E+02 -0.61099392451E+00 -0.11187026156E+03  0.13721737525E+03  0.41800000000E+01 0.  1.
         -5    1    1    2    0  502  0.19594482693E+02 -0.76681408084E+02 -0.11423592842E+03  0.13903705204E+03  0.41800000000E+01 0.  1.
        -11    1    3    3    0    0  0.82462885434E+02  0.70374094676E+02 -0.25261150041E+03  0.27489127089E+03  0.00000000000E+00 0.  1.
         11    1    3    3    0    0 -0.22711247006E+02  0.69183073327E+01 -0.50656282474E+02  0.55943924344E+02  0.00000000000E+00 0. -1.
</event>
<event>
 7    1  0.4274778E-006  0.1043964E+03  0.7561462E-02  0.1271313E+00
         -4   -1    0    0    0  501 -0.00000000000E+00  0.00000000000E+00  0.30756076974E+02  0.30756076974E+02  0.00000000000E+00 0.  1.
          4   -1    0    0  501    0  0.00000000000E+00 -0.00000000000E+00 -0.60100342807E+03  0.60100342807E+03  0.00000000000E+00 0. -1.
         23    2    1    2    0    0  0.28996558354E+02 -0.63465302050E+02 -0.34597611374E+03  0.36565055810E+03  0.95562620278E+02 0.  0.
          5    1    1    2  502    0 -0.37315836353E+02  0.95570335057E+02 -0.19993340912E+03  0.22475987424E+03  0.41800000000E+01 0.  1.
         -5    1    1    2    0  502  0.83192779989E+01 -0.32105033007E+02 -0.24337828236E+02  0.41349072711E+02  0.41800000000E+01 0.  1.
        -11    1    3    3    0    0  0.31467216088E+02 -0.50630059244E+02 -0.34742276139E+03  0.35249987762E+03  0.00000000000E+00 0. -1.
         11    1    3    3    0    0 -0.24706577341E+01 -0.12835242806E+02  0.14466476521E+01  0.13150680475E+02  0.00000000000E+00 0.  1.
</event>
<event>
 7    1  0.4274778E-006  0.8437130E+02  0.7561462E-02  0.1317085E+00
          1   -1    0    0  501    0  0.00000000000E+00  0.00000000000E+00  0.12183143989E+03  0.12183143989E+03  0.00000000000E+00 0. -1.
         -1   -1    0    0    0  501 -0.00000000000E+00 -0.00000000000E+00 -0.10425011407E+03  0.10425011407E+03  0.00000000000E+00 0.  1.
         23    2    1    2    0    0 -0.19223121324E+01  0.13735359059E+02  0.19992122413E+02  0.10020281893E+03  0.97203727245E+02 0.  0.
          5    1    1    2  502    0 -0.55819738975E+02 -0.28633029597E+02  0.12868784126E+02  0.64177656923E+02  0.41800000000E+01 0.  1.
         -5    1    1    2    0  502  0.57742051108E+02  0.14897670539E+02 -0.15279580720E+02  0.61701078115E+02  0.41800000000E+01 0.  1.
        -11    1    3    3    0    0  0.20165407277E+02  0.12993346396E+02  0.54317064359E+02  0.59378566687E+02  0.00000000000E+00 0. -1.
         11    1    3    3    0    0 -0.22087719410E+02  0.74201266224E+00 -0.34324941946E+02  0.40824252242E+02  0.00000000000E+00 0.  1.
</event>
<event>
 7    1  0.4274778E-006  0.6242321E+02  0.7561462E-02  0.1387935E+00
         -2   -1    0    0    0  501 -0.00000000000E+00  0.00000000000E+00  0.90937560326E+02  0.90937560326E+02  0.00000000000E+00 0.  1.
          2   -1    0    0  501    0  0.00000000000E+00 -0.00000000000E+00 -0.12932261354E+03  0.12932261354E+03  0.00000000000E+00 0. -1.
         23    2    1    2    0    0  0.23265854544E+02 -0.10338836120E+02 -0.56099112820E+02  0.91384957731E+02  0.67497470473E+02 0.  0.
          5    1    1    2  502    0  0.12883917252E+02  0.29957891778E+02 -0.43795522022E+02  0.54763041850E+02  0.41800000000E+01 0. -1.
         -5    1    1    2    0  502 -0.36149771795E+02 -0.19619055657E+02  0.61509581626E+02  0.74112174287E+02  0.41800000000E+01 0. -1.
        -11    1    3    3    0    0 -0.12902306289E+02 -0.58986228353E+01 -0.52940764158E+02  0.54808646841E+02  0.00000000000E+00 0. -1.
         11    1    3    3    0    0  0.36168160833E+02 -0.44402132850E+01 -0.31583486625E+01  0.36576310890E+02  0.00000000000E+00 0.  1.
</event>
<event>
 7    1  0.4274778E-006  0.1136402E+03  0.7561462E-02  0.1253973E+00
          1   -1    0    0  501    0  0.00000000000E+00  0.00000000000E+00  0.21556916131E+03  0.21556916131E+03  0.00000000000E+00 0. -1.
         -1   -1    0    0    0  501 -0.00000000000E+00 -0.00000000000E+00 -0.83600039239E+02  0.83600039239E+02  0.00000000000E+00 0.  1.
         23    2    1    2    0    0  0.44218769177E+02  0.58948471469E+02  0.58807969606E+02  0.13658361354E+03  0.98825524857E+02 0.  0.
          5    1    1    2  502    0 -0.54650404650E+02 -0.73738637084E+02  0.50824507148E+01  0.92018242934E+02  0.41800000000E+01 0. -1.
         -5    1    1    2    0  502  0.10431635473E+02  0.14790165615E+02  0.68078701748E+02  0.70567344072E+02  0.41800000000E+01 0. -1.
        -11    1    3    3    0    0  0.30427631520E+02 -0.20176639065E+02 -0.87267355929E+00  0.36519845057E+02  0.00000000000E+00 0.  1.
         11    1    3    3    0    0  0.13791137657E+02  0.79125110534E+02  0.59680643166E+02  0.10006376849E+03  0.00000000000E+00 0. -1.
</event>
<event>
 7    1  0.4274778E-006  0.1321636E+03  0.7561462E-02  0.1224280E+00
          3   -1    0    0  501    0  0.00000000000E+00  0.00000000000E+00  0.46532203482E+03  0.46532203482E+03  0.00000000000E+00 0. -1.
         -3   -1    0    0    0  501 -0.00000000000E+00 -0.00000000000E+00 -0.44263938530E+02  0.44263938530E+02  0.00000000000E+00 0.  1.
         23    2    1    2    0    0 -0.29397061952E+02  0.78614058491E+02  0.25200185933E+03  0.28315253006E+03  0.98112490168E+02 0.  0.
          5    1    1    2  502    0  0.73326511021E+02 -0.71061858254E+02  0.92992627964E+02  0.13817259559E+03  0.41800000000E+01 0.  1.
         -5    1    1    2    0  502 -0.43929449069E+02 -0.75522002370E+01  0.76063608997E+02  0.88260847705E+02  0.41800000000E+01 0.  1.
        -11    1    3    3    0    0  0.24367154054E+02  0.51880180044E+02  0.18258459676E+03  0.19136991993E+03  0.00000000000E+00 0. -1.
         11    1    3    3    0    0 -0.53764216006E+02  0.26733878447E+02  0.69417262570E+02  0.91782610130E+02  0.00000000000E+00 0.  1.
</event>
<event>
 7    1  0.9789649E-006  0.4035687E+03  0.7561462E-02  0.1042551E+00
         -2   -1    0    0    0  501 -0.00000000000E+00  0.00000000000E+00  0.44695343570E+03  0.44695343570E+03  0.00000000000E+00 0.  1.
          2   -1    0    0  501    0  0.00000000000E+00 -0.00000000000E+00 -0.39016761712E+03  0.39016761712E+03  0.00000000000E+00 0. -1.
         23    2    1    2    0    0  0.20497528587E+03 -0.34675917100E+03  0.17483080294E+02  0.41350661701E+03  0.91789289795E+02 0.  0.
          5    1    1    2  502    0 -0.10886803944E+03  0.17629728119E+03 -0.42359161547E+02  0.21152955428E+03  0.41800000000E+01 0. -1.
         -5    1    1    2    0  502 -0.96107246432E+02  0.17046188981E+03  0.81661899832E+02  0.21208488154E+03  0.41800000000E+01 0. -1.
        -11    1    3    3    0    0  0.92509419550E+02 -0.12496383578E+03  0.48573721622E+02  0.16289063629E+03  0.00000000000E+00 0.  1.
         11    1    3    3    0    0  0.11246586632E+03 -0.22179533522E+03 -0.31090641329E+02  0.25061598072E+03  0.00000000000E+00 0. -1.
</event>
<event>
 7    1  0.4274778E-006  0.1398812E+03  0.7561462E-02  0.1213489E+00
          1   -1    0    0  501    0  0.00000000000E+00  0.00000000000E+00  0.64474650695E+03  0.64474650695E+03  0.00000000000E+00 0. -1.
         -1   -1    0    0    0  501 -0.00000000000E+00 -0.00000000000E+00 -0.33630280441E+02  0.33630280441E+02  0.00000000000E+00 0.  1.
         23    2    1    2    0    0 -0.75191636332E+02  0.67060308981E+02  0.27862627436E+03  0.30912277836E+03  0.88167024008E+02 0.  0.
          5    1    1    2  502    0  0.10421834625E+03 -0.72657437495E+02  0.29577020237E+03  0.32192864416E+03  0.41800000000E+01 0. -1.
         -5    1    1    2    0  502 -0.29026709923E+02  0.55971285131E+01  0.36719749781E+02  0.47325364875E+02  0.41800000000E+01 0. -1.
        -11    1    3    3    0    0 -0.27852274315E+02  0.70024772145E+02  0.10573172445E+03  0.12983996093E+03  0.00000000000E+00 0.  1.
         11    1    3    3    0    0 -0.47339362017E+02 -0.29644631636E+01  0.17289454991E+03  0.17928281743E+03  0.00000000000E+00 0. -1.
</event>
<event>
 7    1  0.4274778E-006  0.1994496E+03  0.7561462E-02  0.1150204E+00
          2   -1    0    0  501    0  0.00000000000E+00  0.00000000000E+00  0.29984047180E+03  0.29984047180E+03  0.00000000000E+00 0. -1.
         -2   -1    0    0    0  501 -0.00000000000E+00 -0.00000000000E+00 -0.14857696763E+03  0.14857696763E+03  0.00000000000E+00 0.  1.
         23    2    1    2    0    0 -0.11929009588E+03 -0.13509812924E+03  0.88942332964E+02  0.22035444799E+03  0.90353265878E+02 0.  0.
          5    1    1    2  502    0  0.26268839018E+02  0.11761889278E+03  0.13100372553E+02  0.12129859028E+03  0.41800000000E+01 0.  1.
         -5    1    1    2    0  502  0.93021256859E+02  0.17479236464E+02  0.49220798652E+02  0.10676440116E+03  0.41800000000E+01 0.  1.
        -11    1    3    3    0    0 -0.51592785846E+01 -0.23081847856E+02 -0.16469549143E+02  0.28820754760E+02  0.00000000000E+00 0.  1.
         11    1    3    3    0    0 -0.11413081729E+03 -0.11201628139E+03  0.10541188211E+03  0.19153369323E+03  0.00000000000E+00 0. -1.
</event>
<event>
 7    1  0.4274778E-006  0.2944288E+03  0.7561462E-02  0.1088059E+00
          2   -1    0    0  501    0  0.00000000000E+00  0.00000000000E+00  0.13724591649E+04  0.13724591649E+04  0.00000000000E+00 0. -1.
         -2   -1    0    0    0  501 -0.00000000000E+00 -0.00000000000E+00 -0.71426712861E+02  0.71426712861E+02  0.00000000000E+00 0.  1.
         23    2    1    2    0    0  0.24399648870E+03  0.15520920757E+03  0.75139589589E+03  0.81034727505E+03  0.91884325197E+02 0.  0.
          5    1    1    2  502    0 -0.20109438552E+03 -0.11300263653E+03  0.31001348351E+03  0.38643806763E+03  0.41800000000E+01 0. -1.
         -5    1    1    2    0  502 -0.42902103172E+02 -0.42206571044E+02  0.23962307263E+03  0.24710053507E+03  0.41800000000E+01 0. -1.
        -11    1    3    3    0    0  0.11826272475E+03  0.33703099604E+02  0.38901339539E+03  0.40798700075E+03  0.00000000000E+00 0. -1.
         11    1    3    3    0    0  0.12573376395E+03  0.12150610797E+03  0.36238250050E+03  0.40236027431E+03  0.00000000000E+00 0.  1.
</event>
<event>
 7    1  0.4274778E-006  0.1051795E+03  0.7561462E-02  0.1269766E+00
         -3   -1    0    0    0  501 -0.00000000000E+00  0.00000000000E+00  0.17257549998E+03  0.17257549998E+03  0.00000000000E+00 0.  1.
          3   -1    0    0  501    0  0.00000000000E+00 -0.00000000000E+00 -0.82278654387E+02  0.82278654387E+02  0.00000000000E+00 0. -1.
         23    2    1    2    0    0 -0.25325216351E+02  0.41252786008E+02  0.23096126587E+02  0.10483094085E+03  0.90071838877E+02 0.  0.
          5    1    1    2  502    0 -0.30373711332E+02  0.12984709762E+02  0.63950720774E+02  0.72099459881E+02  0.41800000000E+01 0.  1.
         -5    1    1    2    0  502  0.55698927684E+02 -0.54237495770E+02  0.32499982310E+01  0.77923753638E+02  0.41800000000E+01 0.  1.
        -11    1    3    3    0    0 -0.57406233390E+02  0.20301134986E+02  0.16320282660E+01  0.60912028616E+02  0.00000000000E+00 0. -1.
         11    1    3    3    0    0  0.32081017039E+02  0.20951651022E+02  0.21464098321E+02  0.43918912231E+02  0.00000000000E+00 0.  1.
</event>
<event>
 7    1  0.4274778E-006  0.1140648E+03  0.7561462E-02  0.1253222E+00
          1   -1    0    0  501    0  0.00000000000E+00  0.00000000000E+00  0.16904901108E+03  0.16904901108E+03  0.00000000000E+00 0. -1.
         -1   -1    0    0    0  501 -0.00000000000E+00 -0.00000000000E+00 -0.99951031470E+02  0.99951031470E+02  0.00000000000E+00 0.  1.
         23    2    1    2    0    0 -0.97377712294E+01  0.69131623649E+02  0.44024296960E+02  0.12357228537E+03  0.91967197473E+02 0.  0.
          5    1    1    2  502    0  0.48385516120E+02 -0.83641494222E+02 -0.43724364228E+00  0.96719808250E+02  0.41800000000E+01 0.  1.
         -5    1    1    2    0  502 -0.38647744891E+02  0.14509870573E+02  0.25510926296E+02  0.48707948937E+02  0.41800000000E+01 0.  1.
        -11    1    3    3    0    0 -0.19448816217E+02 -0.65403356443E+00 -0.20333940249E+02  0.28145218745E+02  0.00000000000E+00 0.  1.
         11    1    3    3    0    0  0.97110449872E+01  0.69785657214E+02  0.64358237209E+02  0.95427066622E+02  0.00000000000E+00 0. -1.
</event>
<event>
 7    1  0.4274778E-006  0.1126516E+03  0.7561462E-02  0.1255737E+00
         -1   -1    0    0    0  501 -0.00000000000E+00  0.00000000000E+00  0.37746373818E+02  0.37746373818E+02  0.00000000000E+00 0.  1.
          1   -1    0    0  501    0  0.00000000000E+00 -0.00000000000E+00 -0.35558531952E+03  0.35558531952E+03  0.00000000000E+00 0. -1.
         23    2    1    2    0    0 -0.57991073770E+01 -0.48224505381E+02 -0.17959247866E+03  0.20751751696E+03  0.91928390009E+02 0.  0.
          5    1    1    2  502    0  0.24547742490E+02 -0.32095586350E+02 -0.35150094088E+02  0.53718896479E+02  0.41800000000E+01 0. -1.
         -5    1    1    2    0  502 -0.18748635113E+02  0.80320091731E+02 -0.10309637295E+03  0.13209527990E+03  0.41800000000E+01 0.  1.
        -11    1    3    3    0    0  0.22324063461E+02 -0.65425426980E+02 -0.10206983054E+03  0.12327652092E+03  0.00000000000E+00 0. -1.
         11    1    3    3    0    0 -0.28123170838E+02  0.17200921599E+02 -0.77522648123E+02  0.84240996040E+02  0.00000000000E+00 0.  1.
</event>
<event>
 7    1  0.4274778E-006  0.9804631E+02  0.7561462E-02  0.1284459E+00
          1   -1    0    0  501    0  0.00000000000E+00  0.00000000000E+00  0.42114379858E+03  0.42114379858E+03  0.00000000000E+00 0. -1.
         -1   -1    0    0    0  501 -0.00000000000E+00 -0.00000000000E+00 -0.35135372823E+02  0.35135372823E+02  0.00000000000E+00 0.  1.
         23    2    1    2    0    0 -0.28639488499E+02  0.32564315307E+01  0.20142760609E+03  0.22243843325E+03  0.89860733591E+02 0.  0.
          5    1    1    2  502    0 -0.39793065395E+02  0.29872410429E+02  0.22507210510E+02  0.54771305291E+02  0.41800000000E+01 0. -1.
         -5    1    1    2    0  502  0.68432553894E+02 -0.33128841960E+02  0.16207360915E+03  0.17906943286E+03  0.41800000000E+01 0.  1.
        -11    1    3    3    0    0 -0.15144839181E+02 -0.30284892128E+02  0.24347960214E+02  0.41705683205E+02  0.00000000000E+00 0.  1.
         11    1    3    3    0    0 -0.13494649318E+02  0.33541323659E+02  0.17707964588E+03  0.18073275004E+03  0.00000000000E+00 0. -1.
</event>
<event>
 7    1  0.4274778E-006  0.2236992E+03  0.7561462E-02  0.1131155E+00
          2   -1    0    0  501    0  0.00000000000E+00  0.00000000000E+00  0.70726275616E+03  0.70726275616E+03  0.00000000000E+00 0. -1.
         -2   -1    0    0    0  501 -0.00000000000E+00 -0.00000000000E+00 -0.89961885466E+02  0.89961885466E+02  0.00000000000E+00 0.  1.
         23    2    1    2    0    0  0.21095524510E+03  0.12083374278E+02  0.43262503376E+03  0.48997826008E+03  0.90918381771E+02 0.  0.
          5    1    1    2  502    0 -0.49843717244E+02 -0.30799650516E+02 -0.34220515702E+01  0.58840440664E+02  0.41800000000E+01 0. -1.
         -5    1    1    2    0  502 -0.16111152786E+03  0.18716276239E+02  0.18809788850E+03  0.24840594088E+03  0.41800000000E+01 0. -1.
        -11    1    3    3    0    0 -0.27027392917E+01 -0.11166981521E+02  0.78116015873E+01  0.13893429934E+02  0.00000000000E+00 0.  1.
         11    1    3    3    0    0  0.21365798439E+03  0.23250355798E+02  0.42481343217E+03  0.47608483015E+03  0.00000000000E+00 0. -1.
</event>
<event>
 7    1  0.4274778E-006  0.1217016E+03  0.7561462E-02  0.1240316E+00
         -1   -1    0    0    0  501 -0.00000000000E+00  0.00000000000E+00  0.88185419114E+02  0.88185419114E+02  0.00000000000E+00 0.  1.
          1   -1    0    0  501    0  0.00000000000E+00 -0.00000000000E+00 -0.41787879587E+03  0.41787879587E+03  0.00000000000E+00 0. -1.
         23    2    1    2    0    0 -0.88198159892E+02 -0.54305309205E+02 -0.31528071082E+03  0.34302215334E+03  0.86800282543E+02 0.  0.
          5    1    1    2  502    0  0.38847273498E+02 -0.20436056283E+02 -0.49920408317E+02  0.66605274725E+02  0.41800000000E+01 0.  1.
         -5    1    1    2    0  502  0.49350886394E+02  0.74741365488E+02  0.35507742379E+02  0.96436786921E+02  0.41800000000E+01 0.  1.
        -11    1    3    3    0    0 -0.49794635182E+02 -0.95982021671E+01 -0.24992071481E+03  0.25501371506E+03  0.00000000000E+00 0. -1.
         11    1    3    3    0    0 -0.38403524709E+02 -0.44707107038E+02 -0.65359996012E+02  0.88008438280E+02  0.00000000000E+00 0.  1.
</event>
<event>
 7    1  0.4274778E-006  0.1108455E+03  0.7561462E-02  0.1259012E+00
         -1   -1    0    0    0  501 -0.00000000000E+00  0.00000000000E+00  0.13127577973E+03  0.13127577973E+03  0.00000000000E+00 0.  1.
          1   -1    0    0  501    0  0.00000000000E+00 -0.00000000000E+00 -0.10751249843E+03  0.10751249843E+03  0.00000000000E+00 0. -1.
         23    2    1    2    0    0 -0.26408277559E+02 -0.16682960397E+02 -0.27083396243E+02  0.10016123226E+03  0.91230717444E+02 0.  0.
          5    1    1    2  502    0 -0.48086654456E+02 -0.40856984843E+01  0.34504034851E+02  0.59472851705E+02  0.41800000000E+01 0.  1.
         -5    1    1    2    0  502  0.74494932015E+02  0.20768658881E+02  0.16342642685E+02  0.79154194188E+02  0.41800000000E+01 0.  1.
        -11    1    3    3    0    0  0.33601802588E+02 -0.33022357657E+00 -0.15003685603E+02  0.36800825622E+02  0.00000000000E+00 0. -1.
         11    1    3    3    0    0 -0.60010080147E+02 -0.16352736821E+02 -0.12079710640E+02  0.63360406642E+02  0.00000000000E+00 0.  1.
</event>
<event>
 7    1  0.4274778E-006  0.9752605E+02  0.7561462E-02  0.1285586E+00
          1   -1    0    0  501    0  0.00000000000E+00  0.00000000000E+00  0.19916886070E+03  0.19916886070E+03  0.00000000000E+00 0. -1.
         -1   -1    0    0    0  501 -0.00000000000E+00 -0.00000000000E+00 -0.99238821194E+02  0.99238821194E+02  0.00000000000E+00 0.  1.
         23    2    1    2    0    0 -0.11597591352E+02 -0.46362342911E+02  0.12297434115E+03  0.16250171134E+03  0.94869102673E+02 0.  0.
          5    1    1    2  502    0 -0.29358879574E+02  0.64976890830E+02 -0.46272152941E+02  0.85103023975E+02  0.41800000000E+01 0. -1.
         -5    1    1    2    0  502  0.40956470926E+02 -0.18614547920E+02  0.23227851293E+02  0.50802946575E+02  0.41800000000E+01 0. -1.
        -11    1    3    3    0    0  0.41901397428E+01 -0.58426477297E+02  0.12905177576E+03  0.14172357372E+03  0.00000000000E+00 0. -1.
         11    1    3    3    0    0 -0.15787731095E+02  0.12064134387E+02 -0.60774346108E+01  0.20778137622E+02  0.00000000000E+00 0.  1.
</event>
<event>
 7    1  0.4274778E-006  0.9340224E+02  0.7561462E-02  0.1294816E+00
         -2   -1    0    0    0  501 -0.00000000000E+00  0.00000000000E+00  0.47991653894E+02  0.47991653894E+02  0.00000000000E+00 0.  1.
          2   -1    0    0  501    0  0.00000000000E+00 -0.00000000000E+00 -0.33008591847E+03  0.33008591847E+03  0.00000000000E+00 0. -1.
         23    2    1    2    0    0 -0.33359087357E+02  0.37802127509E+02 -0.17940108131E+03  0.20856236022E+03  0.93657250503E+02 0.  0.
          5    1    1    2  502    0  0.38606830567E+02 -0.80177889385E+02 -0.84917835460E+02  0.12307514977E+03  0.41800000000E+01 0.  1.
         -5    1    1    2    0  502 -0.52477432103E+01  0.42375761876E+02 -0.17775347809E+02  0.46440062372E+02  0.41800000000E+01 0.  1.
        -11    1    3    3    0    0 -0.16835338078E+02  0.41730455874E+01  0.67989198285E+01  0.18629767269E+02  0.00000000000E+00 0.  1.
         11    1    3    3    0    0 -0.16523749279E+02  0.33629081922E+02 -0.18620000113E+03  0.18993259295E+03  0.00000000000E+00 0. -1.
</event>
<event>
 7    1  0.4274778E-006  0.1365931E+03  0.7561462E-02  0.1217988E+00
         -2   -1    0    0    0  501 -0.00000000000E+00  0.00000000000E+00  0.12689945922E+04  0.12689945922E+04  0.00000000000E+00 0.  1.
          2   -1    0    0  501    0  0.00000000000E+00 -0.00000000000E+00 -0.16385170073E+02  0.16385170073E+02  0.00000000000E+00 0. -1.
         23    2    1    2    0    0  0.73955594753E+02 -0.38763197999E+02  0.62778608099E+03  0.64047613732E+03  0.95510750582E+02 0.  0.
          5    1    1    2  502    0 -0.70121416551E+02 -0.33325963522E+02  0.21227748011E+03  0.22606820622E+03  0.41800000000E+01 0. -1.
         -5    1    1    2    0  502 -0.38341782021E+01  0.72089161521E+02  0.41254586103E+03  0.41883541873E+03  0.41800000000E+01 0.  1.
        -11    1    3    3    0    0  0.38092067727E+02  0.28042194104E+02  0.17019915273E+03  0.17664971515E+03  0.00000000000E+00 0.  1.
         11    1    3    3    0    0  0.35863527026E+02 -0.66805392103E+02  0.45758692826E+03  0.46382642216E+03  0.00000000000E+00 0. -1.
</event>
<event>
 7    1  0.4274778E-006  0.1098644E+03  0.7561462E-02  0.1260821E+00
          3   -1    0    0  501    0  0.00000000000E+00  0.00000000000E+00  0.10001526772E+03  0.10001526772E+03  0.00000000000E+00 0. -1.
         -3   -1    0    0    0  501 -0.00000000000E+00 -0.00000000000E+00 -0.14438867728E+03  0.14438867728E+03  0.00000000000E+00 0.  1.
         23    2    1    2    0    0  0.42329468928E+02  0.32207216520E+02 -0.16348526249E+02  0.10562545265E+03  0.89779581207E+02 0.  0.
          5    1    1    2  502    0  0.31867266786E+02  0.93511513901E+01  0.21971328264E+02  0.40039710169E+02  0.41800000000E+01 0. -1.
         -5    1    1    2    0  502 -0.74196735714E+02 -0.41558367910E+02 -0.49996211582E+02  0.98738782181E+02  0.41800000000E+01 0. -1.
        -11    1    3    3    0    0 -0.82684771178E-01  0.53605769058E+02  0.44025523902E+01  0.53786315923E+02  0.00000000000E+00 0.  1.
         11    1    3    3    0    0  0.42412153699E+02 -0.21398552537E+02 -0.20751078639E+02  0.51839136728E+02  0.00000000000E+00 0. -1.
</event>
<event>
 7    1  0.4274778E-006  0.1054573E+03  0.7561462E-02  0.1269221E+00
         -2   -1    0    0    0  501 -0.00000000000E+00  0.00000000000E+00  0.42134756615E+03  0.42134756615E+03  0.00000000000E+00 0. -1.
          2   -1    0    0  501    0  0.00000000000E+00 -0.00000000000E+00 -0.61520615238E+02  0.61520615238E+02  0.00000000000E+00 0.  1.
         23    2    1    2    0    0  0.56143674578E+02 -0.61915357733E+02  0.44106939742E+02  0.13313988041E+03  0.93782631143E+02 0.  0.
          5    1    1    2  502    0 -0.58477037444E+01  0.20071131947E+01 -0.11253048694E+02  0.13502875522E+02  0.41800000000E+01 0. -1.
         -5    1    1    2    0  502 -0.50295970834E+02  0.59908244538E+02  0.32697305986E+03  0.33622542545E+03  0.41800000000E+01 0. -1.
        -11    1    3    3    0    0 -0.20106713446E+02  0.80251654466E+01  0.12266468877E+02  0.24882714176E+02  0.00000000000E+00 0. -1.
         11    1    3    3    0    0  0.76250388024E+02 -0.69940523179E+02  0.31840470865E+02  0.10825716624E+03  0.00000000000E+00 0.  1.
</event>
<event>
 7    1  0.4274778E-006  0.1281342E+03  0.7561462E-02  0.1230251E+00
         -2   -1    0    0    0  501 -0.00000000000E+00  0.00000000000E+00  0.72606604642E+03  0.72606604642E+03  0.00000000000E+00 0.  1.
          2   -1    0    0  501    0  0.00000000000E+00 -0.00000000000E+00 -0.29734880893E+02  0.29734880893E+02  0.00000000000E+00 0. -1.
         23    2    1    2    0    0  0.90779692233E+02  0.38981029415E+02  0.34246354097E+03  0.36768984062E+03  0.90299882767E+02 0.  0.
          5    1    1    2  502    0  0.25682289594E+02  0.94534304632E+01  0.31586868960E+02  0.42001786117E+02  0.41800000000E+01 0.  1.
         -5    1    1    2    0  502 -0.11646198183E+03 -0.48434459878E+02  0.32228075560E+03  0.34610930057E+03  0.41800000000E+01 0.  1.
        -11    1    3    3    0    0  0.11010561177E+02 -0.40689146687E+01 -0.16357576443E+01  0.11851760505E+02  0.00000000000E+00 0. -1.
         11    1    3    3    0    0  0.79769131057E+02  0.43049944084E+02  0.34409929861E+03  0.35583808012E+03  0.00000000000E+00 0.  1.
</event>
<event>
 7    1  0.4274778E-006  0.1324808E+03  0.7561462E-02  0.1223820E+00
          2   -1    0    0  501    0  0.00000000000E+00  0.00000000000E+00  0.80218379576E+03  0.80218379576E+03  0.00000000000E+00 0. -1.
         -2   -1    0    0    0  501 -0.00000000000E+00 -0.00000000000E+00 -0.28562761376E+02  0.28562761376E+02  0.00000000000E+00 0.  1.
         23    2    1    2    0    0 -0.30555503173E+02 -0.97591828096E+02  0.42266825854E+03  0.44438711353E+03  0.91507629238E+02 0.  0.
          5    1    1    2  502    0  0.42653335316E+02  0.10758570891E+02  0.24415788946E+03  0.24812416498E+03  0.41800000000E+01 0.  1.
         -5    1    1    2    0  502 -0.12097832142E+02  0.86833257204E+02  0.10679488639E+03  0.13823527863E+03  0.41800000000E+01 0.  1.
        -11    1    3    3    0    0 -0.58526207194E+02 -0.46478915586E+02  0.29023494338E+03  0.29970306786E+03  0.00000000000E+00 0. -1.
         11    1    3    3    0    0  0.27970704020E+02 -0.51112912509E+02  0.13243331515E+03  0.14468404567E+03  0.00000000000E+00 0.  1.
</event>
<event>
 7    1  0.4274778E-006  0.2620005E+03  0.7561462E-02  0.1105947E+00
         -1   -1    0    0    0  501 -0.00000000000E+00  0.00000000000E+00  0.79559040144E+02  0.79559040144E+02  0.00000000000E+00 0.  1.
          1   -1    0    0  501    0  0.00000000000E+00 -0.00000000000E+00 -0.90488034273E+03  0.90488034273E+03  0.00000000000E+00 0. -1.
         23    2    1    2    0    0  0.16811322816E+03  0.17223026397E+03 -0.48821426379E+03  0.55175691102E+03  0.90317219769E+02 0.  0.
          5    1    1    2  502    0 -0.11468959137E+03 -0.29323705679E+02 -0.15487206921E+03  0.19497797902E+03  0.41800000000E+01 0. -1.
         -5    1    1    2    0  502 -0.53423636789E+02 -0.14290655829E+03 -0.18223496959E+03  0.23770449283E+03  0.41800000000E+01 0. -1.
        -11    1    3    3    0    0  0.12972755098E+03  0.78475978247E+02 -0.24275118787E+03  0.28620946151E+03  0.00000000000E+00 0.  1.
         11    1    3    3    0    0  0.38385677177E+02  0.93754285718E+02 -0.24546307592E+03  0.26554744951E+03  0.00000000000E+00 0. -1.
</event>
<event>
 7    1  0.4274778E-006  0.9457874E+02  0.7561462E-02  0.1292128E+00
          2   -1    0    0  501    0  0.00000000000E+00  0.00000000000E+00  0.67741675490E+02  0.67741675490E+02  0.00000000000E+00 0. -1.
         -2   -1    0    0    0  501 -0.00000000000E+00 -0.00000000000E+00 -0.20069828996E+03  0.20069828996E+03  0.00000000000E+00 0.  1.
         23    2    1    2    0    0  0.23390265625E+02 -0.90388441310E+01 -0.20410962093E+02  0.98315350570E+02  0.92846623821E+02 0.  0.
          5    1    1    2  502    0 -0.20443242928E+02  0.49039348775E+02 -0.29843457324E+01  0.53377547987E+02  0.41800000000E+01 0. -1.
         -5    1    1    2    0  502 -0.29470226974E+01 -0.40000504644E+02 -0.10956130665E+03  0.11674706690E+03  0.41800000000E+01 0. -1.
        -11    1    3    3    0    0 -0.30674271531E+02 -0.24553132336E+02 -0.28625313702E+01  0.39394940377E+02  0.00000000000E+00 0.  1.
         11    1    3    3    0    0  0.54064537156E+02  0.15514288205E+02 -0.17548430722E+02  0.58920410192E+02  0.00000000000E+00 0. -1.
</event>
<event>
 7    1  0.4274778E-006  0.1143977E+03  0.7561462E-02  0.1252636E+00
          1   -1    0    0  501    0  0.00000000000E+00  0.00000000000E+00  0.36925481327E+03  0.36925481327E+03  0.00000000000E+00 0. -1.
         -1   -1    0    0    0  501 -0.00000000000E+00 -0.00000000000E+00 -0.85602244049E+02  0.85602244049E+02  0.00000000000E+00 0.  1.
         23    2    1    2    0    0  0.90512257228E+02  0.55857017076E+02  0.25149170038E+03  0.28754123736E+03  0.90107784096E+02 0.  0.
          5    1    1    2  502    0 -0.34129856781E+02 -0.49763835081E+01 -0.46400938137E+02  0.57966636755E+02  0.41800000000E+01 0. -1.
         -5    1    1    2    0  502 -0.56382400447E+02 -0.50880633568E+02  0.78561806976E+02  0.10934918321E+03  0.41800000000E+01 0. -1.
        -11    1    3    3    0    0  0.37506700013E+02  0.52973659368E+02  0.21105484528E+03  0.22081011945E+03  0.00000000000E+00 0.  1.
         11    1    3    3    0    0  0.53005557215E+02  0.28833577084E+01  0.40436855102E+02  0.66731117913E+02  0.00000000000E+00 0. -1.
</event>
<event>
 7    1  0.4274778E-006  0.9681448E+02  0.7561462E-02  0.1287141E+00
         -2   -1    0    0    0  501 -0.00000000000E+00  0.00000000000E+00  0.41831075239E+03  0.41831075239E+03  0.00000000000E+00 0. -1.
          2   -1    0    0  501    0  0.00000000000E+00 -0.00000000000E+00 -0.29209839306E+02  0.29209839306E+02  0.00000000000E+00 0.  1.
         23    2    1    2    0    0  0.18974732679E+02 -0.14098263384E+02  0.14105200915E+03  0.16870889177E+03  0.89488654948E+02 0.  0.
          5    1    1    2  502    0 -0.45925720087E+02  0.42112314053E+02  0.22482357524E+03  0.23333609053E+03  0.41800000000E+01 0.  1.
         -5    1    1    2    0  502  0.26950987407E+02 -0.28014050668E+02  0.23225328683E+02  0.45475609391E+02  0.41800000000E+01 0.  1.
        -11    1    3    3    0    0  0.51597280260E+02  0.86400300931E+01  0.71561743823E+02  0.88645432083E+02  0.00000000000E+00 0. -1.
         11    1    3    3    0    0 -0.32622547580E+02 -0.22738293477E+02  0.69490265330E+02  0.80063459683E+02  0.00000000000E+00 0.  1.
</event>
<event>
 7    1  0.4274778E-006  0.9183287E+02  0.7561462E-02  0.1298473E+00
          1   -1    0    0  501    0  0.00000000000E+00  0.00000000000E+00  0.39709821764E+03  0.39709821764E+03  0.00000000000E+00 0. -1.
         -1   -1    0    0    0  501 -0.00000000000E+00 -0.00000000000E+00 -0.35788058076E+02  0.35788058076E+02  0.00000000000E+00 0.  1.
         23    2    1    2    0    0  0.73328972855E+01 -0.49996047138E+02  0.14805927976E+03  0.18054304048E+03  0.90115831195E+02 0.  0.
          5    1    1    2  502    0  0.97997175545E+01  0.86219692194E+02  0.10178036992E+03  0.13381549196E+03  0.41800000000E+01 0. -1.
         -5    1    1    2    0  502 -0.17132614840E+02 -0.36223645056E+02  0.11147050988E+03  0.11852774328E+03  0.41800000000E+01 0. -1.
        -11    1    3    3    0    0 -0.83011914234E+01 -0.29955740376E+02  0.78816137034E+00  0.31094651612E+02  0.00000000000E+00 0.  1.
         11    1    3    3    0    0  0.15634088709E+02 -0.20040306762E+02  0.14727111839E+03  0.14944838887E+03  0.00000000000E+00 0. -1.
</event>
<event>
 7    1  0.4274778E-006  0.1679402E+03  0.7561462E-02  0.1180013E+00
          1   -1    0    0  501    0  0.00000000000E+00  0.00000000000E+00  0.22378729076E+02  0.22378729076E+02  0.00000000000E+00 0. -1.
         -1   -1    0    0    0  501 -0.00000000000E+00 -0.00000000000E+00 -0.14576504770E+04  0.14576504770E+04  0.00000000000E+00 0.  1.
         23    2    1    2    0    0  0.46909640476E+02 -0.11912956117E+03 -0.40511269961E+03  0.43443485298E+03  0.90691650040E+02 0.  0.
          5    1    1    2  502    0  0.29758814582E+02 -0.74317778569E+01 -0.18221486901E+03  0.18482572671E+03  0.41800000000E+01 0. -1.
         -5    1    1    2    0  502 -0.76668455059E+02  0.12656133903E+03 -0.84794417930E+03  0.86076862638E+03  0.41800000000E+01 0. -1.
        -11    1    3    3    0    0  0.66788022764E+02 -0.11962694603E+03 -0.35505628069E+03  0.38057352596E+03  0.00000000000E+00 0.  1.
         11    1    3    3    0    0 -0.19878382288E+02  0.49738485820E+00 -0.50056418917E+02  0.53861327025E+02  0.00000000000E+00 0. -1.
</event>
<event>
 7    1  0.4274778E-006  0.1519531E+03  0.7561462E-02  0.1198093E+00
          1   -1    0    0  501    0  0.00000000000E+00  0.00000000000E+00  0.44536555742E+03  0.44536555742E+03  0.00000000000E+00 0. -1.
         -1   -1    0    0    0  501 -0.00000000000E+00 -0.00000000000E+00 -0.72987880109E+02  0.72987880109E+02  0.00000000000E+00 0.  1.
         23    2    1    2    0    0  0.11906090117E+03  0.32614739669E+02  0.28090043633E+03  0.32022605485E+03  0.91653977770E+02 0.  0.
          5    1    1    2  502    0  0.21519961186E+02  0.93576747178E+01 -0.23120169433E+01  0.23947706110E+02  0.41800000000E+01 0. -1.
         -5    1    1    2    0  502 -0.14058086235E+03 -0.41972414387E+02  0.93789257922E+02  0.17417967657E+03  0.41800000000E+01 0. -1.
        -11    1    3    3    0    0  0.45241381865E+02 -0.12305891339E+02  0.32033211605E+02  0.56783309523E+02  0.00000000000E+00 0.  1.
         11    1    3    3    0    0  0.73819519302E+02  0.44920631009E+02  0.24886722473E+03  0.26344274533E+03  0.00000000000E+00 0. -1.
</event>
<event>
 7    1  0.4274778E-006  0.1439730E+03  0.7561462E-02  0.1208081E+00
         -1   -1    0    0    0  501 -0.00000000000E+00  0.00000000000E+00  0.23840076387E+02  0.23840076387E+02  0.00000000000E+00 0.  1.
          1   -1    0    0  501    0  0.00000000000E+00 -0.00000000000E+00 -0.92075606692E+03  0.92075606692E+03  0.00000000000E+00 0. -1.
         23    2    1    2    0    0  0.91248140236E+02  0.34938849659E+02 -0.49604093551E+03  0.51341507572E+03  0.89395100298E+02 0.  0.
          5    1    1    2  502    0 -0.11912891778E+03 -0.12531016959E+02 -0.26934529893E+03  0.29481025744E+03  0.41800000000E+01 0. -1.
         -5    1    1    2    0  502  0.27880777546E+02 -0.22407832701E+02 -0.13152975609E+03  0.13637081015E+03  0.41800000000E+01 0. -1.
        -11    1    3    3    0    0 -0.43446107294E+01  0.36213118402E+02 -0.12069002301E+03  0.12608071716E+03  0.00000000000E+00 0.  1.
         11    1    3    3    0    0  0.95592750966E+02 -0.12742687429E+01 -0.37535091251E+03  0.38733435856E+03  0.00000000000E+00 0. -1.
</event>
<event>
 7    1  0.4274778E-006  0.2187840E+03  0.7561462E-02  0.1134793E+00
         -3   -1    0    0    0  501 -0.00000000000E+00  0.00000000000E+00  0.42718666916E+03  0.42718666916E+03  0.00000000000E+00 0.  1.
          3   -1    0    0  501    0  0.00000000000E+00 -0.00000000000E+00 -0.15412805524E+03  0.15412805524E+03  0.00000000000E+00 0. -1.
         23    2    1    2    0    0  0.13749571389E+03 -0.15653932713E+03  0.15408070215E+02  0.22713748194E+03  0.89131334551E+02 0.  0.
          5    1    1    2  502    0 -0.36681531037E+02  0.22225695191E+02 -0.39589692718E+01  0.43274265836E+02  0.41800000000E+01 0.  1.
         -5    1    1    2    0  502 -0.10081418285E+03  0.13431363194E+03  0.26160951298E+03  0.31090297662E+03  0.41800000000E+01 0.  1.
        -11    1    3    3    0    0  0.91318531523E+02 -0.37349258992E+02  0.10534452196E+02  0.99222054151E+02  0.00000000000E+00 0.  1.
         11    1    3    3    0    0  0.46177182363E+02 -0.11919006814E+03  0.48736180184E+01  0.12791542779E+03  0.00000000000E+00 0. -1.
</event>
<event>
 7    1  0.4274778E-006  0.1127000E+03  0.7561462E-02  0.1255650E+00
          1   -1    0    0  501    0  0.00000000000E+00  0.00000000000E+00  0.11606375944E+03  0.11606375944E+03  0.00000000000E+00 0. -1.
         -1   -1    0    0    0  501 -0.00000000000E+00 -0.00000000000E+00 -0.11853570939E+03  0.11853570939E+03  0.00000000000E+00 0.  1.
         23    2    1    2    0    0 -0.24148978075E+02  0.29688615667E+02  0.17741051691E+02  0.10223162930E+03  0.93123434598E+02 0.  0.
          5    1    1    2  502    0  0.48601109655E+02  0.35551098777E+02 -0.15992940721E+02  0.62443534788E+02  0.41800000000E+01 0. -1.
         -5    1    1    2    0  502 -0.24452131580E+02 -0.65239714444E+02 -0.42200609266E+01  0.69924304742E+02  0.41800000000E+01 0. -1.
        -11    1    3    3    0    0 -0.11548598936E+02 -0.31093063263E+02 -0.94128776243E+01  0.34478268309E+02  0.00000000000E+00 0. -1.
         11    1    3    3    0    0 -0.12600379140E+02  0.60781678930E+02  0.27153929315E+02  0.67753360988E+02  0.00000000000E+00 0.  1.
</event>
<event>
 7    1  0.4274778E-006  0.1079722E+03  0.7561462E-02  0.1264372E+00
          2   -1    0    0  501    0  0.00000000000E+00  0.00000000000E+00  0.43023406027E+03  0.43023406027E+03  0.00000000000E+00 0. -1.
         -2   -1    0    0    0  501 -0.00000000000E+00 -0.00000000000E+00 -0.33058491494E+02  0.33058491494E+02  0.00000000000E+00 0.  1.
         23    2    1    2    0    0  0.38418488270E+01  0.41353771329E+02  0.23040686829E+03  0.25072991375E+03  0.89740016108E+02 0.  0.
          5    1    1    2  502    0  0.56640906285E+02 -0.19704097380E+02  0.45960195179E+02  0.75672026927E+02  0.41800000000E+01 0. -1.
         -5    1    1    2    0  502 -0.60482755112E+02 -0.21649673949E+02  0.12080850531E+03  0.13689061109E+03  0.41800000000E+01 0. -1.
        -11    1    3    3    0    0  0.32304207916E+02  0.51871668883E+02  0.19366963556E+03  0.20308165752E+03  0.00000000000E+00 0. -1.
         11    1    3    3    0    0 -0.28462359089E+02 -0.10517897554E+02  0.36737232727E+02  0.47648256236E+02  0.00000000000E+00 0.  1.
</event>
<event>
 7    1  0.4274778E-006  0.1101414E+03  0.7561462E-02  0.1260308E+00
         -1   -1    0    0    0  501 -0.00000000000E+00  0.00000000000E+00  0.76616139813E+02  0.76616139813E+02  0.00000000000E+00 0.  1.
          1   -1    0    0  501    0  0.00000000000E+00 -0.00000000000E+00 -0.19585503355E+03  0.19585503355E+03  0.00000000000E+00 0. -1.
         23    2    1    2    0    0 -0.15897175547E+02  0.49207255809E+02 -0.72847396251E+02  0.12938809681E+03  0.93597340999E+02 0.  0.
          5    1    1    2  502    0  0.61695209209E+02 -0.60315579307E+02 -0.40507799958E+02  0.95407663235E+02  0.41800000000E+01 0. -1.
         -5    1    1    2    0  502 -0.45798033662E+02  0.11108323497E+02 -0.58836975310E+01  0.47675413316E+02  0.41800000000E+01 0. -1.
        -11    1    3    3    0    0  0.20859884553E+02  0.44992066170E+02 -0.22026502663E+01  0.49641439041E+02  0.00000000000E+00 0.  1.
         11    1    3    3    0    0 -0.36757060100E+02  0.42151896389E+01 -0.70644745985E+02  0.79746657774E+02  0.00000000000E+00 0. -1.
</event>
<event>
 7    1  0.4274778E-006  0.1175759E+03  0.7561462E-02  0.1247150E+00
          2   -1    0    0  501    0  0.00000000000E+00  0.00000000000E+00  0.26713982214E+03  0.26713982214E+03  0.00000000000E+00 0. -1.
         -2   -1    0    0    0  501 -0.00000000000E+00 -0.00000000000E+00 -0.75863731542E+02  0.75863731542E+02  0.00000000000E+00 0.  1.
         23    2    1    2    0    0  0.49351147786E+02  0.65329145241E+02  0.14482188416E+03  0.18645079732E+03  0.84184848308E+02 0.  0.
          5    1    1    2  502    0  0.36958511063E+02  0.17067306178E+01  0.25685717483E+02  0.45233537912E+02  0.41800000000E+01 0.  1.
         -5    1    1    2    0  502 -0.86309658849E+02 -0.67035875858E+02  0.20768488956E+02  0.11131921845E+03  0.41800000000E+01 0.  1.
        -11    1    3    3    0    0  0.54303712146E+02  0.56085916868E+02  0.15390822959E+03  0.17257539326E+03  0.00000000000E+00 0. -1.
         11    1    3    3    0    0 -0.49525643598E+01  0.92432283728E+01 -0.90863454323E+01  0.13875404059E+02  0.00000000000E+00 0.  1.
</event>
<event>
 7    1  0.4274778E-006  0.1091450E+03  0.7561462E-02  0.1262161E+00
          2   -1    0    0  501    0  0.00000000000E+00  0.00000000000E+00  0.53659351196E+02  0.53659351196E+02  0.00000000000E+00 0. -1.
         -2   -1    0    0    0  501 -0.00000000000E+00 -0.00000000000E+00 -0.28514878475E+03  0.28514878475E+03  0.00000000000E+00 0.  1.
         23    2    1    2    0    0  0.70055107208E+01  0.45999183236E+02 -0.39578328324E+02  0.10503523185E+03  0.85445619064E+02 0.  0.
          5    1    1    2  502    0 -0.27261307462E+02 -0.78140734754E+02 -0.78691345826E+02  0.11427577880E+03  0.41800000000E+01 0. -1.
         -5    1    1    2    0  502  0.20255796742E+02  0.32141551518E+02 -0.11321975940E+03  0.11949712530E+03  0.41800000000E+01 0. -1.
        -11    1    3    3    0    0 -0.29010452558E+02 -0.99460617489E+01 -0.10410244099E+02  0.32386782553E+02  0.00000000000E+00 0.  1.
         11    1    3    3    0    0  0.36015963279E+02  0.55945244985E+02 -0.29168084225E+02  0.72648449293E+02  0.00000000000E+00 0. -1.
</event>
<event>
 7    1  0.4274778E-006  0.1240193E+03  0.7561462E-02  0.1236610E+00
         -2   -1    0    0    0  501 -0.00000000000E+00  0.00000000000E+00  0.20340440858E+02  0.20340440858E+02  0.00000000000E+00 0.  1.
          2   -1    0    0  501    0  0.00000000000E+00 -0.00000000000E+00 -0.97095136132E+03  0.97095136132E+03  0.00000000000E+00 0. -1.
         23    2    1    2    0    0  0.72284562380E+02  0.60990978630E+02 -0.31213525366E+03  0.33383929913E+03  0.71241165271E+02 0.  0.
          5    1    1    2  502    0 -0.45637535252E+02  0.29235055242E+02 -0.34448298784E+03  0.34874557257E+03  0.41800000000E+01 0. -1.
         -5    1    1    2    0  502 -0.26647027128E+02 -0.90226033872E+02 -0.29399267897E+03  0.30870693049E+03  0.41800000000E+01 0. -1.
        -11    1    3    3    0    0  0.21571839630E+02  0.38284376578E+02 -0.53163924426E+02  0.68974202535E+02  0.00000000000E+00 0.  1.
         11    1    3    3    0    0  0.50712722750E+02  0.22706602052E+02 -0.25897132924E+03  0.26486509659E+03  0.00000000000E+00 0. -1.
</event>
<event>
 7    1  0.4274778E-006  0.1645555E+03  0.7561462E-02  0.1183648E+00
          1   -1    0    0  501    0  0.00000000000E+00  0.00000000000E+00  0.86492800039E+02  0.86492800039E+02  0.00000000000E+00 0. -1.
         -1   -1    0    0    0  501 -0.00000000000E+00 -0.00000000000E+00 -0.39351738882E+03  0.39351738882E+03  0.00000000000E+00 0.  1.
         23    2    1    2    0    0  0.14700143529E+03 -0.15620504458E+02 -0.16968872752E+03  0.24260300081E+03  0.90600936084E+02 0.  0.
          5    1    1    2  502    0 -0.62969349267E+02 -0.21723879210E+02 -0.12866839671E+03  0.14494859291E+03  0.41800000000E+01 0. -1.
         -5    1    1    2    0  502 -0.84032086020E+02  0.37344383668E+02 -0.86674645490E+01  0.92458595134E+02  0.41800000000E+01 0. -1.
        -11    1    3    3    0    0  0.42668189283E+02  0.34215476850E+02 -0.76819603573E+02  0.94300184124E+02  0.00000000000E+00 0.  1.
         11    1    3    3    0    0  0.10433324600E+03 -0.49835981307E+02 -0.92869123946E+02  0.14830281669E+03  0.00000000000E+00 0. -1.
</event>
<event>
 7    1  0.4274778E-006  0.1154402E+03  0.7561462E-02  0.1250815E+00
          2   -1    0    0  501    0  0.00000000000E+00  0.00000000000E+00  0.33199269824E+03  0.33199269824E+03  0.00000000000E+00 0.  1.
         -2   -1    0    0    0  501 -0.00000000000E+00 -0.00000000000E+00 -0.56503705795E+02  0.56503705795E+02  0.00000000000E+00 0. -1.
         23    2    1    2    0    0  0.73557573913E+02 -0.40775294989E+02  0.11609394160E+03  0.16911510723E+03  0.89714964504E+02 0.  0.
          5    1    1    2  502    0 -0.56324772292E+02  0.80428223585E+02  0.14177259979E+03  0.17250542477E+03  0.41800000000E+01 0. -1.
         -5    1    1    2    0  502 -0.17232801621E+02 -0.39652928595E+02  0.17622451051E+02  0.46875872034E+02  0.41800000000E+01 0. -1.
        -11    1    3    3    0    0  0.31241936440E+02 -0.34233556855E+02  0.10468688206E+01  0.46358288814E+02  0.00000000000E+00 0. -1.
         11    1    3    3    0    0  0.42315637472E+02 -0.65417381343E+01  0.11504707278E+03  0.12275681841E+03  0.00000000000E+00 0.  1.
</event>
<event>
 7    1  0.4274778E-006  0.6855958E+02  0.7561462E-02  0.1365061E+00
         -2   -1    0    0    0  501 -0.00000000000E+00  0.00000000000E+00  0.30357797374E+02  0.30357797374E+02  0.00000000000E+00 0.  1.
          2   -1    0    0  501    0  0.00000000000E+00 -0.00000000000E+00 -0.46390779638E+03  0.46390779638E+03  0.00000000000E+00 0. -1.
         23    2    1    2    0    0 -0.38019280888E+02 -0.32593625008E+02 -0.18722816524E+03  0.21350040206E+03  0.89555712884E+02 0.  0.
          5    1    1    2  502    0 -0.19744088999E+02  0.88313681467E+01 -0.20403583831E+03  0.20522163099E+03  0.41800000000E+01 0.  1.
         -5    1    1    2    0  502  0.57763369886E+02  0.23762256861E+02 -0.42285995465E+02  0.75543560706E+02  0.41800000000E+01 0.  1.
        -11    1    3    3    0    0 -0.60073274056E+01 -0.14554013261E+02  0.59700511332E+01  0.16838907182E+02  0.00000000000E+00 0.  1.
         11    1    3    3    0    0 -0.32011953482E+02 -0.18039611747E+02 -0.19319821637E+03  0.19666149488E+03  0.00000000000E+00 0. -1.
</event>
<event>
 7    1  0.4274778E-006  0.8443723E+02  0.7561462E-02  0.1316911E+00
          1   -1    0    0  501    0  0.00000000000E+00  0.00000000000E+00  0.71407224773E+03  0.71407224773E+03  0.00000000000E+00 0. -1.
         -1   -1    0    0    0  501 -0.00000000000E+00 -0.00000000000E+00 -0.23764970014E+02  0.23764970014E+02  0.00000000000E+00 0.  1.
         23    2    1    2    0    0  0.53381855227E+02 -0.33504813213E+02  0.40182900245E+03  0.41715128323E+03  0.92609129770E+02 0.  0.
          5    1    1    2  502    0 -0.36261299824E+02  0.41831453038E+02  0.29496432715E+03  0.30014359733E+03  0.41800000000E+01 0.  1.
         -5    1    1    2    0  502 -0.17120555404E+02 -0.83266398256E+01 -0.64860518778E+01  0.20542337186E+02  0.41800000000E+01 0.  1.
        -11    1    3    3    0    0 -0.15410524505E+01  0.18300180932E+02  0.17131287232E+02  0.25114785825E+02  0.00000000000E+00 0.  1.
         11    1    3    3    0    0  0.54922907678E+02 -0.51804994144E+02  0.38469771521E+03  0.39203649740E+03  0.00000000000E+00 0. -1.
</event>
<event>
 7    1  0.4274778E-006  0.8980813E+02  0.7561462E-02  0.1303317E+00
         -1   -1    0    0    0  501 -0.00000000000E+00  0.00000000000E+00  0.62269084207E+02  0.62269084207E+02  0.00000000000E+00 0.  1.
          1   -1    0    0  501    0  0.00000000000E+00 -0.00000000000E+00 -0.23442006979E+03  0.23442006979E+03  0.00000000000E+00 0. -1.
         23    2    1    2    0    0 -0.28763246382E+02 -0.40598267167E+02 -0.98528484175E+02  0.14324872528E+03  0.91306031899E+02 0.  0.
          5    1    1    2  502    0  0.38917670427E+02 -0.12317039513E+01 -0.96766073162E+02  0.10438988208E+03  0.41800000000E+01 0. -1.
         -5    1    1    2    0  502 -0.10154424045E+02  0.41829971118E+02  0.23143571755E+02  0.49050546633E+02  0.41800000000E+01 0. -1.
        -11    1    3    3    0    0 -0.41299881662E+02  0.12102545477E+02 -0.19049271413E+02  0.47064068818E+02  0.00000000000E+00 0.  1.
         11    1    3    3    0    0  0.12536635280E+02 -0.52700812644E+02 -0.79479212762E+02  0.96184656462E+02  0.00000000000E+00 0. -1.
</event>
<event>
 7    1  0.4274778E-006  0.1499005E+03  0.7561462E-02  0.1200595E+00
         -2   -1    0    0    0  501 -0.00000000000E+00  0.00000000000E+00  0.65852256684E+02  0.65852256684E+02  0.00000000000E+00 0.  1.
          2   -1    0    0  501    0  0.00000000000E+00 -0.00000000000E+00 -0.38588375881E+03  0.38588375881E+03  0.00000000000E+00 0. -1.
         23    2    1    2    0    0  0.11839749931E+03 -0.55112136884E+01 -0.14423761765E+03  0.20556758206E+03  0.86053466694E+02 0.  0.
          5    1    1    2  502    0 -0.21078135441E+02 -0.46666728818E+02 -0.19930196881E+02  0.55106773812E+02  0.41800000000E+01 0.  1.
         -5    1    1    2    0  502 -0.97319363864E+02  0.52177942506E+02 -0.15586368759E+03  0.19106165962E+03  0.41800000000E+01 0.  1.
        -11    1    3    3    0    0  0.61014888722E+02 -0.38096617387E+02 -0.40300511248E+02  0.82451804764E+02  0.00000000000E+00 0.  1.
         11    1    3    3    0    0  0.57382610584E+02  0.32585403699E+02 -0.10393710640E+03  0.12311577729E+03  0.00000000000E+00 0. -1.
</event>
<event>
 7    1  0.4274778E-006  0.1693401E+03  0.7561462E-02  0.1178538E+00
          4   -1    0    0  501    0  0.00000000000E+00  0.00000000000E+00  0.15577804176E+04  0.15577804176E+04  0.00000000000E+00 0.  1.
         -4   -1    0    0    0  501 -0.00000000000E+00 -0.00000000000E+00 -0.18656968749E+02  0.18656968749E+02  0.00000000000E+00 0. -1.
         23    2    1    2    0    0  0.56054196867E+02  0.11733888879E+03  0.63419715838E+03  0.65369708472E+03  0.90572374708E+02 0.  0.
          5    1    1    2  502    0 -0.92703099754E+02 -0.10793940352E+03  0.70731029857E+03  0.72149158720E+03  0.41800000000E+01 0. -1.
         -5    1    1    2    0  502  0.36648902888E+02 -0.93994852648E+01  0.19761599187E+03  0.20124871440E+03  0.41800000000E+01 0. -1.
        -11    1    3    3    0    0 -0.18026576315E+02  0.65287233778E+02  0.28792948141E+03  0.29578838147E+03  0.00000000000E+00 0.  1.
         11    1    3    3    0    0  0.74080773181E+02  0.52051655010E+02  0.34626767697E+03  0.35790870325E+03  0.00000000000E+00 0. -1.
</event>
<event>
 7    1  0.4274778E-006  0.2513141E+03  0.7561462E-02  0.1112477E+00
         -2   -1    0    0    0  501 -0.00000000000E+00  0.00000000000E+00  0.12756140625E+04  0.12756140625E+04  0.00000000000E+00 0.  1.
          2   -1    0    0  501    0  0.00000000000E+00 -0.00000000000E+00 -0.76343259467E+02  0.76343259467E+02  0.00000000000E+00 0. -1.
         23    2    1    2    0    0  0.17978030751E+03  0.16190866899E+03  0.23395425493E+03  0.34895258206E+03  0.92184245195E+02 0.  0.
          5    1    1    2  502    0 -0.13782664113E+03 -0.13981960258E+03  0.90556442144E+03  0.92661216161E+03  0.41800000000E+01 0. -1.
         -5    1    1    2    0  502 -0.41953666378E+02 -0.22089066416E+02  0.59752126648E+02  0.76392578283E+02  0.41800000000E+01 0. -1.
        -11    1    3    3    0    0  0.72682016592E+02  0.12643181561E+03  0.12424231906E+03  0.19158244539E+03  0.00000000000E+00 0.  1.
         11    1    3    3    0    0  0.10709829092E+03  0.35476853377E+02  0.10971193587E+03  0.15737013667E+03  0.00000000000E+00 0. -1.
</event>
<event>
 7    1  0.4274778E-006  0.1014771E+03  0.7561462E-02  0.1277220E+00
         -4   -1    0    0    0  501 -0.00000000000E+00  0.00000000000E+00  0.15130387449E+03  0.15130387449E+03  0.00000000000E+00 0. -1.
          4   -1    0    0  501    0  0.00000000000E+00 -0.00000000000E+00 -0.84504333319E+02  0.84504333319E+02  0.00000000000E+00 0.  1.
         23    2    1    2    0    0  0.23372126352E+02 -0.20139206304E+02  0.33338904578E+02  0.10269675654E+03  0.92104817054E+02 0.  0.
          5    1    1    2  502    0  0.40450594987E+02 -0.26525981546E+02  0.43159249225E+01  0.48744004141E+02  0.41800000000E+01 0.  1.
         -5    1    1    2    0  502 -0.63822721339E+02  0.46665187850E+02  0.29144711668E+02  0.84367447125E+02  0.41800000000E+01 0.  1.
        -11    1    3    3    0    0  0.47920911688E+02 -0.12655811634E+02  0.51330775265E+02  0.71354269910E+02  0.00000000000E+00 0. -1.
         11    1    3    3    0    0 -0.24548785336E+02 -0.74833946701E+01 -0.17991870687E+02  0.31342486629E+02  0.00000000000E+00 0.  1.
</event>
<event>
 7    1  0.4274778E-006  0.8348707E+02  0.7561462E-02  0.1319437E+00
         -1   -1    0    0    0  501 -0.00000000000E+00  0.00000000000E+00  0.47373443270E+02  0.47373443270E+02  0.00000000000E+00 0. -1.
          1   -1    0    0  501    0  0.00000000000E+00 -0.00000000000E+00 -0.29465193445E+03  0.29465193445E+03  0.00000000000E+00 0.  1.
         23    2    1    2    0    0  0.30414277155E+02 -0.12194306064E+02 -0.13538634051E+03  0.17099040384E+03  0.99169187024E+02 0.  0.
          5    1    1    2  502    0 -0.28568911443E+02 -0.16784065821E+02 -0.13154882070E+03  0.13572196652E+03  0.41800000000E+01 0.  1.
         -5    1    1    2    0  502 -0.18453657114E+01  0.28978371885E+02  0.19656670036E+02  0.35313007357E+02  0.41800000000E+01 0.  1.
        -11    1    3    3    0    0  0.16307852237E+02 -0.55944335308E+02 -0.80928705278E+02  0.99725473354E+02  0.00000000000E+00 0. -1.
         11    1    3    3    0    0  0.14106424918E+02  0.43750029244E+02 -0.54457635230E+02  0.71264930489E+02  0.00000000000E+00 0.  1.
</event>
<event>
 7    1  0.4274778E-006  0.1107489E+03  0.7561462E-02  0.1259189E+00
          2   -1    0    0  501    0  0.00000000000E+00  0.00000000000E+00  0.63953121558E+02  0.63953121558E+02  0.00000000000E+00 0. -1.
         -2   -1    0    0    0  501 -0.00000000000E+00 -0.00000000000E+00 -0.25465331602E+03  0.25465331602E+03  0.00000000000E+00 0.  1.
         23    2    1    2    0    0 -0.30883837514E+01 -0.42926495215E+02 -0.28037587701E+02  0.10894233368E+03  0.96073428363E+02 0.  0.
          5    1    1    2  502    0  0.12665328975E+02 -0.42887398758E+02 -0.44217809209E+02  0.63027189224E+02  0.41800000000E+01 0.  1.
         -5    1    1    2    0  502 -0.95769452236E+01  0.85813893972E+02 -0.11844479755E+03  0.14663691467E+03  0.41800000000E+01 0.  1.
        -11    1    3    3    0    0  0.24681296358E+02  0.12852552874E+02 -0.36675104414E+02  0.46037134893E+02  0.00000000000E+00 0.  1.
         11    1    3    3    0    0 -0.27769680110E+02 -0.55779048089E+02  0.86375167132E+01  0.62905198784E+02  0.00000000000E+00 0. -1.
</event>
<event>
 7    1  0.4274778E-006  0.8067222E+02  0.7561462E-02  0.1327155E+00
          1   -1    0    0  501    0  0.00000000000E+00  0.00000000000E+00  0.42629899316E+03  0.42629899316E+03  0.00000000000E+00 0. -1.
         -1   -1    0    0    0  501 -0.00000000000E+00 -0.00000000000E+00 -0.32371750767E+02  0.32371750767E+02  0.00000000000E+00 0.  1.
         23    2    1    2    0    0  0.19679490601E+02 -0.36028069321E+02  0.20020881852E+03  0.22445139618E+03  0.92787682942E+02 0.  0.
          5    1    1    2  502    0  0.17567879931E+02  0.34073958491E+02  0.19285973553E+03  0.19667743908E+03  0.41800000000E+01 0. -1.
         -5    1    1    2    0  502 -0.37247370532E+02  0.19541108301E+01  0.85868834026E+00  0.37541908667E+02  0.41800000000E+01 0. -1.
        -11    1    3    3    0    0  0.18421735525E+02  0.21155221284E+02  0.17650895255E+02  0.33142990672E+02  0.00000000000E+00 0.  1.
         11    1    3    3    0    0  0.12577550760E+01 -0.57183290605E+02  0.18255792326E+03  0.19130840551E+03  0.00000000000E+00 0. -1.
</event>
<event>
 7    1  0.4274778E-006  0.9110973E+02  0.7561462E-02  0.1300186E+00
          2   -1    0    0  501    0  0.00000000000E+00  0.00000000000E+00  0.21605877895E+03  0.21605877895E+03  0.00000000000E+00 0. -1.
         -2   -1    0    0    0  501 -0.00000000000E+00 -0.00000000000E+00 -0.80653225978E+02  0.80653225978E+02  0.00000000000E+00 0.  1.
         23    2    1    2    0    0 -0.43223262691E+02 -0.41460628258E+02  0.11160416985E+03  0.15599269280E+03  0.91054902932E+02 0.  0.
          5    1    1    2  502    0  0.33907321970E+02  0.70145454226E+02 -0.26091209011E+02  0.82269768563E+02  0.41800000000E+01 0.  1.
         -5    1    1    2    0  502  0.93159407205E+01 -0.28684825968E+02  0.49892592138E+02  0.58449543561E+02  0.41800000000E+01 0.  1.
        -11    1    3    3    0    0 -0.17540888838E+01 -0.30908192188E+02 -0.53855416608E+01  0.31422877512E+02  0.00000000000E+00 0.  1.
         11    1    3    3    0    0 -0.41469173807E+02 -0.10552436069E+02  0.11698971151E+03  0.12456981529E+03  0.00000000000E+00 0. -1.
</event>
<event>
 7    1  0.4274778E-006  0.1067395E+03  0.7561462E-02  0.1266730E+00
         -1   -1    0    0    0  501 -0.00000000000E+00  0.00000000000E+00  0.99654719338E+03  0.99654719338E+03  0.00000000000E+00 0.  1.
          1   -1    0    0  501    0  0.00000000000E+00 -0.00000000000E+00 -0.12363231390E+02  0.12363231390E+02  0.00000000000E+00 0. -1.
         23    2    1    2    0    0  0.41911873217E+01  0.21566825071E+01  0.32221818903E+03  0.33520509186E+03  0.92280414711E+02 0.  0.
          5    1    1    2  502    0 -0.17628118995E+02 -0.59988255911E+02  0.26537728673E+03  0.27267548137E+03  0.41800000000E+01 0. -1.
         -5    1    1    2    0  502  0.13436931674E+02  0.57831573404E+02  0.39658848623E+03  0.40102985154E+03  0.41800000000E+01 0. -1.
        -11    1    3    3    0    0  0.45885903370E+02 -0.11708315718E+02  0.14116966687E+03  0.14890089197E+03  0.00000000000E+00 0.  1.
         11    1    3    3    0    0 -0.41694716048E+02  0.13864998226E+02  0.18104852216E+03  0.18630419990E+03  0.00000000000E+00 0. -1.
</event>
<event>
 7    1  0.4274778E-006  0.1830388E+03  0.7561462E-02  0.1164894E+00
         -2   -1    0    0    0  501 -0.00000000000E+00  0.00000000000E+00  0.62310087822E+02  0.62310087822E+02  0.00000000000E+00 0.  1.
          2   -1    0    0  501    0  0.00000000000E+00 -0.00000000000E+00 -0.77618803265E+03  0.77618803265E+03  0.00000000000E+00 0. -1.
         23    2    1    2    0    0 -0.13294837584E+03  0.84682618375E+02 -0.55355549191E+03  0.58121065198E+03  0.80843817682E+02 0.  0.
          5    1    1    2  502    0  0.29264842770E+02 -0.91856423486E+02 -0.66322699674E+02  0.11709059078E+03  0.41800000000E+01 0. -1.
         -5    1    1    2    0  502  0.10368353307E+03  0.71738051111E+01 -0.93999753248E+02  0.14019687771E+03  0.41800000000E+01 0. -1.
        -11    1    3    3    0    0 -0.70341201997E+02  0.73921738943E+02 -0.23212961996E+03  0.25356748342E+03  0.00000000000E+00 0.  1.
         11    1    3    3    0    0 -0.62607173844E+02  0.10760879432E+02 -0.32142587195E+03  0.32764316856E+03  0.00000000000E+00 0. -1.
</event>
<event>
 7    1  0.4274778E-006  0.1154971E+03  0.7561462E-02  0.1250716E+00
         -1   -1    0    0    0  501 -0.00000000000E+00  0.00000000000E+00  0.24868136596E+02  0.24868136596E+02  0.00000000000E+00 0.  1.
          1   -1    0    0  501    0  0.00000000000E+00 -0.00000000000E+00 -0.56441967883E+03  0.56441967883E+03  0.00000000000E+00 0. -1.
         23    2    1    2    0    0  0.33174832102E+02 -0.29057649427E+02 -0.27536655722E+03  0.29367909532E+03  0.92063856736E+02 0.  0.
          5    1    1    2  502    0  0.37995017641E+02  0.42270723356E+02 -0.85285876007E+02  0.10257479449E+03  0.41800000000E+01 0. -1.
         -5    1    1    2    0  502 -0.71169849743E+02 -0.13213073928E+02 -0.17889910901E+03  0.19303392561E+03  0.41800000000E+01 0. -1.
        -11    1    3    3    0    0 -0.92231007816E+01  0.28530995595E+02 -0.67659431936E+02  0.74005959406E+02  0.00000000000E+00 0.  1.
         11    1    3    3    0    0  0.42397932883E+02 -0.57588645022E+02 -0.20770712528E+03  0.21967313591E+03  0.00000000000E+00 0. -1.
</event>
<event>
 7    1  0.4274778E-006  0.7403930E+02  0.7561462E-02  0.1346872E+00
          1   -1    0    0  501    0  0.00000000000E+00  0.00000000000E+00  0.38913750830E+03  0.38913750830E+03  0.00000000000E+00 0. -1.
         -1   -1    0    0    0  501 -0.00000000000E+00 -0.00000000000E+00 -0.35774624993E+02  0.35774624993E+02  0.00000000000E+00 0.  1.
         23    2    1    2    0    0  0.12253384307E+02 -0.18972091164E+02  0.25950678936E+03  0.27565303543E+03  0.90170596919E+02 0.  0.
          5    1    1    2  502    0  0.17748404491E+02 -0.59052321106E+01  0.10639276935E+03  0.10810537174E+03  0.41800000000E+01 0. -1.
         -5    1    1    2    0  502 -0.30001788798E+02  0.24877323275E+02 -0.12536675398E+02  0.41153726130E+02  0.41800000000E+01 0.  1.
        -11    1    3    3    0    0 -0.13926659804E+02  0.30618855981E+02  0.13453532385E+03  0.13867667273E+03  0.00000000000E+00 0.  1.
         11    1    3    3    0    0  0.26180044111E+02 -0.49590947145E+02  0.12497146550E+03  0.13697636270E+03  0.00000000000E+00 0. -1.
</event>
<event>
 7    1  0.4274778E-006  0.1225324E+03  0.7561462E-02  0.1238977E+00
         -1   -1    0    0    0  501 -0.00000000000E+00  0.00000000000E+00  0.82945612900E+03  0.82945612900E+03  0.00000000000E+00 0.  1.
          1   -1    0    0  501    0  0.00000000000E+00 -0.00000000000E+00 -0.23157273969E+02  0.23157273969E+02  0.00000000000E+00 0. -1.
         23    2    1    2    0    0 -0.62389727722E+02 -0.23127756859E+02  0.19650017338E+03  0.22657097651E+03  0.91075342421E+02 0.  0.
          5    1    1    2  502    0  0.49323200070E+02 -0.48150407486E+02  0.30500613483E+03  0.31272584557E+03  0.41800000000E+01 0.  1.
         -5    1    1    2    0  502  0.13066527652E+02  0.71278164345E+02  0.30479254682E+03  0.31331658088E+03  0.41800000000E+01 0.  1.
        -11    1    3    3    0    0 -0.19248432009E+02 -0.49326652260E+02  0.14542325554E+03  0.15476286380E+03  0.00000000000E+00 0.  1.
         11    1    3    3    0    0 -0.43141295713E+02  0.26198895402E+02  0.51076917836E+02  0.71808112715E+02  0.00000000000E+00 0. -1.
</event>
<event>
 7    1  0.4274778E-006  0.1305104E+03  0.7561462E-02  0.1226700E+00
         -2   -1    0    0    0  501 -0.00000000000E+00  0.00000000000E+00  0.35286116352E+02  0.35286116352E+02  0.00000000000E+00 0.  1.
          2   -1    0    0  501    0  0.00000000000E+00 -0.00000000000E+00 -0.63286955915E+03  0.63286955915E+03  0.00000000000E+00 0. -1.
         23    2    1    2    0    0 -0.69856941479E+02 -0.80881609209E+00 -0.39683724811E+03  0.42152474331E+03  0.12378473769E+03 0.  0.
          5    1    1    2  502    0 -0.62850030970E+00 -0.47879971279E+02 -0.33230414011E+02  0.58434745466E+02  0.41800000000E+01 0.  1.
         -5    1    1    2    0  502  0.70485441788E+02  0.48688787371E+02 -0.16751578069E+03  0.18819618673E+03  0.41800000000E+01 0.  1.
        -11    1    3    3    0    0 -0.28696834443E+02 -0.53268347251E+02 -0.96699635163E+02  0.11406947255E+03  0.00000000000E+00 0.  1.
         11    1    3    3    0    0 -0.41160107036E+02  0.52459531159E+02 -0.30013761294E+03  0.30745527077E+03  0.00000000000E+00 0. -1.
</event>
<event>
 7    1  0.4274778E-006  0.1086439E+03  0.7561462E-02  0.1263102E+00
         -2   -1    0    0    0  501 -0.00000000000E+00  0.00000000000E+00  0.37007157718E+03  0.37007157718E+03  0.00000000000E+00 0.  1.
          2   -1    0    0  501    0  0.00000000000E+00 -0.00000000000E+00 -0.41520958175E+02  0.41520958175E+02  0.00000000000E+00 0. -1.
         23    2    1    2    0    0  0.28074528536E+02 -0.43890035663E+02  0.98659366210E+02  0.14473810141E+03  0.92200504742E+02 0.  0.
          5    1    1    2  502    0 -0.49613988657E+02  0.66147880598E+02  0.21838044179E+03  0.23354781038E+03  0.41800000000E+01 0. -1.
         -5    1    1    2    0  502  0.21539460122E+02 -0.22257844935E+02  0.11510811006E+02  0.33306623568E+02  0.41800000000E+01 0. -1.
        -11    1    3    3    0    0 -0.32624591590E+02 -0.17892397672E+02  0.20726373352E+02  0.42592069956E+02  0.00000000000E+00 0.  1.
         11    1    3    3    0    0  0.60699120125E+02 -0.25997637991E+02  0.77932992858E+02  0.10214603145E+03  0.00000000000E+00 0. -1.
</event>
<event>
 7    1  0.4274778E-006  0.1232609E+03  0.7561462E-02  0.1237813E+00
          1   -1    0    0  501    0  0.00000000000E+00  0.00000000000E+00  0.81862596051E+02  0.81862596051E+02  0.00000000000E+00 0. -1.
         -1   -1    0    0    0  501 -0.00000000000E+00 -0.00000000000E+00 -0.27837809702E+03  0.27837809702E+03  0.00000000000E+00 0.  1.
         23    2    1    2    0    0  0.80163810999E+02  0.45523206059E+02 -0.33667629618E+02  0.13515074358E+03  0.92917249870E+02 0.  0.
          5    1    1    2  502    0 -0.38815036248E+02  0.40817216069E+02 -0.82812838552E+02  0.10024016558E+03  0.41800000000E+01 0.  1.
         -5    1    1    2    0  502 -0.41348774751E+02 -0.86340422127E+02 -0.80035032801E+02  0.12484978391E+03  0.41800000000E+01 0.  1.
        -11    1    3    3    0    0  0.33558813437E+02  0.82921439465E+01  0.31526425143E+02  0.46785351263E+02  0.00000000000E+00 0. -1.
         11    1    3    3    0    0  0.46604997561E+02  0.37231062112E+02 -0.65194054761E+02  0.88365392320E+02  0.00000000000E+00 0.  1.
</event>
<event>
 7    1  0.4274778E-006  0.7377928E+02  0.7561462E-02  0.1347693E+00
          1   -1    0    0  501    0  0.00000000000E+00  0.00000000000E+00  0.83184518863E+02  0.83184518863E+02  0.00000000000E+00 0. -1.
         -1   -1    0    0    0  501 -0.00000000000E+00 -0.00000000000E+00 -0.16381539727E+03  0.16381539727E+03  0.00000000000E+00 0.  1.
         23    2    1    2    0    0 -0.20744726522E+01 -0.16910506917E+02  0.12744279121E+02  0.89978555393E+02  0.87426855710E+02 0.  0.
          5    1    1    2  502    0 -0.53577846474E+02 -0.13968093848E+02 -0.69406747816E+02  0.88884544893E+02  0.41800000000E+01 0.  1.
         -5    1    1    2    0  502  0.55652319127E+02  0.30878600765E+02 -0.23968409709E+02  0.68136815844E+02  0.41800000000E+01 0.  1.
        -11    1    3    3    0    0  0.10049855178E+02 -0.10504503100E+02  0.49055533654E+02  0.51164338719E+02  0.00000000000E+00 0. -1.
         11    1    3    3    0    0 -0.12124327830E+02 -0.64060038172E+01 -0.36311254533E+02  0.38814216674E+02  0.00000000000E+00 0.  1.
</event>
<event>
 7    1  0.4274778E-006  0.6568158E+02  0.7561462E-02  0.1375426E+00
         -1   -1    0    0    0  501 -0.00000000000E+00  0.00000000000E+00  0.68382935644E+02  0.68382935644E+02  0.00000000000E+00 0.  1.
          1   -1    0    0  501    0  0.00000000000E+00 -0.00000000000E+00 -0.18725144971E+03  0.18725144971E+03  0.00000000000E+00 0. -1.
         23    2    1    2    0    0  0.15053865539E+02  0.15027198352E+02 -0.83413405564E+02  0.12388973595E+03  0.89097894964E+02 0.  0.
          5    1    1    2  502    0  0.10135916004E+02 -0.13719468348E+01 -0.78825548745E+02  0.79596222061E+02  0.41800000000E+01 0.  1.
         -5    1    1    2    0  502 -0.25189781543E+02 -0.13655251517E+02  0.43370440241E+02  0.52148427348E+02  0.41800000000E+01 0.  1.
        -11    1    3    3    0    0  0.31150576420E+02  0.46521760711E+02 -0.55473928097E+02  0.78816174289E+02  0.00000000000E+00 0. -1.
         11    1    3    3    0    0 -0.16096710881E+02 -0.31494562359E+02 -0.27939477467E+02  0.45073561657E+02  0.00000000000E+00 0.  1.
</event>
<event>
 7    1  0.4274778E-006  0.2527984E+03  0.7561462E-02  0.1111549E+00
          2   -1    0    0  501    0  0.00000000000E+00  0.00000000000E+00  0.76450720501E+03  0.76450720501E+03  0.00000000000E+00 0. -1.
         -2   -1    0    0    0  501 -0.00000000000E+00 -0.00000000000E+00 -0.95511952183E+02  0.95511952183E+02  0.00000000000E+00 0.  1.
         23    2    1    2    0    0 -0.23075776185E+03 -0.80473161942E+02  0.39106778019E+03  0.46935770065E+03  0.87393180556E+02 0.  0.
          5    1    1    2  502    0  0.23867970581E+03  0.81327365407E+02  0.22814747208E+03  0.34007482081E+03  0.41800000000E+01 0.  1.
         -5    1    1    2    0  502 -0.79219439647E+01 -0.85420346425E+00  0.49780000550E+02  0.50586635731E+02  0.41800000000E+01 0.  1.
        -11    1    3    3    0    0 -0.10782732077E+03 -0.35857864415E+02  0.10457987635E+03  0.15443272996E+03  0.00000000000E+00 0. -1.
         11    1    3    3    0    0 -0.12293044108E+03 -0.44615297528E+02  0.28648790384E+03  0.31492497069E+03  0.00000000000E+00 0.  1.
</event>
<event>
 7    1  0.4274778E-006  0.1093936E+03  0.7561462E-02  0.1261697E+00
         -1   -1    0    0    0  501 -0.00000000000E+00  0.00000000000E+00  0.72919972501E+02  0.72919972501E+02  0.00000000000E+00 0.  1.
          1   -1    0    0  501    0  0.00000000000E+00 -0.00000000000E+00 -0.40501663085E+03  0.40501663085E+03  0.00000000000E+00 0. -1.
         23    2    1    2    0    0 -0.34503755735E+02  0.78155985694E+02 -0.29742224251E+03  0.32253743030E+03  0.90947987016E+02 0.  0.
          5    1    1    2  502    0  0.43931132544E+02 -0.68249034144E+02 -0.76244226059E+02  0.11143845600E+03  0.41800000000E+01 0.  1.
         -5    1    1    2    0  502 -0.94273768085E+01 -0.99069515495E+01  0.41569810219E+02  0.43960717057E+02  0.41800000000E+01 0.  1.
        -11    1    3    3    0    0  0.62774824833E+01 -0.17841221682E+02 -0.66809808551E+02  0.69435340397E+02  0.00000000000E+00 0.  1.
         11    1    3    3    0    0 -0.40781238219E+02  0.95997207375E+02 -0.23061243396E+03  0.25310208990E+03  0.00000000000E+00 0. -1.
</event>
<event>
 7    1  0.4274778E-006  0.1027160E+03  0.7561462E-02  0.1274686E+00
          1   -1    0    0  501    0  0.00000000000E+00  0.00000000000E+00  0.36056118466E+03  0.36056118466E+03  0.00000000000E+00 0. -1.
         -1   -1    0    0    0  501 -0.00000000000E+00 -0.00000000000E+00 -0.42031627141E+02  0.42031627141E+02  0.00000000000E+00 0.  1.
         23    2    1    2    0    0  0.49701627200E+02 -0.30534514947E+02  0.15039349169E+03  0.18506086742E+03  0.90701234598E+02 0.  0.
          5    1    1    2  502    0 -0.87725538622E+02  0.61275803942E+01  0.82678933984E+02  0.12077498041E+03  0.41800000000E+01 0. -1.
         -5    1    1    2    0  502  0.38023911422E+02  0.24406934552E+02  0.85457131840E+02  0.96756963969E+02  0.41800000000E+01 0. -1.
        -11    1    3    3    0    0  0.32827494633E+02  0.44965433754E+01  0.14129397356E+03  0.14512701427E+03  0.00000000000E+00 0. -1.
         11    1    3    3    0    0  0.16874132566E+02 -0.35031058322E+02  0.90995181283E+01  0.39933853147E+02  0.00000000000E+00 0.  1.
</event>
<event>
 7    1  0.4274778E-006  0.1010678E+03  0.7561462E-02  0.1278066E+00
          1   -1    0    0  501    0  0.00000000000E+00  0.00000000000E+00  0.24566954900E+03  0.24566954900E+03  0.00000000000E+00 0. -1.
         -1   -1    0    0    0  501 -0.00000000000E+00 -0.00000000000E+00 -0.51707551084E+02  0.51707551084E+02  0.00000000000E+00 0.  1.
         23    2    1    2    0    0 -0.16057063703E+02  0.13883333822E+02  0.11530182173E+03  0.14809533288E+03  0.90482823087E+02 0.  0.
          5    1    1    2  502    0  0.53514814580E+02  0.21725704675E+02  0.78353055321E+02  0.97429540188E+02  0.41800000000E+01 0.  1.
         -5    1    1    2    0  502 -0.37457750877E+02 -0.35609038496E+02  0.30712086660E+00  0.51852227017E+02  0.41800000000E+01 0.  1.
        -11    1    3    3    0    0 -0.42498530235E+02  0.37684877365E+02  0.62814793384E+02  0.84687503931E+02  0.00000000000E+00 0.  1.
         11    1    3    3    0    0  0.26441466533E+02 -0.23801543543E+02  0.52487028343E+02  0.63407828947E+02  0.00000000000E+00 0. -1.
</event>
<event>
 7    1  0.4274778E-006  0.1260329E+03  0.7561462E-02  0.1233464E+00
         -1   -1    0    0    0  501 -0.00000000000E+00  0.00000000000E+00  0.12270958277E+03  0.12270958277E+03  0.00000000000E+00 0.  1.
          1   -1    0    0  501    0  0.00000000000E+00 -0.00000000000E+00 -0.19361829506E+03  0.19361829506E+03  0.00000000000E+00 0. -1.
         23    2    1    2    0    0 -0.71267376013E+02  0.81266345215E+02 -0.48191037915E+02  0.14945782551E+03  0.91279831965E+02 0.  0.
          5    1    1    2  502    0 -0.43899655710E+01  0.17555043084E+02 -0.37125273498E+02  0.41511560651E+02  0.41800000000E+01 0. -1.
         -5    1    1    2    0  502  0.75657341584E+02 -0.98821388300E+02  0.14407599128E+02  0.12535849167E+03  0.41800000000E+01 0. -1.
        -11    1    3    3    0    0 -0.14003154979E+02  0.25172448721E+02 -0.61769099934E+02  0.68155427008E+02  0.00000000000E+00 0. -1.
         11    1    3    3    0    0 -0.57264221034E+02  0.56093896495E+02  0.13578062019E+02  0.81302398506E+02  0.00000000000E+00 0.  1.
</event>
<event>
 7    1  0.4274778E-006  0.1194046E+03  0.7561462E-02  0.1244083E+00
         -2   -1    0    0    0  501 -0.00000000000E+00  0.00000000000E+00  0.28713617594E+02  0.28713617594E+02  0.00000000000E+00 0.  1.
          2   -1    0    0  501    0  0.00000000000E+00 -0.00000000000E+00 -0.69753172221E+03  0.69753172221E+03  0.00000000000E+00 0. -1.
         23    2    1    2    0    0  0.89836865957E+01  0.50834275671E+02 -0.49555204552E+03  0.50639582966E+03  0.90554272510E+02 0.  0.
          5    1    1    2  502    0 -0.40156664241E+01  0.41606755310E+02 -0.44400259515E+02  0.61123670613E+02  0.41800000000E+01 0. -1.
         -5    1    1    2    0  502 -0.49680201716E+01 -0.92441030981E+02 -0.12886579958E+03  0.15872583953E+03  0.41800000000E+01 0. -1.
        -11    1    3    3    0    0  0.10558371824E+02  0.77099675983E+02 -0.37987600811E+03  0.38776490402E+03  0.00000000000E+00 0.  1.
         11    1    3    3    0    0 -0.15746852284E+01 -0.26265400313E+02 -0.11567603740E+03  0.11863092563E+03  0.00000000000E+00 0. -1.
</event>
<event>
 7    1  0.4274778E-006  0.1983322E+03  0.7561462E-02  0.1151154E+00
         -1   -1    0    0    0  501 -0.00000000000E+00  0.00000000000E+00  0.35430253639E+02  0.35430253639E+02  0.00000000000E+00 0.  1.
          1   -1    0    0  501    0  0.00000000000E+00 -0.00000000000E+00 -0.14698322297E+04  0.14698322297E+04  0.00000000000E+00 0. -1.
         23    2    1    2    0    0  0.14881076345E+03  0.12625151606E+03 -0.83762441742E+03  0.86504958886E+03  0.92801066304E+02 0.  0.
          5    1    1    2  502    0 -0.10876626579E+03 -0.84290496408E+02 -0.54575159472E+03  0.56284746059E+03  0.41800000000E+01 0. -1.
         -5    1    1    2    0  502 -0.40044497665E+02 -0.41961019648E+02 -0.51025963874E+02  0.77365433835E+02  0.41800000000E+01 0. -1.
        -11    1    3    3    0    0  0.12911705097E+03  0.83473357150E+02 -0.74974140118E+03  0.76534383309E+03  0.00000000000E+00 0. -1.
         11    1    3    3    0    0  0.19693712487E+02  0.42778158906E+02 -0.87883016239E+02  0.99705755772E+02  0.00000000000E+00 0.  1.
</event>
<event>
 7    1  0.4274778E-006  0.1337874E+03  0.7561462E-02  0.1221942E+00
         -2   -1    0    0    0  501 -0.00000000000E+00  0.00000000000E+00  0.29302407502E+02  0.29302407502E+02  0.00000000000E+00 0.  1.
          2   -1    0    0  501    0  0.00000000000E+00 -0.00000000000E+00 -0.67456000827E+03  0.67456000827E+03  0.00000000000E+00 0. -1.
         23    2    1    2    0    0  0.79602649997E+02  0.27059613199E+02 -0.27818116998E+03  0.30709378410E+03  0.99262401489E+02 0.  0.
          5    1    1    2  502    0 -0.88495975910E+02  0.22062494122E+02 -0.16500246389E+03  0.18857777411E+03  0.41800000000E+01 0.  1.
         -5    1    1    2    0  502  0.88933259126E+01 -0.49122107321E+02 -0.20207396690E+03  0.20819085756E+03  0.41800000000E+01 0.  1.
        -11    1    3    3    0    0 -0.15114959228E+02 -0.16107243296E+02 -0.83029675170E+02  0.85917589805E+02  0.00000000000E+00 0.  1.
         11    1    3    3    0    0  0.94717609225E+02  0.43166856494E+02 -0.19515149481E+03  0.22117619430E+03  0.00000000000E+00 0. -1.
</event>
<event>
 7    1  0.4274778E-006  0.9828591E+02  0.7561462E-02  0.1283942E+00
          2   -1    0    0  501    0  0.00000000000E+00  0.00000000000E+00  0.39398024545E+03  0.39398024545E+03  0.00000000000E+00 0. -1.
         -2   -1    0    0    0  501 -0.00000000000E+00 -0.00000000000E+00 -0.46951888374E+02  0.46951888374E+02  0.00000000000E+00 0.  1.
         23    2    1    2    0    0  0.19186441060E+02 -0.99966704722E+01  0.28647103267E+03  0.30027111448E+03  0.87344356953E+02 0.  0.
          5    1    1    2  502    0  0.16593303252E+02  0.60737984897E+02  0.19259795248E+02  0.65976152018E+02  0.41800000000E+01 0. -1.
         -5    1    1    2    0  502 -0.35779744312E+02 -0.50741314424E+02  0.41297529152E+02  0.74684867320E+02  0.41800000000E+01 0. -1.
        -11    1    3    3    0    0 -0.75299004984E+00  0.28169949427E+02  0.34027461853E+02  0.44181231365E+02  0.00000000000E+00 0.  1.
         11    1    3    3    0    0  0.19939431110E+02 -0.38166619900E+02  0.25244357082E+03  0.25608988312E+03  0.00000000000E+00 0. -1.
</event>
<event>
 7    1  0.4274778E-006  0.1131375E+03  0.7561462E-02  0.1254868E+00
          2   -1    0    0  501    0  0.00000000000E+00  0.00000000000E+00  0.55637221641E+03  0.55637221641E+03  0.00000000000E+00 0. -1.
         -2   -1    0    0    0  501 -0.00000000000E+00 -0.00000000000E+00 -0.26452640647E+02  0.26452640647E+02  0.00000000000E+00 0.  1.
         23    2    1    2    0    0 -0.58189444620E+02 -0.26791076215E+02  0.28053623997E+03  0.30244523723E+03  0.93106210097E+02 0.  0.
          5    1    1    2  502    0  0.29260192042E+02  0.67981758058E+02  0.17905858649E+03  0.19379661520E+03  0.41800000000E+01 0. -1.
         -5    1    1    2    0  502  0.28929252578E+02 -0.41190681842E+02  0.70324749307E+02  0.86583004629E+02  0.41800000000E+01 0.  1.
        -11    1    3    3    0    0  0.18666662597E+02  0.35647254610E+01  0.14595144240E+02  0.23961840403E+02  0.00000000000E+00 0.  1.
         11    1    3    3    0    0 -0.76856107217E+02 -0.30355801676E+02  0.26594109573E+03  0.27848339683E+03  0.00000000000E+00 0. -1.
</event>
<event>
 7    1  0.4274778E-006  0.9249644E+02  0.7561462E-02  0.1296916E+00
          1   -1    0    0  501    0  0.00000000000E+00  0.00000000000E+00  0.53430485662E+02  0.53430485662E+02  0.00000000000E+00 0. -1.
         -1   -1    0    0    0  501 -0.00000000000E+00 -0.00000000000E+00 -0.26459868309E+03  0.26459868309E+03  0.00000000000E+00 0.  1.
         23    2    1    2    0    0  0.16617445390E+02  0.33783150534E+02 -0.48763272882E+02  0.10960667785E+03  0.90654984946E+02 0.  0.
          5    1    1    2  502    0 -0.48987460937E+02 -0.28383309729E+02 -0.16572022233E+03  0.17517433627E+03  0.41800000000E+01 0. -1.
         -5    1    1    2    0  502  0.32370015547E+02 -0.53998408055E+01  0.33152977770E+01  0.33248154635E+02  0.41800000000E+01 0. -1.
        -11    1    3    3    0    0 -0.36161381670E+02  0.13718573916E+02 -0.33369075300E+02  0.51081699080E+02  0.00000000000E+00 0.  1.
         11    1    3    3    0    0  0.52778827060E+02  0.20064576618E+02 -0.15394197582E+02  0.58524978769E+02  0.00000000000E+00 0. -1.
</event>
<event>
 7    1  0.4274778E-006  0.1139938E+03  0.7561462E-02  0.1253348E+00
         -3   -1    0    0    0  501 -0.00000000000E+00  0.00000000000E+00  0.25016132041E+02  0.25016132041E+02  0.00000000000E+00 0.  1.
          3   -1    0    0  501    0  0.00000000000E+00 -0.00000000000E+00 -0.60923293092E+03  0.60923293092E+03  0.00000000000E+00 0. -1.
         23    2    1    2    0    0 -0.42598621072E+02  0.25367701803E+02 -0.33694803007E+03  0.35273485928E+03  0.91813632797E+02 0.  0.
          5    1    1    2  502    0  0.73175019052E+00 -0.69263384062E+02 -0.95761931974E+02  0.11826145545E+03  0.41800000000E+01 0.  1.
         -5    1    1    2    0  502  0.41866870881E+02  0.43895682259E+02 -0.15150683683E+03  0.16325274823E+03  0.41800000000E+01 0.  1.
        -11    1    3    3    0    0 -0.18577668286E+02 -0.31212140903E+02 -0.19013669416E+03  0.19357502413E+03  0.00000000000E+00 0.  1.
         11    1    3    3    0    0 -0.24020952786E+02  0.56579842706E+02 -0.14681133591E+03  0.15915983515E+03  0.00000000000E+00 0. -1.
</event>
<event>
 7    1  0.4274778E-006  0.1141076E+03  0.7561462E-02  0.1253147E+00
         -2   -1    0    0    0  501 -0.00000000000E+00  0.00000000000E+00  0.32265490945E+03  0.32265490945E+03  0.00000000000E+00 0.  1.
          2   -1    0    0  501    0  0.00000000000E+00 -0.00000000000E+00 -0.14150952137E+03  0.14150952137E+03  0.00000000000E+00 0. -1.
         23    2    1    2    0    0  0.44168084634E+02  0.20805345985E+01 -0.10504051562E+03  0.14204717843E+03  0.84786453248E+02 0.  0.
          5    1    1    2  502    0  0.43887425214E+02  0.10061225362E+02  0.40108208177E+02  0.60443983248E+02  0.41800000000E+01 0. -1.
         -5    1    1    2    0  502 -0.88055509848E+02 -0.12141759961E+02  0.24607769552E+03  0.26167326914E+03  0.41800000000E+01 0.  1.
        -11    1    3    3    0    0  0.16918779723E+02 -0.40252626682E+02 -0.61878797178E+02  0.75733114305E+02  0.00000000000E+00 0.  1.
         11    1    3    3    0    0  0.27249304911E+02  0.42333161281E+02 -0.43161718441E+02  0.66314064126E+02  0.00000000000E+00 0. -1.
</event>
<event>
 6    1  0.4274778E-006  0.1126340E+03  0.7561462E-02  0.1255768E+00
          1   -1    0    0  501    0  0.00000000000E+00  0.00000000000E+00  0.22199001137E+03  0.22199001137E+03  0.00000000000E+00 0. -1.
         -1   -1    0    0    0  501 -0.00000000000E+00 -0.00000000000E+00 -0.83379061895E+02  0.83379061895E+02  0.00000000000E+00 0.  1.
          5    1    1    2  502    0 -0.58265231629E+01  0.46064705840E+02  0.82067136024E+02  0.94384282121E+02  0.41800000000E+01 0. -1.
         -5    1    1    2    0  502 -0.32119339650E+02 -0.12424138827E+02 -0.26087311043E+02  0.43405430566E+02  0.41800000000E+01 0.  1.
        -11    1    1    2    0    0 -0.30715401458E+02  0.35207975731E+02  0.39607734714E+02  0.61252021117E+02  0.00000000000E+00 0.  1.
         11    1    1    2    0    0  0.68661264270E+02 -0.68848542743E+02  0.43023389782E+02  0.10632733946E+03  0.00000000000E+00 0. -1.
</event>
<event>
 7    1  0.4274778E-006  0.1043507E+03  0.7561462E-02  0.1271404E+00
          2   -1    0    0  501    0  0.00000000000E+00  0.00000000000E+00  0.13375966427E+02  0.13375966427E+02  0.00000000000E+00 0. -1.
         -2   -1    0    0    0  501 -0.00000000000E+00 -0.00000000000E+00 -0.22038113170E+04  0.22038113170E+04  0.00000000000E+00 0.  1.
         23    2    1    2    0    0 -0.65090013917E+02  0.26045846830E+02 -0.30219435591E+03  0.32350821184E+03  0.91766215652E+02 0.  0.
          5    1    1    2  502    0  0.58350380426E+02  0.28156844169E+02 -0.15199934050E+04  0.15213793079E+04  0.41800000000E+01 0. -1.
         -5    1    1    2    0  502  0.67396334903E+01 -0.54202690998E+02 -0.36824758957E+03  0.37229976363E+03  0.41800000000E+01 0. -1.
        -11    1    3    3    0    0 -0.27078596585E+02  0.40172427171E+02 -0.26189304987E+03  0.26633633599E+03  0.00000000000E+00 0.  1.
         11    1    3    3    0    0 -0.38011417331E+02 -0.14126580341E+02 -0.40301306038E+02  0.57171875848E+02  0.00000000000E+00 0. -1.
</event>
<event>
 7    1  0.4274778E-006  0.1396379E+03  0.7561462E-02  0.1213817E+00
         -2   -1    0    0    0  501 -0.00000000000E+00  0.00000000000E+00  0.14397381692E+03  0.14397381692E+03  0.00000000000E+00 0.  1.
          2   -1    0    0  501    0  0.00000000000E+00 -0.00000000000E+00 -0.20133281476E+03  0.20133281476E+03  0.00000000000E+00 0. -1.
         23    2    1    2    0    0 -0.85932296924E+01  0.12552277868E+03 -0.68566680169E+02  0.16753409069E+03  0.86812846696E+02 0.  0.
          5    1    1    2  502    0 -0.37957250449E+02 -0.77556982052E+02  0.50507936580E+02  0.10012173782E+03  0.41800000000E+01 0. -1.
         -5    1    1    2    0  502  0.46550480141E+02 -0.47965796624E+02 -0.39300254253E+02  0.77650803161E+02  0.41800000000E+01 0. -1.
        -11    1    3    3    0    0 -0.73434685734E+01  0.85734984070E+02  0.24919374303E+01  0.86084979969E+02  0.00000000000E+00 0.  1.
         11    1    3    3    0    0 -0.12497611190E+01  0.39787794607E+02 -0.71058617599E+02  0.81449110723E+02  0.00000000000E+00 0. -1.
</event>
<event>
 7    1  0.4274778E-006  0.1760234E+03  0.7561462E-02  0.1171708E+00
         -2   -1    0    0    0  501 -0.00000000000E+00  0.00000000000E+00  0.31190928530E+02  0.31190928530E+02  0.00000000000E+00 0.  1.
          2   -1    0    0  501    0  0.00000000000E+00 -0.00000000000E+00 -0.11101743570E+04  0.11101743570E+04  0.00000000000E+00 0. -1.
         23    2    1    2    0    0 -0.96690810624E+02 -0.11478085419E+03 -0.46087901938E+03  0.49311897575E+03  0.90736411636E+02 0.  0.
          5    1    1    2  502    0  0.21923672990E+01  0.97593944889E+02 -0.35192318386E+03  0.36523524514E+03  0.41800000000E+01 0. -1.
         -5    1    1    2    0  502  0.94498443325E+02  0.17186909304E+02 -0.26618122527E+03  0.28301106468E+03  0.41800000000E+01 0. -1.
        -11    1    3    3    0    0 -0.21236146425E+02 -0.48318403496E+00 -0.13317303636E+02  0.25071058173E+02  0.00000000000E+00 0.  1.
         11    1    3    3    0    0 -0.75454664200E+02 -0.11429767016E+03 -0.44756171574E+03  0.46804791758E+03  0.00000000000E+00 0. -1.
</event>
<event>
 7    1  0.4274778E-006  0.9568627E+02  0.7561462E-02  0.1289638E+00
         -2   -1    0    0    0  501 -0.00000000000E+00  0.00000000000E+00  0.27419887545E+02  0.27419887545E+02  0.00000000000E+00 0.  1.
          2   -1    0    0  501    0  0.00000000000E+00 -0.00000000000E+00 -0.53266872271E+03  0.53266872271E+03  0.00000000000E+00 0. -1.
         23    2    1    2    0    0  0.18970431437E+02 -0.48868094043E+02 -0.22263855158E+03  0.24661673842E+03  0.92216718290E+02 0.  0.
          5    1    1    2  502    0  0.26668361823E+02 -0.86477037321E+00 -0.46532703805E+01  0.27405741649E+02  0.41800000000E+01 0. -1.
         -5    1    1    2    0  502 -0.45638793260E+02  0.49732864417E+02 -0.27795701321E+03  0.28606613019E+03  0.41800000000E+01 0. -1.
        -11    1    3    3    0    0 -0.24566992771E+01 -0.67979313128E+02 -0.10195242714E+03  0.12256230981E+03  0.00000000000E+00 0.  1.
         11    1    3    3    0    0  0.21427130714E+02  0.19111219085E+02 -0.12068612444E+03  0.12405442861E+03  0.00000000000E+00 0. -1.
</event>
<event>
 7    1  0.4274778E-006  0.1455537E+03  0.7561462E-02  0.1206045E+00
         -3   -1    0    0    0  501 -0.00000000000E+00  0.00000000000E+00  0.39803990479E+03  0.39803990479E+03  0.00000000000E+00 0.  1.
          3   -1    0    0  501    0  0.00000000000E+00 -0.00000000000E+00 -0.71865133641E+02  0.71865133641E+02  0.00000000000E+00 0. -1.
         23    2    1    2    0    0  0.95702473445E+02  0.84801538678E+02  0.12425165225E+03  0.20013711858E+03  0.90918253176E+02 0.  0.
          5    1    1    2  502    0 -0.38247798221E+02 -0.90020066376E+02  0.55963240963E+02  0.11276463612E+03  0.41800000000E+01 0.  1.
         -5    1    1    2    0  502 -0.57454675224E+02  0.52185276980E+01  0.14595987794E+03  0.15700328374E+03  0.41800000000E+01 0.  1.
        -11    1    3    3    0    0  0.30144182504E+01  0.24734695449E+02  0.75318608831E+02  0.79333377040E+02  0.00000000000E+00 0.  1.
         11    1    3    3    0    0  0.92688055195E+02  0.60066843230E+02  0.48933043414E+02  0.12080374154E+03  0.00000000000E+00 0. -1.
</event>
<event>
 7    1  0.4274778E-006  0.7037387E+02  0.7561462E-02  0.1358826E+00
          2   -1    0    0  501    0  0.00000000000E+00  0.00000000000E+00  0.21067419877E+03  0.21067419877E+03  0.00000000000E+00 0. -1.
         -2   -1    0    0    0  501 -0.00000000000E+00 -0.00000000000E+00 -0.90539587329E+02  0.90539587329E+02  0.00000000000E+00 0.  1.
         23    2    1    2    0    0  0.46811946125E+02  0.11199704007E+02  0.13118807027E+03  0.16673648815E+03  0.90961283136E+02 0.  0.
          5    1    1    2  502    0 -0.29805434184E+02 -0.60384230642E+01  0.56608270842E+02  0.64395614662E+02  0.41800000000E+01 0.  1.
         -5    1    1    2    0  502 -0.17006511941E+02 -0.51612809423E+01 -0.67661729674E+02  0.70081683283E+02  0.41800000000E+01 0.  1.
        -11    1    3    3    0    0 -0.48950026495E+01  0.34666603679E+02  0.16378062837E+02  0.38651978007E+02  0.00000000000E+00 0.  1.
         11    1    3    3    0    0  0.51706948774E+02 -0.23466899673E+02  0.11481000744E+03  0.12808451015E+03  0.00000000000E+00 0. -1.
</event>
<event>
 7    1  0.4274778E-006  0.2050079E+03  0.7561462E-02  0.1145581E+00
         -1   -1    0    0    0  501 -0.00000000000E+00  0.00000000000E+00  0.93548228984E+02  0.93548228984E+02  0.00000000000E+00 0.  1.
          1   -1    0    0  501    0  0.00000000000E+00 -0.00000000000E+00 -0.64364044267E+03  0.64364044267E+03  0.00000000000E+00 0. -1.
         23    2    1    2    0    0 -0.86515357136E+02 -0.14704450387E+03 -0.46282733377E+03  0.50095709490E+03  0.87417829420E+02 0.  0.
          5    1    1    2  502    0 -0.37328113324E+02  0.37296918629E+02 -0.11397864572E+02  0.54146393235E+02  0.41800000000E+01 0. -1.
         -5    1    1    2    0  502  0.12384347046E+03  0.10974758524E+03 -0.75867015344E+02  0.18208518353E+03  0.41800000000E+01 0.  1.
        -11    1    3    3    0    0 -0.92519988553E+02 -0.74563103679E+02 -0.27758561322E+03  0.30194929604E+03  0.00000000000E+00 0. -1.
         11    1    3    3    0    0  0.60046314173E+01 -0.72481400194E+02 -0.18524172056E+03  0.19900779886E+03  0.00000000000E+00 0.  1.
</event>
<event>
 7    1  0.4274778E-006  0.9684534E+02  0.7561462E-02  0.1287073E+00
         -1   -1    0    0    0  501 -0.00000000000E+00  0.00000000000E+00  0.86580771529E+02  0.86580771529E+02  0.00000000000E+00 0.  1.
          1   -1    0    0  501    0  0.00000000000E+00 -0.00000000000E+00 -0.15117467432E+03  0.15117467432E+03  0.00000000000E+00 0. -1.
         23    2    1    2    0    0  0.17635288157E+02  0.45486693539E+02  0.26089975201E+01  0.87615638571E+02  0.72729984027E+02 0.  0.
          5    1    1    2  502    0  0.38627135869E+02  0.31615822602E+01  0.12602831043E+02  0.40967730937E+02  0.41800000000E+01 0.  1.
         -5    1    1    2    0  502 -0.56262424026E+02 -0.48648275799E+02 -0.79805731354E+02  0.10917207634E+03  0.41800000000E+01 0.  1.
        -11    1    3    3    0    0 -0.33462864782E+01  0.56444359377E+02  0.18049295096E+02  0.59354362873E+02  0.00000000000E+00 0.  1.
         11    1    3    3    0    0  0.20981574635E+02 -0.10957665838E+02 -0.15440297576E+02  0.28261275697E+02  0.00000000000E+00 0. -1.
</event>
<event>
 7    1  0.4274778E-006  0.9411573E+02  0.7561462E-02  0.1293180E+00
         -3   -1    0    0    0  501 -0.00000000000E+00  0.00000000000E+00  0.21480196938E+02  0.21480196938E+02  0.00000000000E+00 0.  1.
          3   -1    0    0  501    0  0.00000000000E+00 -0.00000000000E+00 -0.55127896563E+03  0.55127896563E+03  0.00000000000E+00 0. -1.
         23    2    1    2    0    0  0.20863213506E+02 -0.23461548914E+02 -0.29677271565E+03  0.31102587575E+03  0.87620389633E+02 0.  0.
          5    1    1    2  502    0 -0.20681398967E+02  0.69342018940E+02 -0.12914398999E+03  0.14809347860E+03  0.41800000000E+01 0. -1.
         -5    1    1    2    0  502 -0.18181453875E+00 -0.45880470026E+02 -0.10388206306E+03  0.11363980822E+03  0.41800000000E+01 0.  1.
        -11    1    3    3    0    0  0.40374224011E+02 -0.28630674298E+02 -0.28122625601E+03  0.28554859577E+03  0.00000000000E+00 0. -1.
         11    1    3    3    0    0 -0.19511010504E+02  0.51691253837E+01 -0.15546459635E+02  0.25477279983E+02  0.00000000000E+00 0.  1.
</event>
<event>
 7    1  0.4274778E-006  0.8577827E+02  0.7561462E-02  0.1313410E+00
         -1   -1    0    0    0  501 -0.00000000000E+00  0.00000000000E+00  0.71496505815E+03  0.71496505815E+03  0.00000000000E+00 0.  1.
          1   -1    0    0  501    0  0.00000000000E+00 -0.00000000000E+00 -0.18117576223E+02  0.18117576223E+02  0.00000000000E+00 0. -1.
         23    2    1    2    0    0 -0.10994711735E+02  0.23824336797E+02  0.22358532156E+03  0.24286660646E+03  0.91133472488E+02 0.  0.
          5    1    1    2  502    0  0.40255395056E+02 -0.37220703622E+02  0.44114405678E+03  0.44455756527E+03  0.41800000000E+01 0.  1.
         -5    1    1    2    0  502 -0.29260683321E+02  0.13396366825E+02  0.32118103590E+02  0.45658462641E+02  0.41800000000E+01 0.  1.
        -11    1    3    3    0    0  0.12690273530E+02 -0.26011425832E+02  0.30475850355E+02  0.42028737442E+02  0.00000000000E+00 0. -1.
         11    1    3    3    0    0 -0.23684985265E+02  0.49835762629E+02  0.19310947120E+03  0.20083786902E+03  0.00000000000E+00 0.  1.
</event>
<event>
 7    1  0.4274778E-006  0.1606273E+03  0.7561462E-02  0.1187990E+00
         -1   -1    0    0    0  501 -0.00000000000E+00  0.00000000000E+00  0.75204995147E+02  0.75204995147E+02  0.00000000000E+00 0.  1.
          1   -1    0    0  501    0  0.00000000000E+00 -0.00000000000E+00 -0.76854672681E+03  0.76854672681E+03  0.00000000000E+00 0. -1.
         23    2    1    2    0    0 -0.51460928143E+02  0.14059629768E+03 -0.60472793772E+03  0.62948469897E+03  0.90219518544E+02 0.  0.
          5    1    1    2  502    0  0.19333040920E+02 -0.18373244474E+02  0.30376044489E+02  0.40638886088E+02  0.41800000000E+01 0. -1.
         -5    1    1    2    0  502  0.32127887223E+02 -0.12222305321E+03 -0.11898983843E+03  0.17362813690E+03  0.41800000000E+01 0. -1.
        -11    1    3    3    0    0  0.19088037444E+02  0.46031047718E+02 -0.27031384805E+03  0.27486867224E+03  0.00000000000E+00 0. -1.
         11    1    3    3    0    0 -0.70548965587E+02  0.94565249967E+02 -0.33441408967E+03  0.35461602673E+03  0.00000000000E+00 0.  1.
</event>
<event>
 7    1  0.4274778E-006  0.9986238E+02  0.7561462E-02  0.1280586E+00
          2   -1    0    0  501    0  0.00000000000E+00  0.00000000000E+00  0.23694794345E+02  0.23694794345E+02  0.00000000000E+00 0. -1.
         -2   -1    0    0    0  501 -0.00000000000E+00 -0.00000000000E+00 -0.48237883539E+03  0.48237883539E+03  0.00000000000E+00 0.  1.
         23    2    1    2    0    0 -0.41892881662E+01 -0.39788583969E+02 -0.14168262588E+03  0.16294347611E+03  0.69827848174E+02 0.  0.
          5    1    1    2  502    0 -0.27045420524E+02  0.75384052673E+02 -0.23544784072E+03  0.24873151844E+03  0.41800000000E+01 0. -1.
         -5    1    1    2    0  502  0.31234708690E+02 -0.35595468704E+02 -0.81553574445E+02  0.94398635181E+02  0.41800000000E+01 0. -1.
        -11    1    3    3    0    0 -0.26006492759E+02  0.67555339282E+00 -0.90415615422E+02  0.94083885709E+02  0.00000000000E+00 0.  1.
         11    1    3    3    0    0  0.21817204593E+02 -0.40464137362E+02 -0.51267010459E+02  0.68859590400E+02  0.00000000000E+00 0. -1.
</event>
<event>
 7    1  0.4274778E-006  0.1352980E+03  0.7561462E-02  0.1219800E+00
         -2   -1    0    0    0  501 -0.00000000000E+00  0.00000000000E+00  0.82953297436E+02  0.82953297436E+02  0.00000000000E+00 0.  1.
          2   -1    0    0  501    0  0.00000000000E+00 -0.00000000000E+00 -0.25543560053E+03  0.25543560053E+03  0.00000000000E+00 0. -1.
         23    2    1    2    0    0  0.94907191513E+02  0.16702311088E+02 -0.92577433900E+02  0.16141403229E+03  0.90540412828E+02 0.  0.
          5    1    1    2  502    0 -0.10368347161E+03 -0.53456384082E+02 -0.74746501827E+02  0.13860865492E+03  0.41800000000E+01 0. -1.
         -5    1    1    2    0  502  0.87762800996E+01  0.36754072994E+02 -0.51583673712E+01  0.38366210759E+02  0.41800000000E+01 0. -1.
        -11    1    3    3    0    0 -0.38487725051E+01 -0.12329044215E+02 -0.47174692207E+02  0.48910836896E+02  0.00000000000E+00 0. -1.
         11    1    3    3    0    0  0.98755964018E+02  0.29031355303E+02 -0.45402741693E+02  0.11250319539E+03  0.00000000000E+00 0.  1.
</event>
<event>
 7    1  0.4274778E-006  0.2297044E+03  0.7561462E-02  0.1126848E+00
          1   -1    0    0  501    0  0.00000000000E+00  0.00000000000E+00  0.97440943245E+03  0.97440943245E+03  0.00000000000E+00 0. -1.
         -1   -1    0    0    0  501 -0.00000000000E+00 -0.00000000000E+00 -0.57997363786E+02  0.57997363786E+02  0.00000000000E+00 0.  1.
         23    2    1    2    0    0  0.16245384069E+03 -0.12661412665E+03  0.54555084162E+03  0.59013139081E+03  0.90592219309E+02 0.  0.
          5    1    1    2  502    0 -0.15266613340E+03  0.53434499388E+02  0.20891732269E+03  0.26424631338E+03  0.41800000000E+01 0.  1.
         -5    1    1    2    0  502 -0.97877072844E+01  0.73179627262E+02  0.16194390435E+03  0.17802909205E+03  0.41800000000E+01 0.  1.
        -11    1    3    3    0    0  0.12425393555E+03 -0.42577257140E+02  0.35161664513E+03  0.37534800980E+03  0.00000000000E+00 0.  1.
         11    1    3    3    0    0  0.38199905142E+02 -0.84036869511E+02  0.19393419649E+03  0.21478338101E+03  0.00000000000E+00 0. -1.
</event>
<event>
 7    1  0.4274778E-006  0.9178792E+02  0.7561462E-02  0.1298579E+00
         -1   -1    0    0    0  501 -0.00000000000E+00  0.00000000000E+00  0.77687398727E+02  0.77687398727E+02  0.00000000000E+00 0.  1.
          1   -1    0    0  501    0  0.00000000000E+00 -0.00000000000E+00 -0.24083010394E+03  0.24083010394E+03  0.00000000000E+00 0. -1.
         23    2    1    2    0    0  0.24767370000E+02 -0.41106343124E+02 -0.15351413459E+03  0.18419740248E+03  0.89771596286E+02 0.  0.
          5    1    1    2  502    0 -0.35542740794E+02 -0.12408750527E+02  0.43741376986E+02  0.57862284551E+02  0.41800000000E+01 0.  1.
         -5    1    1    2    0  502  0.10775370794E+02  0.53515093651E+02 -0.53369947616E+02  0.76457815642E+02  0.41800000000E+01 0.  1.
        -11    1    3    3    0    0  0.25033021925E+02 -0.63654171404E+02 -0.70714405538E+02  0.98382075982E+02  0.00000000000E+00 0.  1.
         11    1    3    3    0    0 -0.26565192518E+00  0.22547828280E+02 -0.82799729047E+02  0.85815326494E+02  0.00000000000E+00 0. -1.
</event>
<event>
 7    1  0.4274778E-006  0.1860813E+03  0.7561462E-02  0.1162044E+00
         -1   -1    0    0    0  501 -0.00000000000E+00  0.00000000000E+00  0.12292701370E+03  0.12292701370E+03  0.00000000000E+00 0.  1.
          1   -1    0    0  501    0  0.00000000000E+00 -0.00000000000E+00 -0.40949834795E+03  0.40949834795E+03  0.00000000000E+00 0. -1.
         23    2    1    2    0    0  0.12462536769E+03 -0.13745003710E+03 -0.21164389756E+03  0.29644763583E+03  0.93080967139E+02 0.  0.
          5    1    1    2  502    0 -0.35650191380E+02  0.50024921159E+02  0.33987782445E+02  0.70328306093E+02  0.41800000000E+01 0.  1.
         -5    1    1    2    0  502 -0.88975176310E+02  0.87425115936E+02 -0.10891521913E+03  0.16564941972E+03  0.41800000000E+01 0.  1.
        -11    1    3    3    0    0  0.11602277670E+03 -0.12397972838E+03 -0.22039977017E+03  0.27822350090E+03  0.00000000000E+00 0. -1.
         11    1    3    3    0    0  0.86025909922E+01 -0.13470308713E+02  0.87558726107E+01  0.18224134926E+02  0.00000000000E+00 0.  1.
</event>
<event>
 7    1  0.4274778E-006  0.1220701E+03  0.7561462E-02  0.1239721E+00
         -4   -1    0    0    0  501 -0.00000000000E+00  0.00000000000E+00  0.47070159010E+02  0.47070159010E+02  0.00000000000E+00 0.  1.
          4   -1    0    0  501    0  0.00000000000E+00 -0.00000000000E+00 -0.50333228505E+03  0.50333228505E+03  0.00000000000E+00 0. -1.
         23    2    1    2    0    0  0.29355277142E+02 -0.10152512061E+03 -0.25817160617E+03  0.29339041787E+03  0.90864055915E+02 0.  0.
          5    1    1    2  502    0 -0.46030164812E+02  0.10697123074E+03 -0.20650331944E+03  0.23711329279E+03  0.41800000000E+01 0. -1.
         -5    1    1    2    0  502  0.16674887670E+02 -0.54461101325E+01  0.84127995663E+01  0.19898733400E+02  0.41800000000E+01 0. -1.
        -11    1    3    3    0    0  0.35272372856E+02 -0.85140374519E+02 -0.26002352465E+03  0.27587181268E+03  0.00000000000E+00 0. -1.
         11    1    3    3    0    0 -0.59170957134E+01 -0.16384746086E+02  0.18519184760E+01  0.17518605196E+02  0.00000000000E+00 0.  1.
</event>
<event>
 7    1  0.4274778E-006  0.1113816E+03  0.7561462E-02  0.1258032E+00
          1   -1    0    0  501    0  0.00000000000E+00  0.00000000000E+00  0.45149338288E+03  0.45149338288E+03  0.00000000000E+00 0. -1.
         -1   -1    0    0    0  501 -0.00000000000E+00 -0.00000000000E+00 -0.29380800006E+02  0.29380800006E+02  0.00000000000E+00 0.  1.
         23    2    1    2    0    0  0.12100977161E+00  0.43065249906E+02  0.18955887957E+03  0.21332340705E+03  0.87861691182E+02 0.  0.
          5    1    1    2  502    0 -0.29373705921E+02 -0.75519281907E+02  0.18917102695E+03  0.20583762138E+03  0.41800000000E+01 0. -1.
         -5    1    1    2    0  502  0.29252696150E+02  0.32454032001E+02  0.43382676349E+02  0.61713154452E+02  0.41800000000E+01 0. -1.
        -11    1    3    3    0    0  0.43633152243E+02  0.15912053226E+02  0.84928479347E+02  0.96798202549E+02  0.00000000000E+00 0.  1.
         11    1    3    3    0    0 -0.43512142472E+02  0.27153196680E+02  0.10463040023E+03  0.11652520450E+03  0.00000000000E+00 0. -1.
</event>
<event>
 7    1  0.4274778E-006  0.2258624E+03  0.7561462E-02  0.1129586E+00
          2   -1    0    0  501    0  0.00000000000E+00  0.00000000000E+00  0.11494307863E+04  0.11494307863E+04  0.00000000000E+00 0. -1.
         -2   -1    0    0    0  501 -0.00000000000E+00 -0.00000000000E+00 -0.76906317999E+02  0.76906317999E+02  0.00000000000E+00 0.  1.
         23    2    1    2    0    0  0.20933816498E+03  0.54854478477E+02  0.89115588623E+03  0.92140054423E+03  0.89379350089E+02 0.  0.
          5    1    1    2  502    0 -0.39807801081E+02 -0.22537006494E+02 -0.10204841183E+02  0.47055168390E+02  0.41800000000E+01 0. -1.
         -5    1    1    2    0  502 -0.16953036389E+03 -0.32317471983E+02  0.19157342326E+03  0.25788139169E+03  0.41800000000E+01 0.  1.
        -11    1    3    3    0    0  0.95792317051E+02 -0.19061658413E+02  0.41549814812E+03  0.42682341304E+03  0.00000000000E+00 0.  1.
         11    1    3    3    0    0  0.11354584792E+03  0.73916136891E+02  0.47565773811E+03  0.49457713119E+03  0.00000000000E+00 0. -1.
</event>
<event>
 7    1  0.4274778E-006  0.1196356E+03  0.7561462E-02  0.1243699E+00
          1   -1    0    0  501    0  0.00000000000E+00  0.00000000000E+00  0.62836614376E+03  0.62836614376E+03  0.00000000000E+00 0. -1.
         -1   -1    0    0    0  501 -0.00000000000E+00 -0.00000000000E+00 -0.28301382900E+02  0.28301382900E+02  0.00000000000E+00 0.  1.
         23    2    1    2    0    0  0.17961734617E+02 -0.43982625087E+02  0.39121967549E+03  0.40863024281E+03  0.10802196823E+03 0.  0.
          5    1    1    2  502    0  0.84190321375E+01 -0.37575102195E+02  0.27785169278E+02  0.47668191060E+02  0.41800000000E+01 0.  1.
         -5    1    1    2    0  502 -0.26380766755E+02  0.81557727281E+02  0.18105991609E+03  0.20036909280E+03  0.41800000000E+01 0.  1.
        -11    1    3    3    0    0  0.58553315689E+02 -0.55447866282E+01  0.24819303102E+03  0.25506668949E+03  0.00000000000E+00 0. -1.
         11    1    3    3    0    0 -0.40591581071E+02 -0.38437838458E+02  0.14302664447E+03  0.15356355332E+03  0.00000000000E+00 0.  1.
</event>
<event>
 7    1  0.4274778E-006  0.9667144E+02  0.7561462E-02  0.1287455E+00
          1   -1    0    0  501    0  0.00000000000E+00  0.00000000000E+00  0.26161736456E+03  0.26161736456E+03  0.00000000000E+00 0. -1.
         -1   -1    0    0    0  501 -0.00000000000E+00 -0.00000000000E+00 -0.46555714694E+02  0.46555714694E+02  0.00000000000E+00 0.  1.
         23    2    1    2    0    0  0.27810490019E+02 -0.40101907354E+01  0.79441563857E+02  0.12155415630E+03  0.87606768349E+02 0.  0.
          5    1    1    2  502    0 -0.93275803244E+01 -0.54163762557E+02  0.10410519604E+03  0.11779677912E+03  0.41800000000E+01 0.  1.
         -5    1    1    2    0  502 -0.18482909695E+02  0.58173953293E+02  0.31514889976E+02  0.68822143839E+02  0.41800000000E+01 0.  1.
        -11    1    3    3    0    0 -0.20825681499E+02 -0.16792809150E+02 -0.90482218602E+00  0.26768006131E+02  0.00000000000E+00 0.  1.
         11    1    3    3    0    0  0.48636171518E+02  0.12782618414E+02  0.80346386043E+02  0.94786150167E+02  0.00000000000E+00 0. -1.
</event>
<event>
 7    1  0.4274778E-006  0.9853006E+02  0.7561462E-02  0.1283418E+00
          1   -1    0    0  501    0  0.00000000000E+00  0.00000000000E+00  0.95336663413E+02  0.95336663413E+02  0.00000000000E+00 0. -1.
         -1   -1    0    0    0  501 -0.00000000000E+00 -0.00000000000E+00 -0.16867741049E+03  0.16867741049E+03  0.00000000000E+00 0.  1.
         23    2    1    2    0    0  0.94374241793E-02 -0.58006158606E+02  0.20302040419E+00  0.10774258705E+03  0.90794874978E+02 0.  0.
          5    1    1    2  502    0 -0.28963935781E+02  0.88494121020E+02 -0.36568465866E+02  0.10012414358E+03  0.41800000000E+01 0.  1.
         -5    1    1    2    0  502  0.28954498357E+02 -0.30487962414E+02 -0.36975301613E+02  0.56147343273E+02  0.41800000000E+01 0.  1.
        -11    1    3    3    0    0  0.83303602786E+01 -0.10666114426E+02 -0.41783776135E+02  0.43920893063E+02  0.00000000000E+00 0.  1.
         11    1    3    3    0    0 -0.83209228544E+01 -0.47340044179E+02  0.41986796539E+02  0.63821693990E+02  0.00000000000E+00 0. -1.
</event>
<event>
 7    1  0.4274778E-006  0.1929169E+03  0.7561462E-02  0.1155856E+00
          1   -1    0    0  501    0  0.00000000000E+00  0.00000000000E+00  0.80816174672E+02  0.80816174672E+02  0.00000000000E+00 0. -1.
         -1   -1    0    0    0  501 -0.00000000000E+00 -0.00000000000E+00 -0.49027847672E+03  0.49027847672E+03  0.00000000000E+00 0.  1.
         23    2    1    2    0    0  0.15203151555E+03  0.34260755904E+02 -0.12906096081E+03  0.22033493062E+03  0.87197298884E+02 0.  0.
          5    1    1    2  502    0 -0.25468378705E+02  0.49255714790E+02 -0.49267258265E+02  0.74293330053E+02  0.41800000000E+01 0. -1.
         -5    1    1    2    0  502 -0.12656313684E+03 -0.83516470694E+02 -0.23113408298E+03  0.27646639072E+03  0.41800000000E+01 0.  1.
        -11    1    3    3    0    0  0.16265028116E+03  0.25233861094E+02 -0.12030929054E+03  0.20387787300E+03  0.00000000000E+00 0. -1.
         11    1    3    3    0    0 -0.10618765616E+02  0.90268948097E+01 -0.87516702644E+01  0.16457057621E+02  0.00000000000E+00 0.  1.
</event>
<event>
 7    1  0.4274778E-006  0.1923958E+03  0.7561462E-02  0.1156318E+00
         -2   -1    0    0    0  501 -0.00000000000E+00  0.00000000000E+00  0.56131236193E+02  0.56131236193E+02  0.00000000000E+00 0.  1.
          2   -1    0    0  501    0  0.00000000000E+00 -0.00000000000E+00 -0.71315474867E+03  0.71315474867E+03  0.00000000000E+00 0. -1.
         23    2    1    2    0    0  0.15680735153E+03 -0.63133192326E+02 -0.29947922634E+03  0.35447928020E+03  0.85984926669E+02 0.  0.
          5    1    1    2  502    0 -0.94028071885E+01  0.56526766417E+02 -0.62496016605E+02  0.84893536833E+02  0.41800000000E+01 0. -1.
         -5    1    1    2    0  502 -0.14740454434E+03  0.66064259086E+01 -0.29504826954E+03  0.32991316783E+03  0.41800000000E+01 0. -1.
        -11    1    3    3    0    0  0.14581263922E+03 -0.74642497841E+02 -0.22496588923E+03  0.27828488920E+03  0.00000000000E+00 0. -1.
         11    1    3    3    0    0  0.10994712305E+02  0.11509305515E+02 -0.74513337109E+02  0.76194390996E+02  0.00000000000E+00 0.  1.
</event>
<event>
 7    1  0.4274778E-006  0.1301905E+03  0.7561462E-02  0.1227173E+00
          1   -1    0    0  501    0  0.00000000000E+00  0.00000000000E+00  0.13335141446E+03  0.13335141446E+03  0.00000000000E+00 0. -1.
         -1   -1    0    0    0  501 -0.00000000000E+00 -0.00000000000E+00 -0.14469176615E+03  0.14469176615E+03  0.00000000000E+00 0.  1.
         23    2    1    2    0    0 -0.32589109819E+02 -0.70903939558E+02  0.25467414325E+02  0.12608274496E+03  0.95701884306E+02 0.  0.
          5    1    1    2  502    0  0.24750341391E+01  0.96829367714E+02  0.99439264605E+00  0.96956245093E+02  0.41800000000E+01 0.  1.
         -5    1    1    2    0  502  0.30114075680E+02 -0.25925428156E+02 -0.37802158659E+02  0.55004190553E+02  0.41800000000E+01 0.  1.
        -11    1    3    3    0    0 -0.63953249833E+02 -0.26768382050E+02  0.15084260782E+02  0.70951387338E+02  0.00000000000E+00 0.  1.
         11    1    3    3    0    0  0.31364140014E+02 -0.44135557508E+02  0.10383153542E+02  0.55131357618E+02  0.00000000000E+00 0. -1.
</event>
<event>
 7    1  0.4274778E-006  0.1098336E+03  0.7561462E-02  0.1260878E+00
         -2   -1    0    0    0  501 -0.00000000000E+00  0.00000000000E+00  0.11249004558E+03  0.11249004558E+03  0.00000000000E+00 0.  1.
          2   -1    0    0  501    0  0.00000000000E+00 -0.00000000000E+00 -0.17761849737E+03  0.17761849737E+03  0.00000000000E+00 0. -1.
         23    2    1    2    0    0  0.32037549029E+02 -0.67840606970E+02 -0.82431568921E+02  0.14321915031E+03  0.89933358435E+02 0.  0.
          5    1    1    2  502    0  0.53253324273E+01 -0.16202351210E+02 -0.36320659425E+02  0.40342757110E+02  0.41800000000E+01 0.  1.
         -5    1    1    2    0  502 -0.37362881456E+02  0.84042958181E+02  0.53623776553E+02  0.10654663553E+03  0.41800000000E+01 0.  1.
        -11    1    3    3    0    0  0.56630094165E+02 -0.27889973015E+02 -0.22292044193E+02  0.66945899010E+02  0.00000000000E+00 0.  1.
         11    1    3    3    0    0 -0.24592545136E+02 -0.39950633956E+02 -0.60139524728E+02  0.76273251302E+02  0.00000000000E+00 0. -1.
</event>
<event>
 7    1  0.4274778E-006  0.1416259E+03  0.7561462E-02  0.1211158E+00
         -2   -1    0    0    0  501 -0.00000000000E+00  0.00000000000E+00  0.43592914177E+02  0.43592914177E+02  0.00000000000E+00 0.  1.
          2   -1    0    0  501    0  0.00000000000E+00 -0.00000000000E+00 -0.62987362660E+03  0.62987362660E+03  0.00000000000E+00 0. -1.
         23    2    1    2    0    0  0.23431766849E+02  0.11244287786E+03 -0.37534977205E+03  0.40266676167E+03  0.89780961771E+02 0.  0.
          5    1    1    2  502    0 -0.32012465607E+02  0.15676258760E+02 -0.21260580816E+02  0.41713639731E+02  0.41800000000E+01 0.  1.
         -5    1    1    2    0  502  0.85806987578E+01 -0.12811913662E+03 -0.18967035955E+03  0.22908613937E+03  0.41800000000E+01 0.  1.
        -11    1    3    3    0    0  0.23761517888E+02  0.40578723819E+02 -0.46779723228E+02  0.66329368039E+02  0.00000000000E+00 0.  1.
         11    1    3    3    0    0 -0.32975103894E+00  0.71864154042E+02 -0.32857004883E+03  0.33633739364E+03  0.00000000000E+00 0. -1.
</event>
<event>
 7    1  0.4274778E-006  0.1648857E+03  0.7561462E-02  0.1183289E+00
          2   -1    0    0  501    0  0.00000000000E+00  0.00000000000E+00  0.43976191095E+03  0.43976191095E+03  0.00000000000E+00 0. -1.
         -2   -1    0    0    0  501 -0.00000000000E+00 -0.00000000000E+00 -0.83367369541E+02  0.83367369541E+02  0.00000000000E+00 0.  1.
         23    2    1    2    0    0  0.85592700281E+02 -0.13055683518E+03  0.19515426682E+03  0.26618445486E+03  0.91639394352E+02 0.  0.
          5    1    1    2  502    0 -0.82790288816E+02  0.12881716160E+03  0.18062893613E+03  0.23683829508E+03  0.41800000000E+01 0. -1.
         -5    1    1    2    0  502 -0.28024114650E+01  0.17396735792E+01 -0.19388661549E+02  0.20106530552E+02  0.41800000000E+01 0. -1.
        -11    1    3    3    0    0  0.94648001107E+02 -0.93234450433E+02  0.18252278633E+03  0.22575534189E+03  0.00000000000E+00 0. -1.
         11    1    3    3    0    0 -0.90553008262E+01 -0.37322384747E+02  0.12631480489E+02  0.40429112971E+02  0.00000000000E+00 0.  1.
</event>
<event>
 7    1  0.4274778E-006  0.1087156E+03  0.7561462E-02  0.1262967E+00
          2   -1    0    0  501    0  0.00000000000E+00  0.00000000000E+00  0.22379364206E+02  0.22379364206E+02  0.00000000000E+00 0. -1.
         -2   -1    0    0    0  501 -0.00000000000E+00 -0.00000000000E+00 -0.95779864437E+03  0.95779864437E+03  0.00000000000E+00 0.  1.
         23    2    1    2    0    0  0.64510671849E+02 -0.46685903070E+02 -0.21817617352E+03  0.24776676471E+03  0.86292100897E+02 0.  0.
          5    1    1    2  502    0 -0.11869859760E+02  0.50246299041E+02 -0.61595172810E+03  0.61812586735E+03  0.41800000000E+01 0.  1.
         -5    1    1    2    0  502 -0.52640812089E+02 -0.35603959711E+01 -0.10129137855E+03  0.11428537651E+03  0.41800000000E+01 0.  1.
        -11    1    3    3    0    0  0.10690324089E+02  0.22583596263E+02 -0.23771667085E+02  0.34487592048E+02  0.00000000000E+00 0.  1.
         11    1    3    3    0    0  0.53820347760E+02 -0.69269499333E+02 -0.19440450643E+03  0.21327917266E+03  0.00000000000E+00 0. -1.
</event>
<event>
 7    1  0.4274778E-006  0.1039461E+03  0.7561462E-02  0.1272210E+00
          1   -1    0    0  501    0  0.00000000000E+00  0.00000000000E+00  0.98699848835E+02  0.98699848835E+02  0.00000000000E+00 0. -1.
         -1   -1    0    0    0  501 -0.00000000000E+00 -0.00000000000E+00 -0.13120843806E+03  0.13120843806E+03  0.00000000000E+00 0.  1.
         23    2    1    2    0    0  0.28401331267E+02 -0.92154230380E+01 -0.40783577162E+01  0.98198350236E+02  0.93459741857E+02 0.  0.
          5    1    1    2  502    0 -0.61602414702E+02  0.31827035478E+02  0.16396629552E+02  0.71373241100E+02  0.41800000000E+01 0. -1.
         -5    1    1    2    0  502  0.33201083435E+02 -0.22611612440E+02 -0.44826861055E+02  0.60336695555E+02  0.41800000000E+01 0. -1.
        -11    1    3    3    0    0  0.62761846785E+02 -0.12719301688E+01 -0.44173751395E+01  0.62929964415E+02  0.00000000000E+00 0. -1.
         11    1    3    3    0    0 -0.34360515518E+02 -0.79434928692E+01  0.33901742330E+00  0.35268385821E+02  0.00000000000E+00 0.  1.
</event>
<event>
 7    1  0.4274778E-006  0.1221261E+03  0.7561462E-02  0.1239630E+00
          2   -1    0    0  501    0  0.00000000000E+00  0.00000000000E+00  0.77523148681E+03  0.77523148681E+03  0.00000000000E+00 0. -1.
         -2   -1    0    0    0  501 -0.00000000000E+00 -0.00000000000E+00 -0.30017375901E+02  0.30017375901E+02  0.00000000000E+00 0.  1.
         23    2    1    2    0    0 -0.56347969519E+02 -0.77701942608E+02  0.46189011144E+03  0.48100861013E+03  0.93883557757E+02 0.  0.
          5    1    1    2  502    0  0.83196795547E+02  0.82714525117E+02  0.26814220227E+03  0.29271336234E+03  0.41800000000E+01 0. -1.
         -5    1    1    2    0  502 -0.26848826028E+02 -0.50125825096E+01  0.15181797209E+02  0.31526890253E+02  0.41800000000E+01 0. -1.
        -11    1    3    3    0    0 -0.20072728948E+02 -0.10009209784E+02  0.13693057338E+02  0.26279241755E+02  0.00000000000E+00 0.  1.
         11    1    3    3    0    0 -0.36275240571E+02 -0.67692732824E+02  0.44819705410E+03  0.45472936837E+03  0.00000000000E+00 0. -1.
</event>
<event>
 7    1  0.4274778E-006  0.1032577E+03  0.7561462E-02  0.1273591E+00
         -2   -1    0    0    0  501 -0.00000000000E+00  0.00000000000E+00  0.45674860364E+03  0.45674860364E+03  0.00000000000E+00 0.  1.
          2   -1    0    0  501    0  0.00000000000E+00 -0.00000000000E+00 -0.26560751490E+02  0.26560751490E+02  0.00000000000E+00 0. -1.
         23    2    1    2    0    0 -0.25568177385E+01 -0.16394446155E+02  0.17225997973E+03  0.19617109470E+03  0.92381180977E+02 0.  0.
          5    1    1    2  502    0  0.42374048663E+02 -0.31754045984E+02  0.63022823939E+02  0.82421042057E+02  0.41800000000E+01 0.  1.
         -5    1    1    2    0  502 -0.39817230925E+02  0.48148492139E+02  0.19490504849E+03  0.20471721838E+03  0.41800000000E+01 0.  1.
        -11    1    3    3    0    0  0.31527708011E+02  0.22747742747E+02  0.99247750468E+02  0.10659067570E+03  0.00000000000E+00 0. -1.
         11    1    3    3    0    0 -0.34084525749E+02 -0.39142188902E+02  0.73012229259E+02  0.89580419004E+02  0.00000000000E+00 0.  1.
</event>
<event>
 7    1  0.4274778E-006  0.9707134E+02  0.7561462E-02  0.1286578E+00
          2   -1    0    0  501    0  0.00000000000E+00  0.00000000000E+00  0.24318148116E+03  0.24318148116E+03  0.00000000000E+00 0.  1.
         -2   -1    0    0    0  501 -0.00000000000E+00 -0.00000000000E+00 -0.53927605076E+02  0.53927605076E+02  0.00000000000E+00 0. -1.
         23    2    1    2    0    0 -0.14059443961E+02  0.37881923842E+02  0.93997499946E+02  0.13477280713E+03  0.87723836143E+02 0.  0.
          5    1    1    2  502    0  0.11305592398E+02 -0.84083460618E+02  0.63374429767E+02  0.10597941082E+03  0.41800000000E+01 0.  1.
         -5    1    1    2    0  502  0.27538515623E+01  0.46201536775E+02  0.31881946375E+02  0.56356868290E+02  0.41800000000E+01 0.  1.
        -11    1    3    3    0    0 -0.29155211508E+02  0.96454173003E+01 -0.46498704247E+01  0.31059325942E+02  0.00000000000E+00 0. -1.
         11    1    3    3    0    0  0.15095767548E+02  0.28236506542E+02  0.98647370371E+02  0.10371348119E+03  0.00000000000E+00 0.  1.
</event>
<event>
 7    1  0.4274778E-006  0.9319867E+02  0.7561462E-02  0.1295285E+00
          1   -1    0    0  501    0  0.00000000000E+00  0.00000000000E+00  0.14649124368E+03  0.14649124368E+03  0.00000000000E+00 0. -1.
         -1   -1    0    0    0  501 -0.00000000000E+00 -0.00000000000E+00 -0.83936814694E+02  0.83936814694E+02  0.00000000000E+00 0.  1.
         23    2    1    2    0    0  0.19836716736E+02 -0.10152445753E+02  0.34124151155E+02  0.10022597900E+03  0.91565395700E+02 0.  0.
          5    1    1    2  502    0  0.35201826219E+02  0.11798453831E+02  0.56903180837E+02  0.68072141669E+02  0.41800000000E+01 0.  1.
         -5    1    1    2    0  502 -0.55038542955E+02 -0.16460080780E+01 -0.28472903006E+02  0.62129937701E+02  0.41800000000E+01 0.  1.
        -11    1    3    3    0    0  0.34215387462E+02  0.33482111341E+02  0.12666999490E+02  0.49519666751E+02  0.00000000000E+00 0.  1.
         11    1    3    3    0    0 -0.14378670726E+02 -0.43634557095E+02  0.21457151665E+02  0.50706312253E+02  0.00000000000E+00 0. -1.
</event>
<event>
 7    1  0.4274778E-006  0.2193674E+03  0.7561462E-02  0.1134356E+00
          2   -1    0    0  501    0  0.00000000000E+00  0.00000000000E+00  0.19974724922E+04  0.19974724922E+04  0.00000000000E+00 0. -1.
         -2   -1    0    0    0  501 -0.00000000000E+00 -0.00000000000E+00 -0.27453494157E+02  0.27453494157E+02  0.00000000000E+00 0.  1.
         23    2    1    2    0    0  0.20572711957E+03  0.19648430902E+02  0.97961443799E+03  0.10054840295E+04  0.92972995650E+02 0.  0.
          5    1    1    2  502    0 -0.45643827700E+02 -0.35514119993E+02  0.49904530917E+03  0.50240253257E+03  0.41800000000E+01 0.  1.
         -5    1    1    2    0  502 -0.16008329187E+03  0.15865689090E+02  0.49135925085E+03  0.51703942424E+03  0.41800000000E+01 0.  1.
        -11    1    3    3    0    0  0.25746821819E+02  0.30022244816E+02  0.99042836818E+02  0.10664763262E+03  0.00000000000E+00 0.  1.
         11    1    3    3    0    0  0.17998029775E+03 -0.10373813914E+02  0.88057160117E+03  0.89883639689E+03  0.00000000000E+00 0. -1.
</event>
<event>
 7    1  0.4274778E-006  0.1378380E+03  0.7561462E-02  0.1216268E+00
          1   -1    0    0  501    0  0.00000000000E+00  0.00000000000E+00  0.43126792384E+03  0.43126792384E+03  0.00000000000E+00 0. -1.
         -1   -1    0    0    0  501 -0.00000000000E+00 -0.00000000000E+00 -0.80142608731E+02  0.80142608731E+02  0.00000000000E+00 0.  1.
         23    2    1    2    0    0 -0.67248262623E+02 -0.69845521046E+02  0.32481713835E+03  0.35097024084E+03  0.90957192974E+02 0.  0.
          5    1    1    2  502    0  0.92633948068E+02  0.34267701732E+02 -0.15200942017E+02  0.10001932191E+03  0.41800000000E+01 0.  1.
         -5    1    1    2    0  502 -0.25385685446E+02  0.35577819313E+02  0.41509118769E+02  0.60420969817E+02  0.41800000000E+01 0.  1.
        -11    1    3    3    0    0 -0.54504009117E+02  0.70595004871E+01  0.13801071141E+03  0.14855127068E+03  0.00000000000E+00 0.  1.
         11    1    3    3    0    0 -0.12744253506E+02 -0.76905021533E+02  0.18680642695E+03  0.20241897017E+03  0.00000000000E+00 0. -1.
</event>
<event>
 7    1  0.4274778E-006  0.5687525E+02  0.7561462E-02  0.1411433E+00
          1   -1    0    0  501    0  0.00000000000E+00  0.00000000000E+00  0.44660752185E+02  0.44660752185E+02  0.00000000000E+00 0. -1.
         -1   -1    0    0    0  501 -0.00000000000E+00 -0.00000000000E+00 -0.27738390212E+03  0.27738390212E+03  0.00000000000E+00 0.  1.
         23    2    1    2    0    0 -0.19607852781E+02  0.27221873638E+01 -0.70902915045E+02  0.11655629895E+03  0.90367412641E+02 0.  0.
          5    1    1    2  502    0 -0.79597975416E+01 -0.13298202102E+02 -0.17292372738E+03  0.17366717723E+03  0.41800000000E+01 0. -1.
         -5    1    1    2    0  502  0.27567650322E+02  0.10576014738E+02  0.11103492490E+02  0.31821178129E+02  0.41800000000E+01 0. -1.
        -11    1    3    3    0    0  0.62471892342E+01  0.29794254771E+02 -0.72968781520E+02  0.79064328664E+02  0.00000000000E+00 0.  1.
         11    1    3    3    0    0 -0.25855042015E+02 -0.27072067407E+02  0.20658664752E+01  0.37491970281E+02  0.00000000000E+00 0. -1.
</event>
<event>
 7    1  0.4274778E-006  0.2130418E+03  0.7561462E-02  0.1139180E+00
         -1   -1    0    0    0  501 -0.00000000000E+00  0.00000000000E+00  0.14938057510E+04  0.14938057510E+04  0.00000000000E+00 0.  1.
          1   -1    0    0  501    0  0.00000000000E+00 -0.00000000000E+00 -0.31574704258E+02  0.31574704258E+02  0.00000000000E+00 0. -1.
         23    2    1    2    0    0  0.63084538532E+02 -0.17417586629E+03  0.60444346344E+03  0.63894720424E+03  0.92653860800E+02 0.  0.
          5    1    1    2  502    0 -0.50880425510E+02  0.71270839338E+01  0.13564714289E+03  0.14511110502E+03  0.41800000000E+01 0. -1.
         -5    1    1    2    0  502 -0.12204113022E+02  0.16704878235E+03  0.72214044039E+03  0.74132214597E+03  0.41800000000E+01 0. -1.
        -11    1    3    3    0    0  0.32068181969E+02 -0.20946757575E+01  0.10252167645E+03  0.10744044910E+03  0.00000000000E+00 0.  1.
         11    1    3    3    0    0  0.31016356563E+02 -0.17208119053E+03  0.50192178699E+03  0.53150675514E+03  0.00000000000E+00 0. -1.
</event>
<event>
 7    1  0.4274778E-006  0.7087232E+02  0.7561462E-02  0.1357152E+00
          1   -1    0    0  501    0  0.00000000000E+00  0.00000000000E+00  0.40046083823E+02  0.40046083823E+02  0.00000000000E+00 0. -1.
         -1   -1    0    0    0  501 -0.00000000000E+00 -0.00000000000E+00 -0.40078861120E+03  0.40078861120E+03  0.00000000000E+00 0.  1.
         23    2    1    2    0    0 -0.22571181582E+02 -0.25444320206E+02 -0.62950337344E+02  0.11604899442E+03  0.91366035621E+02 0.  0.
          5    1    1    2  502    0  0.11716856803E+02  0.42237356854E+02 -0.23836111735E+02  0.50069068995E+02  0.41800000000E+01 0. -1.
         -5    1    1    2    0  502  0.10854324779E+02 -0.16793036648E+02 -0.27395607830E+03  0.27471663161E+03  0.41800000000E+01 0. -1.
        -11    1    3    3    0    0  0.12520000668E+02 -0.38004993563E+02 -0.67532493312E+02  0.78496927362E+02  0.00000000000E+00 0.  1.
         11    1    3    3    0    0 -0.35091182250E+02  0.12560673357E+02  0.45821559680E+01  0.37552067056E+02  0.00000000000E+00 0. -1.
</event>
<event>
 7    1  0.4274778E-006  0.1438739E+03  0.7561462E-02  0.1208209E+00
          2   -1    0    0  501    0  0.00000000000E+00  0.00000000000E+00  0.36745529141E+03  0.36745529141E+03  0.00000000000E+00 0. -1.
         -2   -1    0    0    0  501 -0.00000000000E+00 -0.00000000000E+00 -0.70541394212E+02  0.70541394212E+02  0.00000000000E+00 0.  1.
         23    2    1    2    0    0  0.23137618949E+02 -0.11587473753E+03  0.16354645470E+03  0.22029007915E+03  0.88419296089E+02 0.  0.
          5    1    1    2  502    0 -0.72946231901E+02  0.60450240691E+02  0.55639672420E+02  0.10994830556E+03  0.41800000000E+01 0.  1.
         -5    1    1    2    0  502  0.49808612952E+02  0.55424496836E+02  0.77727770078E+02  0.10775830091E+03  0.41800000000E+01 0.  1.
        -11    1    3    3    0    0  0.17432826701E+02 -0.97389971312E+02  0.17258868664E+03  0.19893608199E+03  0.00000000000E+00 0. -1.
         11    1    3    3    0    0  0.57047922484E+01 -0.18484766215E+02 -0.90422319406E+01  0.21353997169E+02  0.00000000000E+00 0.  1.
</event>
<event>
 7    1  0.4274778E-006  0.1570703E+03  0.7561462E-02  0.1192045E+00
          2   -1    0    0  501    0  0.00000000000E+00  0.00000000000E+00  0.16050208664E+03  0.16050208664E+03  0.00000000000E+00 0. -1.
         -2   -1    0    0    0  501 -0.00000000000E+00 -0.00000000000E+00 -0.20494848455E+03  0.20494848455E+03  0.00000000000E+00 0.  1.
         23    2    1    2    0    0 -0.41105928867E+02 -0.13624785485E+03  0.40243909607E+01  0.16987334315E+03  0.92669205513E+02 0.  0.
          5    1    1    2  502    0 -0.11570569155E+02  0.11339696399E+03 -0.70322957039E+02  0.13399828432E+03  0.41800000000E+01 0.  1.
         -5    1    1    2    0  502  0.52676498022E+02  0.22850890861E+02  0.21852168168E+02  0.61578943728E+02  0.41800000000E+01 0.  1.
        -11    1    3    3    0    0 -0.94708703262E+01 -0.43281662603E+02  0.45286874204E+02  0.63355352399E+02  0.00000000000E+00 0. -1.
         11    1    3    3    0    0 -0.31635058541E+02 -0.92966192249E+02 -0.41262483243E+02  0.10651799075E+03  0.00000000000E+00 0.  1.
</event>
<event>
 7    1  0.4274778E-006  0.7283581E+02  0.7561462E-02  0.1350707E+00
          1   -1    0    0  501    0  0.00000000000E+00  0.00000000000E+00  0.91558082225E+03  0.91558082225E+03  0.00000000000E+00 0. -1.
         -1   -1    0    0    0  501 -0.00000000000E+00 -0.00000000000E+00 -0.13510977592E+02  0.13510977592E+02  0.00000000000E+00 0.  1.
         23    2    1    2    0    0  0.30176951745E+01  0.11133046001E+02  0.44606662718E+03  0.45610295422E+03  0.94453257028E+02 0.  0.
          5    1    1    2  502    0 -0.16722590771E+02  0.13590209430E+02  0.43938475575E+03  0.43993269351E+03  0.41800000000E+01 0.  1.
         -5    1    1    2    0  502  0.13704895596E+02 -0.24723255431E+02  0.16618461724E+02  0.33056152112E+02  0.41800000000E+01 0.  1.
        -11    1    3    3    0    0  0.20812220784E+02 -0.37760037931E+02  0.20520199009E+03  0.20968267868E+03  0.00000000000E+00 0. -1.
         11    1    3    3    0    0 -0.17794525610E+02  0.48893083933E+02  0.24086463709E+03  0.24642027554E+03  0.00000000000E+00 0.  1.
</event>
<event>
 7    1  0.4274778E-006  0.1322100E+03  0.7561462E-02  0.1224213E+00
         -2   -1    0    0    0  501 -0.00000000000E+00  0.00000000000E+00  0.93367301900E+02  0.93367301900E+02  0.00000000000E+00 0.  1.
          2   -1    0    0  501    0  0.00000000000E+00 -0.00000000000E+00 -0.27700609719E+03  0.27700609719E+03  0.00000000000E+00 0. -1.
         23    2    1    2    0    0 -0.29407110046E+02 -0.95900649706E+02 -0.14897732129E+03  0.20255402595E+03  0.93659908365E+02 0.  0.
          5    1    1    2  502    0  0.29893522067E+01 -0.13591766474E+02 -0.51811211432E+02  0.53810281290E+02  0.41800000000E+01 0. -1.
         -5    1    1    2    0  502  0.26417757839E+02  0.10949241618E+03  0.17149737432E+02  0.11400909185E+03  0.41800000000E+01 0.  1.
        -11    1    3    3    0    0  0.25213616272E+02 -0.74263719323E+02 -0.88109630820E+02  0.11795818537E+03  0.00000000000E+00 0.  1.
         11    1    3    3    0    0 -0.54620726319E+02 -0.21636930383E+02 -0.60867690467E+02  0.84595840576E+02  0.00000000000E+00 0. -1.
</event>
<event>
 7    1  0.4274778E-006  0.1153621E+03  0.7561462E-02  0.1250950E+00
         -1   -1    0    0    0  501 -0.00000000000E+00  0.00000000000E+00  0.51362112177E+02  0.51362112177E+02  0.00000000000E+00 0.  1.
          1   -1    0    0  501    0  0.00000000000E+00 -0.00000000000E+00 -0.28879321673E+03  0.28879321673E+03  0.00000000000E+00 0. -1.
         23    2    1    2    0    0  0.10406936506E+02  0.25699614736E+02 -0.11545199148E+03  0.16324971184E+03  0.11203808082E+03 0.  0.
          5    1    1    2  502    0 -0.12993214528E+02 -0.70030103249E+02 -0.35702797475E+02  0.79782210626E+02  0.41800000000E+01 0. -1.
         -5    1    1    2    0  502  0.25862780220E+01  0.44330488513E+02 -0.86276315598E+02  0.97123406442E+02  0.41800000000E+01 0. -1.
        -11    1    3    3    0    0 -0.27248011440E+02 -0.34380713698E+02 -0.52649322181E+02  0.68530567836E+02  0.00000000000E+00 0.  1.
         11    1    3    3    0    0  0.37654947946E+02  0.60080328434E+02 -0.62802669299E+02  0.94719144003E+02  0.00000000000E+00 0. -1.
</event>
<event>
 7    1  0.4274778E-006  0.1050935E+03  0.7561462E-02  0.1269935E+00
          3   -1    0    0  501    0  0.00000000000E+00  0.00000000000E+00  0.66223613457E+02  0.66223613457E+02  0.00000000000E+00 0. -1.
         -3   -1    0    0    0  501 -0.00000000000E+00 -0.00000000000E+00 -0.34103157137E+03  0.34103157137E+03  0.00000000000E+00 0.  1.
         23    2    1    2    0    0  0.24322597092E+02  0.91750204919E+00  0.98807328743E+01  0.95344694339E+02  0.91654521532E+02 0.  0.
          5    1    1    2  502    0 -0.65593941846E+02  0.29006561012E+02 -0.20494474345E+03  0.21717220370E+03  0.41800000000E+01 0. -1.
         -5    1    1    2    0  502  0.41271344754E+02 -0.29924063061E+02 -0.79743947332E+02  0.94738286790E+02  0.41800000000E+01 0. -1.
        -11    1    3    3    0    0 -0.13854667460E+02  0.33976896184E+02  0.22821716626E+02  0.43211248935E+02  0.00000000000E+00 0. -1.
         11    1    3    3    0    0  0.38177264552E+02 -0.33059394135E+02 -0.12940983752E+02  0.52133445404E+02  0.00000000000E+00 0.  1.
</event>
<event>
 7    1  0.4274778E-006  0.9033321E+02  0.7561462E-02  0.1302047E+00
          1   -1    0    0  501    0  0.00000000000E+00  0.00000000000E+00  0.25103576886E+03  0.25103576886E+03  0.00000000000E+00 0. -1.
         -1   -1    0    0    0  501 -0.00000000000E+00 -0.00000000000E+00 -0.58608876025E+02  0.58608876025E+02  0.00000000000E+00 0.  1.
         23    2    1    2    0    0 -0.14287236298E+02  0.38922300521E+02  0.12948580360E+03  0.16360285670E+03  0.90995883347E+02 0.  0.
          5    1    1    2  502    0  0.76605063368E+01 -0.70144085954E+02  0.82293064915E+02  0.10848270408E+03  0.41800000000E+01 0.  1.
         -5    1    1    2    0  502  0.66267299614E+01  0.31221785433E+02 -0.19351975687E+02  0.37559084102E+02  0.41800000000E+01 0.  1.
        -11    1    3    3    0    0  0.43196571507E+01 -0.17684941371E+02  0.90690427882E+02  0.92499569181E+02  0.00000000000E+00 0. -1.
         11    1    3    3    0    0 -0.18606893449E+02  0.56607241892E+02  0.38795375721E+02  0.71103287518E+02  0.00000000000E+00 0.  1.
</event>
<event>
 7    1  0.4274778E-006  0.1066076E+03  0.7561462E-02  0.1266984E+00
          3   -1    0    0  501    0  0.00000000000E+00  0.00000000000E+00  0.11563226345E+02  0.11563226345E+02  0.00000000000E+00 0. -1.
         -3   -1    0    0    0  501 -0.00000000000E+00 -0.00000000000E+00 -0.12156899123E+04  0.12156899123E+04  0.00000000000E+00 0.  1.
         23    2    1    2    0    0 -0.33399631977E+02 -0.17892244313E+02 -0.34656639942E+03  0.35978887444E+03  0.88904989414E+02 0.  0.
          5    1    1    2  502    0  0.69753024459E+02 -0.13561899341E+02 -0.67098413253E+03  0.67474927791E+03  0.41800000000E+01 0. -1.
         -5    1    1    2    0  502 -0.36353392482E+02  0.31454143654E+02 -0.18657615398E+03  0.19271498626E+03  0.41800000000E+01 0. -1.
        -11    1    3    3    0    0 -0.58615740761E+02 -0.29955533414E+02 -0.27916494915E+03  0.28682086375E+03  0.00000000000E+00 0.  1.
         11    1    3    3    0    0  0.25216108784E+02  0.12063289101E+02 -0.67401450264E+02  0.72968010689E+02  0.00000000000E+00 0. -1.
</event>
<event>
 7    1  0.4274778E-006  0.9063332E+02  0.7561462E-02  0.1301325E+00
         -1   -1    0    0    0  501 -0.00000000000E+00  0.00000000000E+00  0.39405663976E+02  0.39405663976E+02  0.00000000000E+00 0.  1.
          1   -1    0    0  501    0  0.00000000000E+00 -0.00000000000E+00 -0.33357938276E+03  0.33357938276E+03  0.00000000000E+00 0. -1.
         23    2    1    2    0    0  0.14495034350E+02 -0.23503302167E+02 -0.17634671149E+03  0.19893743512E+03  0.87837515934E+02 0.  0.
          5    1    1    2  502    0  0.54818674063E+02  0.16960198745E+02 -0.43561846571E+02  0.72165381203E+02  0.41800000000E+01 0.  1.
         -5    1    1    2    0  502 -0.69313708413E+02  0.65431034220E+01 -0.74265160720E+02  0.10188223041E+03  0.41800000000E+01 0.  1.
        -11    1    3    3    0    0  0.23685610951E+02  0.48519994920E+01 -0.45848397716E+01  0.24608348602E+02  0.00000000000E+00 0.  1.
         11    1    3    3    0    0 -0.91905766010E+01 -0.28355301659E+02 -0.17176187172E+03  0.17432908652E+03  0.00000000000E+00 0. -1.
</event>
<event>
 7    1  0.4274778E-006  0.2205440E+03  0.7561462E-02  0.1133478E+00
         -2   -1    0    0    0  501 -0.00000000000E+00  0.00000000000E+00  0.51119255010E+03  0.51119255010E+03  0.00000000000E+00 0.  1.
          2   -1    0    0  501    0  0.00000000000E+00 -0.00000000000E+00 -0.12007024683E+03  0.12007024683E+03  0.00000000000E+00 0. -1.
         23    2    1    2    0    0 -0.18935452627E+03  0.47026301489E+02  0.54548341461E+02  0.22261225383E+03  0.92271796054E+02 0.  0.
          5    1    1    2  502    0  0.98670556267E+02  0.34238789473E+02  0.19971456244E+03  0.22541417930E+03  0.41800000000E+01 0.  1.
         -5    1    1    2    0  502  0.90683970005E+02 -0.81265090961E+02  0.13685939937E+03  0.18323636381E+03  0.41800000000E+01 0.  1.
        -11    1    3    3    0    0 -0.16802271305E+03  0.71196550526E+02  0.54235051264E+02  0.19037337444E+03  0.00000000000E+00 0.  1.
         11    1    3    3    0    0 -0.21331813218E+02 -0.24170249037E+02  0.31329019725E+00  0.32238879392E+02  0.00000000000E+00 0. -1.
</event>
<event>
 7    1  0.4274778E-006  0.1233180E+03  0.7561462E-02  0.1237722E+00
          1   -1    0    0  501    0  0.00000000000E+00  0.00000000000E+00  0.38870776074E+03  0.38870776074E+03  0.00000000000E+00 0. -1.
         -1   -1    0    0    0  501 -0.00000000000E+00 -0.00000000000E+00 -0.73212788452E+02  0.73212788452E+02  0.00000000000E+00 0.  1.
         23    2    1    2    0    0  0.49734206838E+02  0.46961598309E+02  0.29728070875E+03  0.31819478482E+03  0.90516397679E+02 0.  0.
          5    1    1    2  502    0 -0.26048709958E+02  0.37301339960E+02 -0.17735779398E+02  0.49009749277E+02  0.41800000000E+01 0.  1.
         -5    1    1    2    0  502 -0.23685496879E+02 -0.84262938269E+02  0.35950042942E+02  0.94716015096E+02  0.41800000000E+01 0.  1.
        -11    1    3    3    0    0 -0.26230000107E+02  0.55859468832E+01  0.77154911409E+02  0.81682899451E+02  0.00000000000E+00 0.  1.
         11    1    3    3    0    0  0.75964206945E+02  0.41375651426E+02  0.22012579734E+03  0.23651188537E+03  0.00000000000E+00 0. -1.
</event>
<event>
 7    1  0.4274778E-006  0.1248179E+03  0.7561462E-02  0.1235354E+00
          1   -1    0    0  501    0  0.00000000000E+00  0.00000000000E+00  0.74609779336E+03  0.74609779336E+03  0.00000000000E+00 0. -1.
         -1   -1    0    0    0  501 -0.00000000000E+00 -0.00000000000E+00 -0.31595968222E+02  0.31595968222E+02  0.00000000000E+00 0.  1.
         23    2    1    2    0    0  0.34671102119E+02  0.66598545419E+02  0.52659103265E+03  0.53979384205E+03  0.91879402889E+02 0.  0.
          5    1    1    2  502    0  0.24922534547E+02  0.25498769737E+02  0.52096609713E+02  0.63268073544E+02  0.41800000000E+01 0. -1.
         -5    1    1    2    0  502 -0.59593636666E+02 -0.92097315156E+02  0.13581418277E+03  0.17463184599E+03  0.41800000000E+01 0. -1.
        -11    1    3    3    0    0 -0.11364376087E+02 -0.96387657039E+01  0.17558846959E+02  0.23029718944E+02  0.00000000000E+00 0.  1.
         11    1    3    3    0    0  0.46035478206E+02  0.76237311123E+02  0.50903218569E+03  0.51676412311E+03  0.00000000000E+00 0. -1.
</event>
<event>
 7    1  0.4274778E-006  0.1315317E+03  0.7561462E-02  0.1225201E+00
         -2   -1    0    0    0  501 -0.00000000000E+00  0.00000000000E+00  0.38903507460E+03  0.38903507460E+03  0.00000000000E+00 0. -1.
          2   -1    0    0  501    0  0.00000000000E+00 -0.00000000000E+00 -0.73424236875E+02  0.73424236875E+02  0.00000000000E+00 0.  1.
         23    2    1    2    0    0  0.82219891463E+02  0.86143298728E+02  0.78793963189E+02  0.16935336048E+03  0.91056540694E+02 0.  0.
          5    1    1    2  502    0 -0.60642768609E+02 -0.25536488326E+02  0.23076425946E+02  0.69854502039E+02  0.41800000000E+01 0.  1.
         -5    1    1    2    0  502 -0.21577122853E+02 -0.60606810403E+02  0.21374044859E+03  0.22325144895E+03  0.41800000000E+01 0.  1.
        -11    1    3    3    0    0  0.90038537115E+02  0.67766716305E+02  0.91945187503E+02  0.14544134044E+03  0.00000000000E+00 0.  1.
         11    1    3    3    0    0 -0.78186456524E+01  0.18376582424E+02 -0.13151224313E+02  0.23912020039E+02  0.00000000000E+00 0. -1.
</event>
<event>
 7    1  0.4274778E-006  0.8973067E+02  0.7561462E-02  0.1303505E+00
         -1   -1    0    0    0  501 -0.00000000000E+00  0.00000000000E+00  0.11326938615E+03  0.11326938615E+03  0.00000000000E+00 0.  1.
          1   -1    0    0  501    0  0.00000000000E+00 -0.00000000000E+00 -0.15435743295E+03  0.15435743295E+03  0.00000000000E+00 0. -1.
         23    2    1    2    0    0 -0.23605675359E+02  0.16987456507E+02 -0.10141685753E+03  0.12574032902E+03  0.68406503796E+02 0.  0.
          5    1    1    2  502    0  0.73202379163E+02  0.13170500566E+01  0.47343855329E+02  0.87288235023E+02  0.41800000000E+01 0.  1.
         -5    1    1    2    0  502 -0.49596703804E+02 -0.18304506564E+02  0.12984955397E+02  0.54598255059E+02  0.41800000000E+01 0.  1.
        -11    1    3    3    0    0 -0.13389596196E+02  0.32142209403E+02 -0.15874870030E+02  0.38267667946E+02  0.00000000000E+00 0.  1.
         11    1    3    3    0    0 -0.10216079163E+02 -0.15154752896E+02 -0.85541987502E+02  0.87472661069E+02  0.00000000000E+00 0. -1.
</event>
<event>
 7    1  0.4274778E-006  0.1988592E+03  0.7561462E-02  0.1150705E+00
          3   -1    0    0  501    0  0.00000000000E+00  0.00000000000E+00  0.61768806257E+02  0.61768806257E+02  0.00000000000E+00 0. -1.
         -3   -1    0    0    0  501 -0.00000000000E+00 -0.00000000000E+00 -0.11607730776E+04  0.11607730776E+04  0.00000000000E+00 0.  1.
         23    2    1    2    0    0  0.14419500585E+03  0.94408880224E+02 -0.14143038742E+03  0.24157208830E+03  0.93001521415E+02 0.  0.
          5    1    1    2  502    0 -0.32653817338E+02  0.26344983288E+02 -0.11468130809E+03  0.12218676179E+03  0.41800000000E+01 0. -1.
         -5    1    1    2    0  502 -0.11154118851E+03 -0.12075386351E+03 -0.84289257586E+03  0.85878303379E+03  0.41800000000E+01 0. -1.
        -11    1    3    3    0    0  0.48349774593E+02 -0.10012001793E+02 -0.61432453559E+02  0.78815526601E+02  0.00000000000E+00 0. -1.
         11    1    3    3    0    0  0.95845231254E+02  0.10442088202E+03 -0.79997933859E+02  0.16275656170E+03  0.00000000000E+00 0.  1.
</event>
<event>
 7    1  0.4274778E-006  0.1621880E+03  0.7561462E-02  0.1186248E+00
          1   -1    0    0  501    0  0.00000000000E+00  0.00000000000E+00  0.55221848066E+03  0.55221848066E+03  0.00000000000E+00 0. -1.
         -1   -1    0    0    0  501 -0.00000000000E+00 -0.00000000000E+00 -0.57645268145E+02  0.57645268145E+02  0.00000000000E+00 0.  1.
         23    2    1    2    0    0 -0.11104321848E+03  0.77497438011E+02  0.30675998753E+03  0.34669931712E+03  0.88103786946E+02 0.  0.
          5    1    1    2  502    0 -0.21044282153E+02  0.14278289131E+01  0.15927360169E+01  0.21561765113E+02  0.41800000000E+01 0. -1.
         -5    1    1    2    0  502  0.13208750063E+03 -0.78925266925E+02  0.18622048897E+03  0.24160266657E+03  0.41800000000E+01 0. -1.
        -11    1    3    3    0    0 -0.38772203129E+02 -0.51988143976E+01  0.31127496962E+02  0.49992324148E+02  0.00000000000E+00 0. -1.
         11    1    3    3    0    0 -0.72271015351E+02  0.82696252409E+02  0.27563249057E+03  0.29670699297E+03  0.00000000000E+00 0.  1.
</event>
<event>
 7    1  0.4274778E-006  0.1244558E+03  0.7561462E-02  0.1235922E+00
         -2   -1    0    0    0  501 -0.00000000000E+00  0.00000000000E+00  0.14116399797E+03  0.14116399797E+03  0.00000000000E+00 0.  1.
          2   -1    0    0  501    0  0.00000000000E+00 -0.00000000000E+00 -0.12057190986E+03  0.12057190986E+03  0.00000000000E+00 0. -1.
         23    2    1    2    0    0 -0.48269427449E+02  0.48433429350E+02 -0.13288155972E+02  0.11521544929E+03  0.91773035040E+02 0.  0.
          5    1    1    2  502    0  0.87089819248E+02 -0.20119232463E+02  0.35618598049E+01  0.89552104257E+02  0.41800000000E+01 0.  1.
         -5    1    1    2    0  502 -0.38820391799E+02 -0.28314196886E+02  0.30318384281E+02  0.56968354286E+02  0.41800000000E+01 0.  1.
        -11    1    3    3    0    0 -0.73286246788E+02  0.26502325067E+02  0.33807452779E+01  0.78004337320E+02  0.00000000000E+00 0.  1.
         11    1    3    3    0    0  0.25016819339E+02  0.21931104283E+02 -0.16668901250E+02  0.37211111966E+02  0.00000000000E+00 0. -1.
</event>
<event>
 7    1  0.4274778E-006  0.8843627E+02  0.7561462E-02  0.1306683E+00
          2   -1    0    0  501    0  0.00000000000E+00  0.00000000000E+00  0.24290107376E+03  0.24290107376E+03  0.00000000000E+00 0. -1.
         -2   -1    0    0    0  501 -0.00000000000E+00 -0.00000000000E+00 -0.58404590149E+02  0.58404590149E+02  0.00000000000E+00 0.  1.
         23    2    1    2    0    0  0.10866658255E+02 -0.31736661568E+02  0.12403542166E+03  0.15838169666E+03  0.92599546771E+02 0.  0.
          5    1    1    2  502    0  0.41570742476E+02 -0.27232669340E+02  0.30215290863E+02  0.58311071945E+02  0.41800000000E+01 0. -1.
         -5    1    1    2    0  502 -0.52437400731E+02  0.58969330908E+02  0.30245771092E+02  0.84612895306E+02  0.41800000000E+01 0. -1.
        -11    1    3    3    0    0 -0.10267412873E+02 -0.22851772269E+02 -0.64728429315E+01  0.25875103064E+02  0.00000000000E+00 0.  1.
         11    1    3    3    0    0  0.21134071128E+02 -0.88848892982E+01  0.13050826459E+03  0.13250659360E+03  0.00000000000E+00 0. -1.
</event>
<event>
 7    1  0.4274778E-006  0.8654056E+02  0.7561462E-02  0.1311452E+00
         -1   -1    0    0    0  501 -0.00000000000E+00  0.00000000000E+00  0.11259624014E+03  0.11259624014E+03  0.00000000000E+00 0.  1.
          1   -1    0    0  501    0  0.00000000000E+00 -0.00000000000E+00 -0.22950399651E+03  0.22950399651E+03  0.00000000000E+00 0. -1.
         23    2    1    2    0    0  0.26188246371E+02  0.21665307971E+02 -0.17463221480E+03  0.20020568812E+03  0.91818828625E+02 0.  0.
          5    1    1    2  502    0  0.97249630657E+01  0.24878816728E+02 -0.27311693480E+02  0.38430865579E+02  0.41800000000E+01 0.  1.
         -5    1    1    2    0  502 -0.35913209436E+02 -0.46544124699E+02  0.85036151917E+02  0.10346368295E+03  0.41800000000E+01 0.  1.
        -11    1    3    3    0    0 -0.26819131787E+02 -0.57514885256E+01 -0.18574341916E+02  0.33126298128E+02  0.00000000000E+00 0.  1.
         11    1    3    3    0    0  0.53007378157E+02  0.27416796496E+02 -0.15605787289E+03  0.16707938999E+03  0.00000000000E+00 0. -1.
</event>
<event>
 7    1  0.4274778E-006  0.1470864E+03  0.7561462E-02  0.1204100E+00
          2   -1    0    0  501    0  0.00000000000E+00  0.00000000000E+00  0.11800523852E+04  0.11800523852E+04  0.00000000000E+00 0. -1.
         -2   -1    0    0    0  501 -0.00000000000E+00 -0.00000000000E+00 -0.29283463848E+02  0.29283463848E+02  0.00000000000E+00 0.  1.
         23    2    1    2    0    0 -0.12097969575E+03  0.42669884320E+02  0.80168854768E+03  0.81695736242E+03  0.90873531462E+02 0.  0.
          5    1    1    2  502    0  0.10366818632E+03 -0.16125158094E+02  0.11341829297E+03  0.15455838754E+03  0.41800000000E+01 0.  1.
         -5    1    1    2    0  502  0.17311509428E+02 -0.26544726226E+02  0.23566208065E+03  0.23782009904E+03  0.41800000000E+01 0.  1.
        -11    1    3    3    0    0 -0.46150160653E+02  0.64454757183E+02  0.40404598711E+03  0.41174921099E+03  0.00000000000E+00 0.  1.
         11    1    3    3    0    0 -0.74829535097E+02 -0.21784872863E+02  0.39764256057E+03  0.40520815143E+03  0.00000000000E+00 0. -1.
</event>
<event>
 7    1  0.4274778E-006  0.1026841E+03  0.7561462E-02  0.1274751E+00
         -1   -1    0    0    0  501 -0.00000000000E+00  0.00000000000E+00  0.23579870227E+03  0.23579870227E+03  0.00000000000E+00 0.  1.
          1   -1    0    0  501    0  0.00000000000E+00 -0.00000000000E+00 -0.65887642732E+02  0.65887642732E+02  0.00000000000E+00 0. -1.
         23    2    1    2    0    0 -0.37745165370E+02 -0.49021301906E+02  0.49591652470E+02  0.11742808442E+03  0.86615457429E+02 0.  0.
          5    1    1    2  502    0  0.65555948602E+02  0.53113801676E+02  0.30115166037E+02  0.89683075054E+02  0.41800000000E+01 0. -1.
         -5    1    1    2    0  502 -0.27810783233E+02 -0.40924997698E+01  0.90204241031E+02  0.94575185532E+02  0.41800000000E+01 0. -1.
        -11    1    3    3    0    0 -0.15925616576E+02 -0.64036063190E+02  0.59790574298E+02  0.89045805220E+02  0.00000000000E+00 0.  1.
         11    1    3    3    0    0 -0.21819548793E+02  0.15014761284E+02 -0.10198921828E+02  0.28382279197E+02  0.00000000000E+00 0. -1.
</event>
<event>
 7    1  0.4274778E-006  0.6221889E+02  0.7561462E-02  0.1388749E+00
         -2   -1    0    0    0  501 -0.00000000000E+00  0.00000000000E+00  0.20108738046E+02  0.20108738046E+02  0.00000000000E+00 0.  1.
          2   -1    0    0  501    0  0.00000000000E+00 -0.00000000000E+00 -0.69478762758E+03  0.69478762758E+03  0.00000000000E+00 0. -1.
         23    2    1    2    0    0 -0.16236203256E+02 -0.22035066870E+02 -0.40428486411E+03  0.41571618619E+03  0.92868388832E+02 0.  0.
          5    1    1    2  502    0  0.13772562758E+02  0.10687756282E+02 -0.28180344144E+03  0.28237309296E+03  0.41800000000E+01 0.  1.
         -5    1    1    2    0  502  0.24636404986E+01  0.11347310587E+02  0.11409416015E+02  0.16807086478E+02  0.41800000000E+01 0.  1.
        -11    1    3    3    0    0  0.97020807594E+00  0.34786410075E+02 -0.10554420125E+03  0.11113331655E+03  0.00000000000E+00 0.  1.
         11    1    3    3    0    0 -0.17206411332E+02 -0.56821476945E+02 -0.29874066286E+03  0.30458286964E+03  0.00000000000E+00 0. -1.
</event>
<event>
 7    1  0.4274778E-006  0.1118495E+03  0.7561462E-02  0.1257183E+00
          1   -1    0    0  501    0  0.00000000000E+00  0.00000000000E+00  0.29835074105E+02  0.29835074105E+02  0.00000000000E+00 0. -1.
         -1   -1    0    0    0  501 -0.00000000000E+00 -0.00000000000E+00 -0.53447126426E+03  0.53447126426E+03  0.00000000000E+00 0.  1.
         23    2    1    2    0    0 -0.38430514740E+02  0.49053614663E+02 -0.17548651294E+03  0.20671908354E+03  0.89744647217E+02 0.  0.
          5    1    1    2  502    0  0.69039159188E+02 -0.53301101009E+02 -0.13385582182E+03  0.15981948037E+03  0.41800000000E+01 0.  1.
         -5    1    1    2    0  502 -0.30608644448E+02  0.42474863455E+01 -0.19529385540E+03  0.19776777445E+03  0.41800000000E+01 0.  1.
        -11    1    3    3    0    0  0.24413883439E+02  0.31675264915E+02 -0.95420073228E+02  0.10346183106E+03  0.00000000000E+00 0.  1.
         11    1    3    3    0    0 -0.62844398179E+02  0.17378349748E+02 -0.80066439707E+02  0.10325725248E+03  0.00000000000E+00 0. -1.
</event>
<event>
 7    1  0.4274778E-006  0.1158338E+03  0.7561462E-02  0.1250133E+00
         -3   -1    0    0    0  501 -0.00000000000E+00  0.00000000000E+00  0.17299988134E+03  0.17299988134E+03  0.00000000000E+00 0.  1.
          3   -1    0    0  501    0  0.00000000000E+00 -0.00000000000E+00 -0.10004917994E+03  0.10004917994E+03  0.00000000000E+00 0. -1.
         23    2    1    2    0    0  0.38816421450E+02 -0.61325304635E+02  0.16287759998E+02  0.11771932052E+03  0.91241655708E+02 0.  0.
          5    1    1    2  502    0 -0.22626474442E+02  0.84294481657E+02 -0.49120637252E+01  0.87516385629E+02  0.41800000000E+01 0. -1.
         -5    1    1    2    0  502 -0.16189947008E+02 -0.22969177022E+02  0.61575005124E+02  0.67813355125E+02  0.41800000000E+01 0. -1.
        -11    1    3    3    0    0 -0.13229775312E+02  0.17182500015E+02  0.81842529845E+01  0.23178594834E+02  0.00000000000E+00 0. -1.
         11    1    3    3    0    0  0.52046196762E+02 -0.78507804649E+02  0.81035070136E+01  0.94540725691E+02  0.00000000000E+00 0.  1.
</event>
<event>
 7    1  0.4274778E-006  0.1639715E+03  0.7561462E-02  0.1184285E+00
          1   -1    0    0  501    0  0.00000000000E+00  0.00000000000E+00  0.48438343027E+03  0.48438343027E+03  0.00000000000E+00 0. -1.
         -1   -1    0    0    0  501 -0.00000000000E+00 -0.00000000000E+00 -0.67259775043E+02  0.67259775043E+02  0.00000000000E+00 0.  1.
         23    2    1    2    0    0  0.23755491824E+02 -0.13372516556E+03  0.18950016156E+03  0.25854478384E+03  0.11175128957E+03 0.  0.
          5    1    1    2  502    0  0.49465104239E+02  0.74993095510E+02  0.98121459220E+02  0.13310166818E+03  0.41800000000E+01 0.  1.
         -5    1    1    2    0  502 -0.73220596063E+02  0.58732070053E+02  0.12950203444E+03  0.15999675330E+03  0.41800000000E+01 0.  1.
        -11    1    3    3    0    0 -0.14648670536E+02 -0.28676708169E+02 -0.65240291881E+01  0.32855746784E+02  0.00000000000E+00 0.  1.
         11    1    3    3    0    0  0.38404162359E+02 -0.10504845739E+03  0.19602419075E+03  0.22568903706E+03  0.00000000000E+00 0. -1.
</event>
<event>
 7    1  0.4274778E-006  0.1947639E+03  0.7561462E-02  0.1154233E+00
          1   -1    0    0  501    0  0.00000000000E+00  0.00000000000E+00  0.16593239540E+03  0.16593239540E+03  0.00000000000E+00 0. -1.
         -1   -1    0    0    0  501 -0.00000000000E+00 -0.00000000000E+00 -0.36577898146E+03  0.36577898146E+03  0.00000000000E+00 0.  1.
         23    2    1    2    0    0 -0.16419190241E+03  0.72464877838E+02  0.42743338217E+02  0.20504889576E+03  0.89486967502E+02 0.  0.
          5    1    1    2  502    0  0.86944284156E+02 -0.82993325505E+02 -0.74891521463E+02  0.14168067269E+03  0.41800000000E+01 0.  1.
         -5    1    1    2    0  502  0.77247618258E+02  0.10528447667E+02 -0.16769840282E+03  0.18498180841E+03  0.41800000000E+01 0.  1.
        -11    1    3    3    0    0 -0.14626150354E+03  0.85130333258E+02  0.57344451372E+02  0.17868404283E+03  0.00000000000E+00 0. -1.
         11    1    3    3    0    0 -0.17930398870E+02 -0.12665455420E+02 -0.14601113155E+02  0.26364852930E+02  0.00000000000E+00 0.  1.
</event>
<event>
 7    1  0.4274778E-006  0.3134972E+03  0.7561462E-02  0.1078682E+00
         -1   -1    0    0    0  501 -0.00000000000E+00  0.00000000000E+00  0.34763181940E+03  0.34763181940E+03  0.00000000000E+00 0.  1.
          1   -1    0    0  501    0  0.00000000000E+00 -0.00000000000E+00 -0.49728414121E+03  0.49728414121E+03  0.00000000000E+00 0. -1.
         23    2    1    2    0    0  0.30051346730E+03  0.59232495088E+02 -0.33720059856E+03  0.46460667199E+03  0.91314202022E+02 0.  0.
          5    1    1    2  502    0 -0.27199769626E+02  0.22022102329E+02 -0.58763243903E+01  0.35732394925E+02  0.41800000000E+01 0. -1.
         -5    1    1    2    0  502 -0.27331369767E+03 -0.81254597417E+02  0.19342460114E+03  0.34457689369E+03  0.41800000000E+01 0. -1.
        -11    1    3    3    0    0  0.11860306064E+03  0.16790425722E+02 -0.70486231854E+02  0.13898529876E+03  0.00000000000E+00 0. -1.
         11    1    3    3    0    0  0.18191040666E+03  0.42442069366E+02 -0.26671436670E+03  0.32562137324E+03  0.00000000000E+00 0.  1.
</event>
<event>
 7    1  0.4274778E-006  0.2122975E+03  0.7561462E-02  0.1139759E+00
          2   -1    0    0  501    0  0.00000000000E+00  0.00000000000E+00  0.27884620230E+03  0.27884620230E+03  0.00000000000E+00 0. -1.
         -2   -1    0    0    0  501 -0.00000000000E+00 -0.00000000000E+00 -0.19142649368E+03  0.19142649368E+03  0.00000000000E+00 0.  1.
         23    2    1    2    0    0 -0.10054903991E+03  0.15547380460E+03  0.12996123742E+03  0.24280819738E+03  0.88225189952E+02 0.  0.
          5    1    1    2  502    0 -0.23363082834E+02 -0.66978097427E+02 -0.16113923291E+02  0.72863091468E+02  0.41800000000E+01 0.  1.
         -5    1    1    2    0  502  0.12391212274E+03 -0.88495707171E+02 -0.26427605508E+02  0.15460140712E+03  0.41800000000E+01 0.  1.
        -11    1    3    3    0    0 -0.53590507840E+02  0.18959993368E+02  0.16496868769E+02  0.59190966863E+02  0.00000000000E+00 0.  1.
         11    1    3    3    0    0 -0.46958532071E+02  0.13651381123E+03  0.11346436865E+03  0.18361723052E+03  0.00000000000E+00 0. -1.
</event>
<event>
 7    1  0.4274778E-006  0.1248322E+03  0.7561462E-02  0.1235332E+00
         -3   -1    0    0    0  501 -0.00000000000E+00  0.00000000000E+00  0.58594136264E+02  0.58594136264E+02  0.00000000000E+00 0.  1.
          3   -1    0    0  501    0  0.00000000000E+00 -0.00000000000E+00 -0.46006345002E+03  0.46006345002E+03  0.00000000000E+00 0. -1.
         23    2    1    2    0    0 -0.69623644581E+02 -0.79369366073E+02 -0.29879800698E+03  0.32543427763E+03  0.74028858744E+02 0.  0.
          5    1    1    2  502    0  0.60926509845E+02  0.16157119810E+02  0.97203891273E+01  0.63914399687E+02  0.41800000000E+01 0.  1.
         -5    1    1    2    0  502  0.86971347360E+01  0.63212246263E+02 -0.11239169591E+03  0.12930890897E+03  0.41800000000E+01 0.  1.
        -11    1    3    3    0    0 -0.81498853991E+02 -0.69184882357E+02 -0.21412866677E+03  0.23933177198E+03  0.00000000000E+00 0.  1.
         11    1    3    3    0    0  0.11875209410E+02 -0.10184483716E+02 -0.84669340211E+02  0.86102505648E+02  0.00000000000E+00 0. -1.
</event>
<event>
 7    1  0.4274778E-006  0.7648504E+02  0.7561462E-02  0.1339333E+00
         -2   -1    0    0    0  501 -0.00000000000E+00  0.00000000000E+00  0.31565738189E+03  0.31565738189E+03  0.00000000000E+00 0. -1.
          2   -1    0    0  501    0  0.00000000000E+00 -0.00000000000E+00 -0.39371706851E+02  0.39371706851E+02  0.00000000000E+00 0.  1.
         23    2    1    2    0    0  0.26445808431E+02 -0.47018760847E+01  0.10082074104E+03  0.13786631814E+03  0.90115544891E+02 0.  0.
          5    1    1    2  502    0 -0.63506343811E+01 -0.23533683342E+02 -0.11280727362E+02  0.27182568284E+02  0.41800000000E+01 0. -1.
         -5    1    1    2    0  502 -0.20095174050E+02  0.28235559427E+02  0.18674566136E+03  0.18998020232E+03  0.41800000000E+01 0. -1.
        -11    1    3    3    0    0  0.50307278111E+02 -0.29985565209E+02  0.71209261249E+02  0.92199323422E+02  0.00000000000E+00 0. -1.
         11    1    3    3    0    0 -0.23861469680E+02  0.25283689124E+02  0.29611479792E+02  0.45666994717E+02  0.00000000000E+00 0.  1.
</event>
<event>
 7    1  0.4274778E-006  0.1262162E+03  0.7561462E-02  0.1233181E+00
         -1   -1    0    0    0  501 -0.00000000000E+00  0.00000000000E+00  0.90920012949E+03  0.90920012949E+03  0.00000000000E+00 0.  1.
          1   -1    0    0  501    0  0.00000000000E+00 -0.00000000000E+00 -0.22084474807E+02  0.22084474807E+02  0.00000000000E+00 0. -1.
         23    2    1    2    0    0 -0.55643440561E+02 -0.72861074652E+02  0.42271235533E+03  0.44166842440E+03  0.89332710053E+02 0.  0.
          5    1    1    2  502    0 -0.35049479058E+01  0.80984411482E+02  0.16028863413E+03  0.17966824481E+03  0.41800000000E+01 0. -1.
         -5    1    1    2    0  502  0.59148388467E+02 -0.81233368307E+01  0.30411466523E+03  0.30994793509E+03  0.41800000000E+01 0. -1.
        -11    1    3    3    0    0 -0.49445086497E+01 -0.58517314836E+02  0.32863997731E+03  0.33384571135E+03  0.00000000000E+00 0.  1.
         11    1    3    3    0    0 -0.50698931912E+02 -0.14343759816E+02  0.94072378021E+02  0.10782271305E+03  0.00000000000E+00 0. -1.
</event>
<event>
 7    1  0.4274778E-006  0.1045063E+03  0.7561462E-02  0.1271095E+00
         -2   -1    0    0    0  501 -0.00000000000E+00  0.00000000000E+00  0.18465249322E+03  0.18465249322E+03  0.00000000000E+00 0.  1.
          2   -1    0    0  501    0  0.00000000000E+00 -0.00000000000E+00 -0.87973901026E+02  0.87973901026E+02  0.00000000000E+00 0. -1.
         23    2    1    2    0    0  0.54478067297E+02 -0.38045289539E+02  0.40130159149E+02  0.12011242806E+03  0.91658397474E+02 0.  0.
          5    1    1    2  502    0  0.24396366460E+02  0.49920748893E+02  0.45385092466E+02  0.71864754119E+02  0.41800000000E+01 0. -1.
         -5    1    1    2    0  502 -0.78874433757E+02 -0.11875459354E+02  0.11163340582E+02  0.80649212075E+02  0.41800000000E+01 0. -1.
        -11    1    3    3    0    0  0.31864873172E+02 -0.39510658128E+02 -0.20989318765E+02  0.54927349747E+02  0.00000000000E+00 0. -1.
         11    1    3    3    0    0  0.22613194125E+02  0.14653685891E+01  0.61119477914E+02  0.65185078308E+02  0.00000000000E+00 0.  1.
</event>
<event>
 7    1  0.4274778E-006  0.2391728E+03  0.7561462E-02  0.1120345E+00
          2   -1    0    0  501    0  0.00000000000E+00  0.00000000000E+00  0.26159858628E+03  0.26159858628E+03  0.00000000000E+00 0. -1.
         -2   -1    0    0    0  501 -0.00000000000E+00 -0.00000000000E+00 -0.23802133531E+03  0.23802133531E+03  0.00000000000E+00 0.  1.
         23    2    1    2    0    0  0.21952688559E+03  0.36701967646E+02  0.35811909071E+02  0.24401041941E+03  0.93378284539E+02 0.  0.
          5    1    1    2  502    0 -0.19991675938E+03 -0.58833040587E+02  0.22679309569E+02  0.20966606981E+03  0.41800000000E+01 0. -1.
         -5    1    1    2    0  502 -0.19610126204E+02  0.22131072940E+02 -0.34913967671E+02  0.45943432368E+02  0.41800000000E+01 0. -1.
        -11    1    3    3    0    0  0.10961952061E+03 -0.27157914866E+02  0.41318909774E+01  0.11300913309E+03  0.00000000000E+00 0.  1.
         11    1    3    3    0    0  0.10990736498E+03  0.63859882512E+02  0.31680018094E+02  0.13100128632E+03  0.00000000000E+00 0. -1.
</event>
<event>
 7    1  0.4274778E-006  0.1155399E+03  0.7561462E-02  0.1250642E+00
          3   -1    0    0  501    0  0.00000000000E+00  0.00000000000E+00  0.79776986746E+02  0.79776986746E+02  0.00000000000E+00 0. -1.
         -3   -1    0    0    0  501 -0.00000000000E+00 -0.00000000000E+00 -0.18282243076E+03  0.18282243076E+03  0.00000000000E+00 0.  1.
         23    2    1    2    0    0  0.61907817086E+02  0.93975398107E+00 -0.40359403919E+02  0.11807839699E+03  0.92087813506E+02 0.  0.
          5    1    1    2  502    0  0.30366947326E+02 -0.33695336669E+00  0.35446118623E+01  0.30859385942E+02  0.41800000000E+01 0. -1.
         -5    1    1    2    0  502 -0.92274764412E+02 -0.60280061438E+00 -0.66230651957E+02  0.11366163458E+03  0.41800000000E+01 0.  1.
        -11    1    3    3    0    0 -0.22853588272E+02 -0.37643494457E+01 -0.20416750816E+02  0.30875565380E+02  0.00000000000E+00 0.  1.
         11    1    3    3    0    0  0.84761405358E+02  0.47041034268E+01 -0.19942653103E+02  0.87202831606E+02  0.00000000000E+00 0. -1.
</event>
<event>
 7    1  0.4274778E-006  0.1013575E+03  0.7561462E-02  0.1277467E+00
         -2   -1    0    0    0  501 -0.00000000000E+00  0.00000000000E+00  0.37922187027E+02  0.37922187027E+02  0.00000000000E+00 0.  1.
          2   -1    0    0  501    0  0.00000000000E+00 -0.00000000000E+00 -0.29934665117E+03  0.29934665117E+03  0.00000000000E+00 0. -1.
         23    2    1    2    0    0 -0.15823585128E+02 -0.22295772634E+02 -0.13053254122E+03  0.15416279031E+03  0.77330034742E+02 0.  0.
          5    1    1    2  502    0  0.65080192933E+02 -0.11614263035E+02 -0.84131660276E+02  0.10707908890E+03  0.41800000000E+01 0. -1.
         -5    1    1    2    0  502 -0.49256607806E+02  0.33910035669E+02 -0.46760262646E+02  0.76026958997E+02  0.41800000000E+01 0. -1.
        -11    1    3    3    0    0 -0.25727902169E+01  0.26163586790E+02 -0.20961148535E+02  0.33623240045E+02  0.00000000000E+00 0. -1.
         11    1    3    3    0    0 -0.13250794911E+02 -0.48459359424E+02 -0.10957139269E+03  0.12053955026E+03  0.00000000000E+00 0.  1.
</event>
<event>
 7    1  0.4274778E-006  0.9707165E+02  0.7561462E-02  0.1286577E+00
          1   -1    0    0  501    0  0.00000000000E+00  0.00000000000E+00  0.54927308686E+03  0.54927308686E+03  0.00000000000E+00 0. -1.
         -1   -1    0    0    0  501 -0.00000000000E+00 -0.00000000000E+00 -0.25496759800E+02  0.25496759800E+02  0.00000000000E+00 0.  1.
         23    2    1    2    0    0 -0.38626837764E+02  0.38321173180E+02  0.32384094717E+03  0.33910542930E+03  0.84610804289E+02 0.  0.
          5    1    1    2  502    0 -0.72984718108E+01 -0.65783058897E+02  0.14179543278E+03  0.15653784107E+03  0.41800000000E+01 0. -1.
         -5    1    1    2    0  502  0.45925309574E+02  0.27461885717E+02  0.58139947103E+02  0.79126576292E+02  0.41800000000E+01 0.  1.
        -11    1    3    3    0    0 -0.87142454855E+01 -0.12466398476E+02  0.68505309183E+01  0.16681694734E+02  0.00000000000E+00 0.  1.
         11    1    3    3    0    0 -0.29912592278E+02  0.50787571656E+02  0.31699041625E+03  0.32242373456E+03  0.00000000000E+00 0. -1.
</event>
<event>
 7    1  0.4274778E-006  0.1305211E+03  0.7561462E-02  0.1226685E+00
         -1   -1    0    0    0  501 -0.00000000000E+00  0.00000000000E+00  0.86642476056E+02  0.86642476056E+02  0.00000000000E+00 0.  1.
          1   -1    0    0  501    0  0.00000000000E+00 -0.00000000000E+00 -0.23813377518E+03  0.23813377518E+03  0.00000000000E+00 0. -1.
         23    2    1    2    0    0 -0.62122272016E+02  0.39773484861E+02 -0.13532637137E+03  0.17866587555E+03  0.90372349310E+02 0.  0.
          5    1    1    2  502    0  0.56646617350E+02 -0.83026836968E+02 -0.41001449916E+01  0.10068057659E+03  0.41800000000E+01 0.  1.
         -5    1    1    2    0  502  0.54756546660E+01  0.43253352107E+02 -0.12064782763E+02  0.45429799093E+02  0.41800000000E+01 0.  1.
        -11    1    3    3    0    0  0.76633091534E+01  0.45953360047E+02 -0.53035203082E+02  0.70591574375E+02  0.00000000000E+00 0. -1.
         11    1    3    3    0    0 -0.69785581170E+02 -0.61798751857E+01 -0.82291168289E+02  0.10807430118E+03  0.00000000000E+00 0.  1.
</event>
<event>
 7    1  0.4274778E-006  0.1126539E+03  0.7561462E-02  0.1255733E+00
          1   -1    0    0  501    0  0.00000000000E+00  0.00000000000E+00  0.30149240702E+03  0.30149240702E+03  0.00000000000E+00 0. -1.
         -1   -1    0    0    0  501 -0.00000000000E+00 -0.00000000000E+00 -0.54748320851E+02  0.54748320851E+02  0.00000000000E+00 0.  1.
         23    2    1    2    0    0 -0.95851361353E+01 -0.67771131576E+02  0.10323579311E+03  0.15393738858E+03  0.91401802566E+02 0.  0.
          5    1    1    2  502    0  0.54163663251E+02  0.52153361195E+02  0.33328653367E+02  0.82352577591E+02  0.41800000000E+01 0.  1.
         -5    1    1    2    0  502 -0.44578527115E+02  0.15617770381E+02  0.11017963969E+03  0.11995076170E+03  0.41800000000E+01 0.  1.
        -11    1    3    3    0    0  0.30303138648E+02 -0.50972119616E+02  0.91599964472E+02  0.10911915818E+03  0.00000000000E+00 0. -1.
         11    1    3    3    0    0 -0.39888274783E+02 -0.16799011960E+02  0.11635828642E+02  0.44818230400E+02  0.00000000000E+00 0.  1.
</event>
<event>
 7    1  0.4274778E-006  0.9486611E+02  0.7561462E-02  0.1291478E+00
         -1   -1    0    0    0  501 -0.00000000000E+00  0.00000000000E+00  0.21590931648E+02  0.21590931648E+02  0.00000000000E+00 0.  1.
          1   -1    0    0  501    0  0.00000000000E+00 -0.00000000000E+00 -0.57430485324E+03  0.57430485324E+03  0.00000000000E+00 0. -1.
         23    2    1    2    0    0  0.13982425471E+02 -0.15178548112E+02 -0.25935092575E+03  0.27630589471E+03  0.93038423369E+02 0.  0.
          5    1    1    2  502    0 -0.48735998966E+02  0.29984790769E+02 -0.26758295205E+03  0.27366474727E+03  0.41800000000E+01 0.  1.
         -5    1    1    2    0  502  0.34753573496E+02 -0.14806242657E+02 -0.25780043796E+02  0.45925142901E+02  0.41800000000E+01 0.  1.
        -11    1    3    3    0    0 -0.91583030729E+01  0.36551654727E+02 -0.12314333832E+03  0.12877957816E+03  0.00000000000E+00 0. -1.
         11    1    3    3    0    0  0.23140728544E+02 -0.51730202839E+02 -0.13620758742E+03  0.14752631655E+03  0.00000000000E+00 0.  1.
</event>
<event>
 7    1  0.4274778E-006  0.1258145E+03  0.7561462E-02  0.1233802E+00
          1   -1    0    0  501    0  0.00000000000E+00  0.00000000000E+00  0.25119127510E+02  0.25119127510E+02  0.00000000000E+00 0. -1.
         -1   -1    0    0    0  501 -0.00000000000E+00 -0.00000000000E+00 -0.71965673890E+03  0.71965673890E+03  0.00000000000E+00 0.  1.
         23    2    1    2    0    0 -0.74262918313E+02  0.45938143707E+01 -0.24120847079E+03  0.26865376483E+03  0.91963225311E+02 0.  0.
          5    1    1    2  502    0  0.17716754007E+02  0.56678041182E+02 -0.14634324940E+03  0.15798766651E+03  0.41800000000E+01 0. -1.
         -5    1    1    2    0  502  0.56546164306E+02 -0.61271855553E+02 -0.30698589120E+03  0.31813443507E+03  0.41800000000E+01 0. -1.
        -11    1    3    3    0    0 -0.49372226001E+02 -0.35928762463E+02 -0.80387982513E+02  0.10094909809E+03  0.00000000000E+00 0. -1.
         11    1    3    3    0    0 -0.24890692312E+02  0.40522576834E+02 -0.16082048828E+03  0.16770466674E+03  0.00000000000E+00 0.  1.
</event>
<event>
 7    1  0.4274778E-006  0.9259979E+02  0.7561462E-02  0.1296675E+00
          1   -1    0    0  501    0  0.00000000000E+00  0.00000000000E+00  0.84176792909E+02  0.84176792909E+02  0.00000000000E+00 0. -1.
         -1   -1    0    0    0  501 -0.00000000000E+00 -0.00000000000E+00 -0.19975282021E+03  0.19975282021E+03  0.00000000000E+00 0.  1.
         23    2    1    2    0    0  0.57184980686E+02 -0.44580886523E+02 -0.71839700486E+01  0.11265405685E+03  0.85917109127E+02 0.  0.
          5    1    1    2  502    0 -0.26951516385E+02  0.10816661904E+02  0.19698093456E+02  0.35339378828E+02  0.41800000000E+01 0. -1.
         -5    1    1    2    0  502 -0.30233464300E+02  0.33764224619E+02 -0.12809015071E+03  0.13593617744E+03  0.41800000000E+01 0.  1.
        -11    1    3    3    0    0  0.72691401226E+02 -0.11214598068E+02 -0.14936595061E+02  0.75052707439E+02  0.00000000000E+00 0. -1.
         11    1    3    3    0    0 -0.15506420540E+02 -0.33366288454E+02  0.77526250121E+01  0.37601349414E+02  0.00000000000E+00 0.  1.
</event>
<event>
 7    1  0.4274778E-006  0.1181010E+03  0.7561462E-02  0.1246263E+00
         -1   -1    0    0    0  501 -0.00000000000E+00  0.00000000000E+00  0.31971461175E+03  0.31971461175E+03  0.00000000000E+00 0.  1.
          1   -1    0    0  501    0  0.00000000000E+00 -0.00000000000E+00 -0.51017774632E+02  0.51017774632E+02  0.00000000000E+00 0. -1.
         23    2    1    2    0    0 -0.51627290358E+02  0.33738351156E+02  0.96030082929E+02  0.14875442614E+03  0.95406755632E+02 0.  0.
          5    1    1    2  502    0 -0.40466112889E+02 -0.20151051215E+02  0.45013690985E+02  0.63931806900E+02  0.41800000000E+01 0.  1.
         -5    1    1    2    0  502  0.92093403247E+02 -0.13587299941E+02  0.12765306321E+03  0.15804615335E+03  0.41800000000E+01 0.  1.
        -11    1    3    3    0    0 -0.64892704254E+02  0.46009516414E+02  0.38350309974E+02  0.88310163295E+02  0.00000000000E+00 0. -1.
         11    1    3    3    0    0  0.13265413895E+02 -0.12271165258E+02  0.57679772956E+02  0.60444262845E+02  0.00000000000E+00 0.  1.
</event>
<event>
 7    1  0.4274778E-006  0.9948851E+02  0.7561462E-02  0.1281375E+00
          2   -1    0    0  501    0  0.00000000000E+00  0.00000000000E+00  0.69155825533E+03  0.69155825533E+03  0.00000000000E+00 0. -1.
         -2   -1    0    0    0  501 -0.00000000000E+00 -0.00000000000E+00 -0.17357290703E+02  0.17357290703E+02  0.00000000000E+00 0.  1.
         23    2    1    2    0    0  0.32407279719E+01 -0.88702317204E+01  0.34440737686E+03  0.35607681975E+03  0.89917056232E+02 0.  0.
          5    1    1    2  502    0  0.28802520999E+02 -0.40654494124E+02  0.67726828692E+02  0.84182948588E+02  0.41800000000E+01 0.  1.
         -5    1    1    2    0  502 -0.32043248971E+02  0.49524725844E+02  0.26206675908E+03  0.26865577769E+03  0.41800000000E+01 0.  1.
        -11    1    3    3    0    0  0.39855506389E+02  0.18685518277E+02  0.14886224251E+03  0.15523394354E+03  0.00000000000E+00 0.  1.
         11    1    3    3    0    0 -0.36614778417E+02 -0.27555749998E+02  0.19554513435E+03  0.20084287621E+03  0.00000000000E+00 0. -1.
</event>
<event>
 7    1  0.4274778E-006  0.1855026E+03  0.7561462E-02  0.1162581E+00
         -2   -1    0    0    0  501 -0.00000000000E+00  0.00000000000E+00  0.24878525808E+02  0.24878525808E+02  0.00000000000E+00 0.  1.
          2   -1    0    0  501    0  0.00000000000E+00 -0.00000000000E+00 -0.15680314721E+04  0.15680314721E+04  0.00000000000E+00 0. -1.
         23    2    1    2    0    0 -0.63831256358E+02 -0.14574950906E+03 -0.55579562388E+03  0.58502123921E+03  0.89575253971E+02 0.  0.
          5    1    1    2  502    0  0.52690550715E+02  0.16252515310E+03 -0.94994100126E+03  0.96519225950E+03  0.41800000000E+01 0.  1.
         -5    1    1    2    0  502  0.11140705643E+02 -0.16775644039E+02 -0.37416321150E+02  0.42696499196E+02  0.41800000000E+01 0.  1.
        -11    1    3    3    0    0  0.14093105104E+02 -0.68039408688E+02 -0.26919958391E+03  0.27802228817E+03  0.00000000000E+00 0.  1.
         11    1    3    3    0    0 -0.77924361462E+02 -0.77710100369E+02 -0.28659603998E+03  0.30699895104E+03  0.00000000000E+00 0. -1.
</event>
<event>
 7    1  0.4274778E-006  0.1352657E+03  0.7561462E-02  0.1219845E+00
          1   -1    0    0  501    0  0.00000000000E+00  0.00000000000E+00  0.18064904440E+03  0.18064904440E+03  0.00000000000E+00 0. -1.
         -1   -1    0    0    0  501 -0.00000000000E+00 -0.00000000000E+00 -0.16525929613E+03  0.16525929613E+03  0.00000000000E+00 0.  1.
         23    2    1    2    0    0 -0.83606670967E+02  0.32251570382E+02  0.10727935050E+03  0.16668395930E+03  0.90798920815E+02 0.  0.
          5    1    1    2  502    0  0.10639420075E+03 -0.55288415365E+02 -0.62496885921E+02  0.13527700461E+03  0.41800000000E+01 0. -1.
         -5    1    1    2    0  502 -0.22787529781E+02  0.23036844983E+02 -0.29392716308E+02  0.43947376625E+02  0.41800000000E+01 0. -1.
        -11    1    3    3    0    0 -0.29706096639E+02 -0.25310239417E+02  0.68427714220E+02  0.78774440463E+02  0.00000000000E+00 0. -1.
         11    1    3    3    0    0 -0.53900574328E+02  0.57561809799E+02  0.38851636282E+02  0.87909518836E+02  0.00000000000E+00 0.  1.
</event>
<event>
 7    1  0.4274778E-006  0.1127931E+03  0.7561462E-02  0.1255483E+00
         -3   -1    0    0    0  501 -0.00000000000E+00  0.00000000000E+00  0.32631392565E+03  0.32631392565E+03  0.00000000000E+00 0.  1.
          3   -1    0    0  501    0  0.00000000000E+00 -0.00000000000E+00 -0.48750355428E+02  0.48750355428E+02  0.00000000000E+00 0. -1.
         23    2    1    2    0    0  0.41335219125E+02 -0.11004964555E+01  0.46928688433E+02  0.10945125123E+03  0.89819057914E+02 0.  0.
          5    1    1    2  502    0 -0.12100864082E+02 -0.58664539107E+02  0.73408325372E+02  0.94837828391E+02  0.41800000000E+01 0. -1.
         -5    1    1    2    0  502 -0.29234355043E+02  0.59765035562E+02  0.15722655642E+03  0.17077520146E+03  0.41800000000E+01 0. -1.
        -11    1    3    3    0    0 -0.96744064650E+01 -0.35865731714E+02  0.18000929499E+02  0.41279272215E+02  0.00000000000E+00 0.  1.
         11    1    3    3    0    0  0.51009625590E+02  0.34765235258E+02  0.28927758935E+02  0.68171979012E+02  0.00000000000E+00 0. -1.
</event>
<event>
 7    1  0.4274778E-006  0.2916143E+03  0.7561462E-02  0.1089509E+00
          1   -1    0    0  501    0  0.00000000000E+00  0.00000000000E+00  0.81221921970E+02  0.81221921970E+02  0.00000000000E+00 0. -1.
         -1   -1    0    0    0  501 -0.00000000000E+00 -0.00000000000E+00 -0.10879762021E+04  0.10879762021E+04  0.00000000000E+00 0.  1.
         23    2    1    2    0    0 -0.23087923780E+03  0.14991911695E+03 -0.54441379318E+03  0.61676188552E+03  0.90707668589E+02 0.  0.
          5    1    1    2  502    0  0.15133320984E+03 -0.15289486511E+03 -0.38679710911E+03  0.44261502030E+03  0.41800000000E+01 0.  1.
         -5    1    1    2    0  502  0.79546027967E+02  0.29757481586E+01 -0.75543377809E+02  0.10982121823E+03  0.41800000000E+01 0.  1.
        -11    1    3    3    0    0 -0.90006497927E+02  0.10960297540E+03 -0.23657834885E+03  0.27583200872E+03  0.00000000000E+00 0. -1.
         11    1    3    3    0    0 -0.14087273988E+03  0.40316141554E+02 -0.30783544433E+03  0.34092987680E+03  0.00000000000E+00 0.  1.
</event>
<event>
 7    1  0.4274778E-006  0.1309703E+03  0.7561462E-02  0.1226023E+00
         -2   -1    0    0    0  501 -0.00000000000E+00  0.00000000000E+00  0.25881340022E+03  0.25881340022E+03  0.00000000000E+00 0.  1.
          2   -1    0    0  501    0  0.00000000000E+00 -0.00000000000E+00 -0.11898351371E+03  0.11898351371E+03  0.00000000000E+00 0. -1.
         23    2    1    2    0    0  0.10081239675E+03  0.29792712367E+02  0.12811785459E+02  0.14009852933E+03  0.91720832022E+02 0.  0.
          5    1    1    2  502    0 -0.76924063325E+02 -0.50138842815E+02 -0.14172179508E+02  0.93002893231E+02  0.41800000000E+01 0. -1.
         -5    1    1    2    0  502 -0.23888333421E+02  0.20346130449E+02  0.14119028056E+03  0.14469549136E+03  0.41800000000E+01 0.  1.
        -11    1    3    3    0    0 -0.15870553872E+02  0.12934030370E+02 -0.44372418626E+01  0.20948812309E+02  0.00000000000E+00 0.  1.
         11    1    3    3    0    0  0.11668295062E+03  0.16858681997E+02  0.17249027321E+02  0.11914971702E+03  0.00000000000E+00 0. -1.
</event>
<event>
 7    1  0.4274778E-006  0.1122103E+03  0.7561462E-02  0.1256531E+00
          1   -1    0    0  501    0  0.00000000000E+00  0.00000000000E+00  0.66591212102E+03  0.66591212102E+03  0.00000000000E+00 0. -1.
         -1   -1    0    0    0  501 -0.00000000000E+00 -0.00000000000E+00 -0.21826304332E+02  0.21826304332E+02  0.00000000000E+00 0.  1.
         23    2    1    2    0    0  0.20800599976E+02  0.14019856440E+02  0.38463404401E+03  0.39861490231E+03  0.10159365726E+03 0.  0.
          5    1    1    2  502    0  0.42948989319E+02 -0.33440615307E+02  0.16231480303E+03  0.17124969523E+03  0.41800000000E+01 0.  1.
         -5    1    1    2    0  502 -0.63749589295E+02  0.19420758868E+02  0.97136969641E+02  0.11787382780E+03  0.41800000000E+01 0.  1.
        -11    1    3    3    0    0 -0.32734921024E+02  0.32781347368E+02  0.20793053303E+03  0.21302886742E+03  0.00000000000E+00 0. -1.
         11    1    3    3    0    0  0.53535521000E+02 -0.18761490928E+02  0.17670351098E+03  0.18558603489E+03  0.00000000000E+00 0.  1.
</event>
<event>
 7    1  0.4274778E-006  0.8145004E+02  0.7561462E-02  0.1324986E+00
          2   -1    0    0  501    0  0.00000000000E+00  0.00000000000E+00  0.20277904810E+03  0.20277904810E+03  0.00000000000E+00 0. -1.
         -2   -1    0    0    0  501 -0.00000000000E+00 -0.00000000000E+00 -0.73625517842E+02  0.73625517842E+02  0.00000000000E+00 0.  1.
         23    2    1    2    0    0 -0.46068453581E+02 -0.22680350012E+02  0.63311811115E+02  0.12600832522E+03  0.96088562831E+02 0.  0.
          5    1    1    2  502    0  0.10624825003E+02  0.13298873651E+02 -0.37104441376E+02  0.41036068483E+02  0.41800000000E+01 0.  1.
         -5    1    1    2    0  502  0.35443628578E+02  0.93814763610E+01  0.10294616052E+03  0.10936017224E+03  0.41800000000E+01 0.  1.
        -11    1    3    3    0    0 -0.47312799200E+02  0.29839224728E+02  0.26750647026E+02  0.62003850016E+02  0.00000000000E+00 0.  1.
         11    1    3    3    0    0  0.12443456193E+01 -0.52519574741E+02  0.36561164090E+02  0.64004475207E+02  0.00000000000E+00 0. -1.
</event>
<event>
 7    1  0.4274778E-006  0.1879258E+03  0.7561462E-02  0.1160346E+00
         -2   -1    0    0    0  501 -0.00000000000E+00  0.00000000000E+00  0.10448233048E+03  0.10448233048E+03  0.00000000000E+00 0.  1.
          2   -1    0    0  501    0  0.00000000000E+00 -0.00000000000E+00 -0.42219520307E+03  0.42219520307E+03  0.00000000000E+00 0. -1.
         23    2    1    2    0    0  0.13779354469E+03  0.10518061954E+03 -0.20741921346E+03  0.28612999220E+03  0.93795621649E+02 0.  0.
          5    1    1    2  502    0 -0.36625705009E+02  0.10137976301E+02 -0.73326791924E+02  0.82695293969E+02  0.41800000000E+01 0.  1.
         -5    1    1    2    0  502 -0.10116783968E+03 -0.11531859584E+03 -0.36966867203E+02  0.15785224738E+03  0.41800000000E+01 0.  1.
        -11    1    3    3    0    0  0.83073093371E+02  0.24391019782E+02 -0.47397007852E+02  0.98704290898E+02  0.00000000000E+00 0.  1.
         11    1    3    3    0    0  0.54720451315E+02  0.80789599761E+02 -0.16002220561E+03  0.18742570131E+03  0.00000000000E+00 0. -1.
</event>
<event>
 7    1  0.4274778E-006  0.1149284E+03  0.7561462E-02  0.1251706E+00
         -1   -1    0    0    0  501 -0.00000000000E+00  0.00000000000E+00  0.97695471470E+02  0.97695471470E+02  0.00000000000E+00 0.  1.
          1   -1    0    0  501    0  0.00000000000E+00 -0.00000000000E+00 -0.25075171028E+03  0.25075171028E+03  0.00000000000E+00 0. -1.
         23    2    1    2    0    0  0.60143125711E+02  0.11771176666E+02 -0.17796669019E+03  0.20695394997E+03  0.86035099922E+02 0.  0.
          5    1    1    2  502    0  0.31299906371E+02  0.77157792398E+01  0.34513946922E+02  0.47412048261E+02  0.41800000000E+01 0. -1.
         -5    1    1    2    0  502 -0.91443032082E+02 -0.19486955906E+02 -0.96034955438E+01  0.94081183525E+02  0.41800000000E+01 0. -1.
        -11    1    3    3    0    0  0.29750498030E+01  0.39925023676E+02 -0.88272401251E+02  0.96927164714E+02  0.00000000000E+00 0.  1.
         11    1    3    3    0    0  0.57168075908E+02 -0.28153847009E+02 -0.89694288940E+02  0.11002678525E+03  0.00000000000E+00 0. -1.
</event>
<event>
 7    1  0.5111107E-006  0.2811719E+03  0.7561462E-02  0.1095051E+00
          1   -1    0    0  501    0  0.00000000000E+00  0.00000000000E+00  0.16050069525E+04  0.16050069525E+04  0.00000000000E+00 0. -1.
         -1   -1    0    0    0  501 -0.00000000000E+00 -0.00000000000E+00 -0.57994721362E+02  0.57994721362E+02  0.00000000000E+00 0.  1.
         23    2    1    2    0    0 -0.19076062000E+03  0.19283606805E+03  0.99549797422E+03  0.10357930516E+04  0.90970685994E+02 0.  0.
          5    1    1    2  502    0  0.11791930523E+03 -0.16625786838E+03  0.29058476510E+03  0.35496988527E+03  0.41800000000E+01 0.  1.
         -5    1    1    2    0  502  0.72841314774E+02 -0.26578199663E+02  0.26092949185E+03  0.27223873705E+03  0.41800000000E+01 0.  1.
        -11    1    3    3    0    0 -0.18915598604E+02  0.62042784670E+02  0.32379595515E+03  0.33022859896E+03  0.00000000000E+00 0. -1.
         11    1    3    3    0    0 -0.17184502140E+03  0.13079328338E+03  0.67170201907E+03  0.70556445261E+03  0.00000000000E+00 0.  1.
</event>
<event>
 7    1  0.4274778E-006  0.8552179E+02  0.7561462E-02  0.1314074E+00
          1   -1    0    0  501    0  0.00000000000E+00  0.00000000000E+00  0.13605726926E+03  0.13605726926E+03  0.00000000000E+00 0. -1.
         -1   -1    0    0    0  501 -0.00000000000E+00 -0.00000000000E+00 -0.14175491240E+03  0.14175491240E+03  0.00000000000E+00 0.  1.
         23    2    1    2    0    0  0.77531445069E+02  0.20155880755E+02  0.28815754130E+02  0.12531132089E+03  0.91952134034E+02 0.  0.
          5    1    1    2  502    0 -0.69959036035E+02 -0.12543041602E+01 -0.77655564141E+02  0.10461213622E+03  0.41800000000E+01 0.  1.
         -5    1    1    2    0  502 -0.75724090339E+01 -0.18901576595E+02  0.43142166876E+02  0.47888724551E+02  0.41800000000E+01 0.  1.
        -11    1    3    3    0    0  0.18589299339E+02  0.61303903030E+01 -0.33244962549E+02  0.38579415108E+02  0.00000000000E+00 0.  1.
         11    1    3    3    0    0  0.58942145729E+02  0.14025490452E+02  0.62060716679E+02  0.86731905781E+02  0.00000000000E+00 0. -1.
</event>
<event>
 7    1  0.4274778E-006  0.1432942E+03  0.7561462E-02  0.1208964E+00
         -1   -1    0    0    0  501 -0.00000000000E+00  0.00000000000E+00  0.56428559319E+02  0.56428559319E+02  0.00000000000E+00 0. -1.
          1   -1    0    0  501    0  0.00000000000E+00 -0.00000000000E+00 -0.40239532745E+03  0.40239532745E+03  0.00000000000E+00 0.  1.
         23    2    1    2    0    0 -0.26434378936E+02  0.91799518291E+02 -0.22140790636E+03  0.25810423710E+03  0.92034820904E+02 0.  0.
          5    1    1    2  502    0  0.74388509003E+02 -0.35269048453E+02 -0.75051436102E+02  0.11147980315E+03  0.41800000000E+01 0. -1.
         -5    1    1    2    0  502 -0.47954130066E+02 -0.56530469838E+02 -0.49507425666E+02  0.89239846518E+02  0.41800000000E+01 0. -1.
        -11    1    3    3    0    0 -0.36907276412E+02 -0.60517823135E+00 -0.88525444361E+02  0.95912812451E+02  0.00000000000E+00 0.  1.
         11    1    3    3    0    0  0.10472897476E+02  0.92404696522E+02 -0.13288246200E+03  0.16219142465E+03  0.00000000000E+00 0. -1.
</event>
<event>
 7    1  0.4274778E-006  0.1157358E+03  0.7561462E-02  0.1250302E+00
         -1   -1    0    0    0  501 -0.00000000000E+00  0.00000000000E+00  0.47269046198E+02  0.47269046198E+02  0.00000000000E+00 0.  1.
          1   -1    0    0  501    0  0.00000000000E+00 -0.00000000000E+00 -0.51056620148E+03  0.51056620148E+03  0.00000000000E+00 0. -1.
         23    2    1    2    0    0  0.84251225909E+01  0.93274722466E+02 -0.25326506172E+03  0.28510640394E+03  0.91494882563E+02 0.  0.
          5    1    1    2  502    0 -0.69998019472E+01  0.71102036166E+01 -0.16020717747E+03  0.16057199113E+03  0.41800000000E+01 0. -1.
         -5    1    1    2    0  502 -0.14253206437E+01 -0.10038492608E+03 -0.49824916086E+02  0.11215685261E+03  0.41800000000E+01 0.  1.
        -11    1    3    3    0    0 -0.11420996257E+02  0.98889420836E+02 -0.24184403023E+03  0.26153028824E+03  0.00000000000E+00 0.  1.
         11    1    3    3    0    0  0.19846118848E+02 -0.56146983699E+01 -0.11421031495E+02  0.23576115700E+02  0.00000000000E+00 0. -1.
</event>
<event>
 7    1  0.4274778E-006  0.1139657E+03  0.7561462E-02  0.1253397E+00
         -1   -1    0    0    0  501 -0.00000000000E+00  0.00000000000E+00  0.11216119262E+03  0.11216119262E+03  0.00000000000E+00 0.  1.
          1   -1    0    0  501    0  0.00000000000E+00 -0.00000000000E+00 -0.13411208345E+03  0.13411208345E+03  0.00000000000E+00 0. -1.
         23    2    1    2    0    0  0.47352062649E+02 -0.82299679018E+01 -0.40587265307E+02  0.11097221816E+03  0.91419674526E+02 0.  0.
          5    1    1    2  502    0 -0.86695525218E+02  0.11390276444E+02  0.32322149397E+02  0.93316912893E+02  0.41800000000E+01 0.  1.
         -5    1    1    2    0  502  0.39343462569E+02 -0.31603085418E+01 -0.13685774918E+02  0.41984145009E+02  0.41800000000E+01 0.  1.
        -11    1    3    3    0    0  0.51907309507E+02  0.31494842687E+02 -0.36346778245E+02  0.70762858796E+02  0.00000000000E+00 0. -1.
         11    1    3    3    0    0 -0.45552468583E+01 -0.39724810589E+02 -0.42404870618E+01  0.40209359368E+02  0.00000000000E+00 0.  1.
</event>
<event>
 7    1  0.4274778E-006  0.1132790E+03  0.7561462E-02  0.1254615E+00
         -1   -1    0    0    0  501 -0.00000000000E+00  0.00000000000E+00  0.61510281922E+03  0.61510281922E+03  0.00000000000E+00 0.  1.
          1   -1    0    0  501    0  0.00000000000E+00 -0.00000000000E+00 -0.35319361293E+02  0.35319361293E+02  0.00000000000E+00 0. -1.
         23    2    1    2    0    0  0.10411938504E+02 -0.94722786411E+02  0.22471667736E+03  0.26209075862E+03  0.95462903482E+02 0.  0.
          5    1    1    2  502    0 -0.28296869050E+02 -0.56910983815E+01  0.14065969331E+02  0.32379396104E+02  0.41800000000E+01 0. -1.
         -5    1    1    2    0  502  0.17884930546E+02  0.10041388479E+03  0.34100081124E+03  0.35595202579E+03  0.41800000000E+01 0. -1.
        -11    1    3    3    0    0  0.31642365415E+01 -0.37561699254E+02  0.89220536044E+01  0.38736245098E+02  0.00000000000E+00 0. -1.
         11    1    3    3    0    0  0.72477019622E+01 -0.57161087157E+02  0.21579462376E+03  0.22335451352E+03  0.00000000000E+00 0.  1.
</event>
<event>
 7    1  0.4274778E-006  0.1626288E+03  0.7561462E-02  0.1185760E+00
          1   -1    0    0  501    0  0.00000000000E+00  0.00000000000E+00  0.41904173052E+03  0.41904173052E+03  0.00000000000E+00 0. -1.
         -1   -1    0    0    0  501 -0.00000000000E+00 -0.00000000000E+00 -0.75098076237E+02  0.75098076237E+02  0.00000000000E+00 0.  1.
         23    2    1    2    0    0 -0.58441117523E+02  0.12888597944E+03  0.13687598858E+03  0.21387003341E+03  0.83536788466E+02 0.  0.
          5    1    1    2  502    0  0.55498310152E+02 -0.14482981920E+03  0.13307647240E+03  0.20440782486E+03  0.41800000000E+01 0.  1.
         -5    1    1    2    0  502  0.29428073710E+01  0.15943839759E+02  0.73991193308E+02  0.75861948490E+02  0.41800000000E+01 0.  1.
        -11    1    3    3    0    0  0.64522638541E+01  0.53506704392E+02  0.13811635923E+02  0.55635963285E+02  0.00000000000E+00 0.  1.
         11    1    3    3    0    0 -0.64893381377E+02  0.75379275046E+02  0.12306435266E+03  0.15823407012E+03  0.00000000000E+00 0. -1.
</event>
<event>
 6    1  0.4274778E-006  0.1379785E+03  0.7561462E-02  0.1216075E+00
          1   -1    0    0  501    0  0.00000000000E+00  0.00000000000E+00  0.23088211795E+03  0.23088211795E+03  0.00000000000E+00 0. -1.
         -1   -1    0    0    0  501 -0.00000000000E+00 -0.00000000000E+00 -0.19156016237E+03  0.19156016237E+03  0.00000000000E+00 0.  1.
          5    1    1    2  502    0 -0.32443248205E+02 -0.34787038899E+02  0.15232918652E+02  0.50122017519E+02  0.41800000000E+01 0. -1.
         -5    1    1    2    0  502  0.81216168494E+02 -0.12617058121E+02 -0.13107250263E+03  0.15476669385E+03  0.41800000000E+01 0.  1.
        -11    1    1    2    0    0  0.35698996110E+02  0.49953977935E+02  0.35076082901E+02  0.70711737544E+02  0.00000000000E+00 0.  1.
         11    1    1    2    0    0 -0.84471916398E+02 -0.25498809148E+01  0.12008545665E+03  0.14684183141E+03  0.00000000000E+00 0. -1.
</event>
<event>
 7    1  0.4274778E-006  0.1337041E+03  0.7561462E-02  0.1222061E+00
          2   -1    0    0  501    0  0.00000000000E+00  0.00000000000E+00  0.39361128069E+03  0.39361128069E+03  0.00000000000E+00 0. -1.
         -2   -1    0    0    0  501 -0.00000000000E+00 -0.00000000000E+00 -0.53655528177E+02  0.53655528177E+02  0.00000000000E+00 0.  1.
         23    2    1    2    0    0 -0.87821132567E+02 -0.18183594132E+02  0.20732806470E+03  0.24409425234E+03  0.92487205568E+02 0.  0.
          5    1    1    2  502    0  0.51029413634E+02 -0.48084289810E+02  0.32162607231E+02  0.77252868466E+02  0.41800000000E+01 0.  1.
         -5    1    1    2    0  502  0.36791718933E+02  0.66267883942E+02  0.10046508059E+03  0.12591968806E+03  0.41800000000E+01 0.  1.
        -11    1    3    3    0    0 -0.45563381146E+02 -0.50531403016E+02  0.73938252143E+02  0.10048039372E+03  0.00000000000E+00 0.  1.
         11    1    3    3    0    0 -0.42257751421E+02  0.32347808884E+02  0.13338981255E+03  0.14361385862E+03  0.00000000000E+00 0. -1.
</event>
<event>
 7    1  0.4274778E-006  0.1758735E+03  0.7561462E-02  0.1171858E+00
         -1   -1    0    0    0  501 -0.00000000000E+00  0.00000000000E+00  0.11165968231E+04  0.11165968231E+04  0.00000000000E+00 0.  1.
          1   -1    0    0  501    0  0.00000000000E+00 -0.00000000000E+00 -0.37964639738E+02  0.37964639738E+02  0.00000000000E+00 0. -1.
         23    2    1    2    0    0  0.24619384172E+02  0.14141942304E+03  0.23609842014E+03  0.29078099105E+03  0.90584510118E+02 0.  0.
          5    1    1    2  502    0  0.39563500082E+01  0.22032232762E+02  0.14452867026E+03  0.14631158844E+03  0.41800000000E+01 0. -1.
         -5    1    1    2    0  502 -0.28575734180E+02 -0.16345165580E+03  0.69800509293E+03  0.71746888332E+03  0.41800000000E+01 0. -1.
        -11    1    3    3    0    0  0.41161375532E+02  0.31491291855E+02  0.40398562310E+02  0.65711522088E+02  0.00000000000E+00 0. -1.
         11    1    3    3    0    0 -0.16541991361E+02  0.10992813118E+03  0.19569985783E+03  0.22506946896E+03  0.00000000000E+00 0.  1.
</event>
<event>
 7    1  0.4274778E-006  0.7707650E+02  0.7561462E-02  0.1337559E+00
          2   -1    0    0  501    0  0.00000000000E+00  0.00000000000E+00  0.25726493018E+03  0.25726493018E+03  0.00000000000E+00 0. -1.
         -2   -1    0    0    0  501 -0.00000000000E+00 -0.00000000000E+00 -0.69961536905E+02  0.69961536905E+02  0.00000000000E+00 0.  1.
         23    2    1    2    0    0  0.21255512863E+02  0.50296882317E+02  0.15354033561E+03  0.18662629273E+03  0.90956941893E+02 0.  0.
          5    1    1    2  502    0  0.19228452876E+01 -0.46960018562E+02 -0.40772825014E+02  0.62360535092E+02  0.41800000000E+01 0.  1.
         -5    1    1    2    0  502 -0.23178358150E+02 -0.33368637546E+01  0.74535882676E+02  0.78239639267E+02  0.41800000000E+01 0.  1.
        -11    1    3    3    0    0  0.70226269111E+01 -0.14887387068E+02  0.99258695254E+02  0.10061431392E+03  0.00000000000E+00 0. -1.
         11    1    3    3    0    0  0.14232885952E+02  0.65184269385E+02  0.54281640361E+02  0.86011978806E+02  0.00000000000E+00 0.  1.
</event>
<event>
 7    1  0.4274778E-006  0.1141797E+03  0.7561462E-02  0.1253020E+00
         -1   -1    0    0    0  501 -0.00000000000E+00  0.00000000000E+00  0.75293514539E+02  0.75293514539E+02  0.00000000000E+00 0.  1.
          1   -1    0    0  501    0  0.00000000000E+00 -0.00000000000E+00 -0.22724645129E+03  0.22724645129E+03  0.00000000000E+00 0. -1.
         23    2    1    2    0    0 -0.46112586254E+02  0.33106458417E+01 -0.13272084854E+03  0.16783395261E+03  0.91739201125E+02 0.  0.
          5    1    1    2  502    0  0.88726986962E+02  0.70546455074E+01 -0.16017058996E+02  0.90533224936E+02  0.41800000000E+01 0. -1.
         -5    1    1    2    0  502 -0.42614400707E+02 -0.10365291349E+02 -0.32150292166E+01  0.44172788289E+02  0.41800000000E+01 0. -1.
        -11    1    3    3    0    0 -0.69156184485E+02  0.12705348447E+02 -0.12184150319E+03  0.14067464460E+03  0.00000000000E+00 0. -1.
         11    1    3    3    0    0  0.23043598231E+02 -0.93947026052E+01 -0.10879345348E+02  0.27159308011E+02  0.00000000000E+00 0.  1.
</event>
<event>
 7    1  0.4274778E-006  0.9547256E+02  0.7561462E-02  0.1290115E+00
          1   -1    0    0  501    0  0.00000000000E+00  0.00000000000E+00  0.39151523060E+02  0.39151523060E+02  0.00000000000E+00 0. -1.
         -1   -1    0    0    0  501 -0.00000000000E+00 -0.00000000000E+00 -0.39859857697E+03  0.39859857697E+03  0.00000000000E+00 0.  1.
         23    2    1    2    0    0 -0.77342506553E+01  0.40310899771E+02 -0.78502828968E+02  0.12748875704E+03  0.91683704892E+02 0.  0.
          5    1    1    2  502    0  0.20071596984E+02  0.37311820811E+02 -0.46921222782E+02  0.63357040059E+02  0.41800000000E+01 0.  1.
         -5    1    1    2    0  502 -0.12337346329E+02 -0.77622720581E+02 -0.23402300216E+03  0.24690430293E+03  0.41800000000E+01 0.  1.
        -11    1    3    3    0    0 -0.32265302319E+02  0.23797143076E+02 -0.87774951417E+02  0.96497646855E+02  0.00000000000E+00 0.  1.
         11    1    3    3    0    0  0.24531051664E+02  0.16513756695E+02  0.92721224494E+01  0.30991110187E+02  0.00000000000E+00 0. -1.
</event>
<event>
 7    1  0.4274778E-006  0.1195725E+03  0.7561462E-02  0.1243804E+00
         -1   -1    0    0    0  501 -0.00000000000E+00  0.00000000000E+00  0.73038352654E+03  0.73038352654E+03  0.00000000000E+00 0.  1.
          1   -1    0    0  501    0  0.00000000000E+00 -0.00000000000E+00 -0.28039929896E+02  0.28039929896E+02  0.00000000000E+00 0. -1.
         23    2    1    2    0    0 -0.52523568327E+02  0.35552724469E+02  0.14413923814E+03  0.18286910038E+03  0.92963791103E+02 0.  0.
          5    1    1    2  502    0  0.82309694062E+02  0.12339431374E+02  0.35259615478E+03  0.36231018212E+03  0.41800000000E+01 0. -1.
         -5    1    1    2    0  502 -0.29786125735E+02 -0.47892155844E+02  0.20560820372E+03  0.21324417393E+03  0.41800000000E+01 0. -1.
        -11    1    3    3    0    0 -0.62318861019E+02 -0.62595367614E-01  0.12838745154E+03  0.14271293589E+03  0.00000000000E+00 0.  1.
         11    1    3    3    0    0  0.97952926918E+01  0.35615319837E+02  0.15751786604E+02  0.40156164498E+02  0.00000000000E+00 0. -1.
</event>
<event>
 7    1  0.4274778E-006  0.8438647E+02  0.7561462E-02  0.1317045E+00
          1   -1    0    0  501    0  0.00000000000E+00  0.00000000000E+00  0.76199959598E+02  0.76199959598E+02  0.00000000000E+00 0. -1.
         -1   -1    0    0    0  501 -0.00000000000E+00 -0.00000000000E+00 -0.45565139740E+03  0.45565139740E+03  0.00000000000E+00 0.  1.
         23    2    1    2    0    0  0.32574811058E+02  0.15228222783E+02  0.32270677081E+02  0.10175513324E+03  0.89552741207E+02 0.  0.
          5    1    1    2  502    0 -0.37748820106E+02  0.18330532660E+02 -0.44590356681E+02  0.61373888226E+02  0.41800000000E+01 0. -1.
         -5    1    1    2    0  502  0.51740090484E+01 -0.33558755443E+02 -0.36713175820E+03  0.36872233553E+03  0.41800000000E+01 0.  1.
        -11    1    3    3    0    0  0.42494400164E+02  0.44471306872E+02  0.71036245595E+01  0.61918758564E+02  0.00000000000E+00 0.  1.
         11    1    3    3    0    0 -0.99195891059E+01 -0.29243084089E+02  0.25167052522E+02  0.39836374681E+02  0.00000000000E+00 0. -1.
</event>
<event>
 7    1  0.4274778E-006  0.8326459E+02  0.7561462E-02  0.1320034E+00
         -1   -1    0    0    0  501 -0.00000000000E+00  0.00000000000E+00  0.67748490420E+02  0.67748490420E+02  0.00000000000E+00 0.  1.
          1   -1    0    0  501    0  0.00000000000E+00 -0.00000000000E+00 -0.30167411636E+03  0.30167411636E+03  0.00000000000E+00 0. -1.
         23    2    1    2    0    0  0.24336676443E+02  0.72459085494E+02 -0.17959259250E+03  0.21308551725E+03  0.85494710311E+02 0.  0.
          5    1    1    2  502    0  0.43866519263E+01 -0.56743380654E+02 -0.90741402929E+02  0.10719388308E+03  0.41800000000E+01 0.  1.
         -5    1    1    2    0  502 -0.28723328369E+02 -0.15715704840E+02  0.36408369491E+02  0.49143206450E+02  0.41800000000E+01 0.  1.
        -11    1    3    3    0    0  0.11241268723E+02  0.30820850930E+02 -0.50810378654E+01  0.33198010789E+02  0.00000000000E+00 0.  1.
         11    1    3    3    0    0  0.13095407720E+02  0.41638234564E+02 -0.17451155463E+03  0.17988750646E+03  0.00000000000E+00 0. -1.
</event>
<event>
 7    1  0.4274778E-006  0.9275639E+02  0.7561462E-02  0.1296311E+00
         -1   -1    0    0    0  501 -0.00000000000E+00  0.00000000000E+00  0.43438666267E+02  0.43438666267E+02  0.00000000000E+00 0.  1.
          1   -1    0    0  501    0  0.00000000000E+00 -0.00000000000E+00 -0.32391101358E+03  0.32391101358E+03  0.00000000000E+00 0. -1.
         23    2    1    2    0    0  0.42567159720E+02 -0.28237242140E+02 -0.11703601660E+03  0.15528188177E+03  0.88350035054E+02 0.  0.
          5    1    1    2  502    0 -0.11932604642E+02  0.49592157500E+02 -0.75692444410E+01  0.51735239445E+02  0.41800000000E+01 0. -1.
         -5    1    1    2    0  502 -0.30634555078E+02 -0.21354915360E+02 -0.15586708627E+03  0.16033255863E+03  0.41800000000E+01 0. -1.
        -11    1    3    3    0    0  0.13138606444E+02 -0.55262503825E+02 -0.92025185439E+02  0.10814435752E+03  0.00000000000E+00 0. -1.
         11    1    3    3    0    0  0.29428553276E+02  0.27025261685E+02 -0.25010831161E+02  0.47137524250E+02  0.00000000000E+00 0.  1.
</event>
<event>
 7    1  0.4274778E-006  0.1203044E+03  0.7561462E-02  0.1242596E+00
         -1   -1    0    0    0  501 -0.00000000000E+00  0.00000000000E+00  0.94631312773E+03  0.94631312773E+03  0.00000000000E+00 0.  1.
          1   -1    0    0  501    0  0.00000000000E+00 -0.00000000000E+00 -0.12679400824E+03  0.12679400824E+03  0.00000000000E+00 0. -1.
         23    2    1    2    0    0  0.55239224179E+01  0.61172761659E+02 -0.93818278991E+02  0.14902166528E+03  0.98147678336E+02 0.  0.
          5    1    1    2  502    0  0.56156831634E+02 -0.50381822228E+02  0.41628863245E+03  0.42309055255E+03  0.41800000000E+01 0. -1.
         -5    1    1    2    0  502 -0.61680754052E+02 -0.10790939432E+02  0.49704876603E+03  0.50099491815E+03  0.41800000000E+01 0.  1.
        -11    1    3    3    0    0 -0.34151176129E+02  0.65394401654E+01 -0.17064209998E+01  0.34813488496E+02  0.00000000000E+00 0.  1.
         11    1    3    3    0    0  0.39675098547E+02  0.54633321494E+02 -0.92111857991E+02  0.11420817679E+03  0.00000000000E+00 0. -1.
</event>
<event>
 7    1  0.4274778E-006  0.1016783E+03  0.7561462E-02  0.1276806E+00
         -3   -1    0    0    0  501 -0.00000000000E+00  0.00000000000E+00  0.15232208833E+03  0.15232208833E+03  0.00000000000E+00 0.  1.
          3   -1    0    0  501    0  0.00000000000E+00 -0.00000000000E+00 -0.11759894384E+03  0.11759894384E+03  0.00000000000E+00 0. -1.
         23    2    1    2    0    0  0.61805491430E+02  0.37336775519E+02 -0.16748520017E+02  0.11658632503E+03  0.89988358602E+02 0.  0.
          5    1    1    2  502    0 -0.69200594986E+02 -0.38811310507E+02  0.86388593303E+02  0.11736908291E+03  0.41800000000E+01 0. -1.
         -5    1    1    2    0  502  0.73951035558E+01  0.14745349880E+01 -0.34916928801E+02  0.35965624239E+02  0.41800000000E+01 0. -1.
        -11    1    3    3    0    0  0.64449006755E+02 -0.12269793336E+02 -0.11853384917E+02  0.66668771057E+02  0.00000000000E+00 0.  1.
         11    1    3    3    0    0 -0.26435153249E+01  0.49606568855E+02 -0.48951350993E+01  0.49917553972E+02  0.00000000000E+00 0. -1.
</event>
<event>
 7    1  0.4274778E-006  0.1098749E+03  0.7561462E-02  0.1260802E+00
         -1   -1    0    0    0  501 -0.00000000000E+00  0.00000000000E+00  0.52786819028E+02  0.52786819028E+02  0.00000000000E+00 0.  1.
          1   -1    0    0  501    0  0.00000000000E+00 -0.00000000000E+00 -0.27001847481E+03  0.27001847481E+03  0.00000000000E+00 0. -1.
         23    2    1    2    0    0  0.14540799987E+02 -0.45818315072E+02 -0.11919468796E+03  0.15676173119E+03  0.89755857023E+02 0.  0.
          5    1    1    2  502    0 -0.50181074216E+02 -0.15307250013E+02 -0.74782625587E+02  0.91445970945E+02  0.41800000000E+01 0. -1.
         -5    1    1    2    0  502  0.35640274229E+02  0.61125565085E+02 -0.23254342236E+02  0.74597591696E+02  0.41800000000E+01 0. -1.
        -11    1    3    3    0    0 -0.31918162294E+02 -0.13777720252E+01 -0.17440083819E+02  0.36398129946E+02  0.00000000000E+00 0.  1.
         11    1    3    3    0    0  0.46458962280E+02 -0.44440543047E+02 -0.10175460414E+03  0.12036360125E+03  0.00000000000E+00 0. -1.
</event>
<event>
 7    1  0.4274778E-006  0.1174611E+03  0.7561462E-02  0.1247345E+00
          3   -1    0    0  501    0  0.00000000000E+00  0.00000000000E+00  0.25780341052E+03  0.25780341052E+03  0.00000000000E+00 0. -1.
         -3   -1    0    0    0  501 -0.00000000000E+00 -0.00000000000E+00 -0.59084040630E+02  0.59084040630E+02  0.00000000000E+00 0.  1.
         23    2    1    2    0    0 -0.35394729386E+02 -0.61925374297E+02  0.11003466052E+03  0.15779354466E+03  0.87770367269E+02 0.  0.
          5    1    1    2  502    0 -0.13422831803E+02  0.76671126366E+02  0.69547723519E+02  0.10446526829E+03  0.41800000000E+01 0. -1.
         -5    1    1    2    0  502  0.48817561189E+02 -0.14745752069E+02  0.19136985856E+02  0.54628638205E+02  0.41800000000E+01 0.  1.
        -11    1    3    3    0    0  0.25172761920E+02 -0.16536026464E+02  0.87700568586E+01  0.31369125127E+02  0.00000000000E+00 0.  1.
         11    1    3    3    0    0 -0.60567491306E+02 -0.45389347833E+02  0.10126460366E+03  0.12642441953E+03  0.00000000000E+00 0. -1.
</event>
<event>
 7    1  0.5510526E-006  0.6939322E+03  0.7561462E-02  0.9727666E-01
          1   -1    0    0  501    0  0.00000000000E+00  0.00000000000E+00  0.14197086336E+04  0.14197086336E+04  0.00000000000E+00 0. -1.
         -1   -1    0    0    0  501 -0.00000000000E+00 -0.00000000000E+00 -0.47618799700E+03  0.47618799700E+03  0.00000000000E+00 0.  1.
         23    2    1    2    0    0 -0.44723667948E+02 -0.15583401189E+03  0.52412636590E+03  0.55662043066E+03  0.93986225939E+02 0.  0.
          5    1    1    2  502    0  0.35361873863E+03 -0.43069889405E+03  0.38134846627E+03  0.67527170441E+03  0.41800000000E+01 0. -1.
         -5    1    1    2    0  502 -0.30889507068E+03  0.58653290594E+03  0.38045804422E+02  0.66400449552E+03  0.41800000000E+01 0.  1.
        -11    1    3    3    0    0 -0.27032401115E+02 -0.14368524403E+03  0.51090592230E+03  0.53141420898E+03  0.00000000000E+00 0. -1.
         11    1    3    3    0    0 -0.17691266834E+02 -0.12148767864E+02  0.13220443597E+02  0.25206221686E+02  0.00000000000E+00 0.  1.
</event>
<event>
 7    1  0.4274778E-006  0.1000086E+03  0.7561462E-02  0.1280278E+00
          1   -1    0    0  501    0  0.00000000000E+00  0.00000000000E+00  0.83616638783E+02  0.83616638783E+02  0.00000000000E+00 0. -1.
         -1   -1    0    0    0  501 -0.00000000000E+00 -0.00000000000E+00 -0.15537994412E+03  0.15537994412E+03  0.00000000000E+00 0.  1.
         23    2    1    2    0    0 -0.19821037144E+02 -0.26641275811E+02 -0.31090591870E+02  0.10333865870E+03  0.92788050894E+02 0.  0.
          5    1    1    2  502    0 -0.48585636178E+02  0.28522502864E+02 -0.11164290437E+01  0.56505008860E+02  0.41800000000E+01 0.  1.
         -5    1    1    2    0  502  0.68406673321E+02 -0.18812270537E+01 -0.39556284423E+02  0.79152915344E+02  0.41800000000E+01 0.  1.
        -11    1    3    3    0    0 -0.11320736371E+02 -0.49393878130E+02 -0.51028099268E+02  0.71915097049E+02  0.00000000000E+00 0.  1.
         11    1    3    3    0    0 -0.85003007724E+01  0.22752602319E+02  0.19937507398E+02  0.31423561650E+02  0.00000000000E+00 0. -1.
</event>
<event>
 7    1  0.4274778E-006  0.1742957E+03  0.7561462E-02  0.1173441E+00
         -2   -1    0    0    0  501 -0.00000000000E+00  0.00000000000E+00  0.96456514636E+03  0.96456514636E+03  0.00000000000E+00 0.  1.
          2   -1    0    0  501    0  0.00000000000E+00 -0.00000000000E+00 -0.46749749589E+02  0.46749749589E+02  0.00000000000E+00 0. -1.
         23    2    1    2    0    0 -0.81490615610E+02  0.11278865314E+03  0.16062600541E+03  0.23134948697E+03  0.91432329058E+02 0.  0.
          5    1    1    2  502    0  0.42215483411E+02 -0.13513529154E+03  0.58377437564E+03  0.60071098551E+03  0.41800000000E+01 0.  1.
         -5    1    1    2    0  502  0.39275132198E+02  0.22346638398E+02  0.17341501572E+03  0.17925442347E+03  0.41800000000E+01 0.  1.
        -11    1    3    3    0    0 -0.22801430707E+02  0.98588373055E+02  0.72339285010E+02  0.12438868397E+03  0.00000000000E+00 0.  1.
         11    1    3    3    0    0 -0.58689184902E+02  0.14200280083E+02  0.88286720400E+02  0.10696080300E+03  0.00000000000E+00 0. -1.
</event>
<event>
 7    1  0.4274778E-006  0.1798902E+03  0.7561462E-02  0.1167909E+00
         -2   -1    0    0    0  501 -0.00000000000E+00  0.00000000000E+00  0.81963017573E+02  0.81963017573E+02  0.00000000000E+00 0.  1.
          2   -1    0    0  501    0  0.00000000000E+00 -0.00000000000E+00 -0.58463739970E+03  0.58463739970E+03  0.00000000000E+00 0. -1.
         23    2    1    2    0    0  0.14634818787E+03 -0.33113093004E+01 -0.24411482600E+03  0.29928833915E+03  0.92480834854E+02 0.  0.
          5    1    1    2  502    0 -0.15451079016E+03  0.32432382325E+02 -0.28570988216E+03  0.32645528463E+03  0.41800000000E+01 0. -1.
         -5    1    1    2    0  502  0.81626022820E+01 -0.29121073025E+02  0.27150326039E+02  0.40856793488E+02  0.41800000000E+01 0.  1.
        -11    1    3    3    0    0  0.76222628885E+02 -0.46184650777E+02 -0.10517748873E+03  0.13785940395E+03  0.00000000000E+00 0.  1.
         11    1    3    3    0    0  0.70125558988E+02  0.42873341477E+02 -0.13893733727E+03  0.16142893520E+03  0.00000000000E+00 0. -1.
</event>
<event>
 7    1  0.4274778E-006  0.9784748E+02  0.7561462E-02  0.1284889E+00
          1   -1    0    0  501    0  0.00000000000E+00  0.00000000000E+00  0.36369669552E+03  0.36369669552E+03  0.00000000000E+00 0. -1.
         -1   -1    0    0    0  501 -0.00000000000E+00 -0.00000000000E+00 -0.45260588115E+02  0.45260588115E+02  0.00000000000E+00 0.  1.
         23    2    1    2    0    0  0.46539891174E+02  0.41660391444E+00  0.22515504814E+03  0.24612209367E+03  0.87835950827E+02 0.  0.
          5    1    1    2  502    0 -0.33809697606E+02  0.49095066116E+02  0.94175920437E+02  0.11153473701E+03  0.41800000000E+01 0.  1.
         -5    1    1    2    0  502 -0.12730193568E+02 -0.49511670031E+02 -0.89486117359E+00  0.51300452961E+02  0.41800000000E+01 0.  1.
        -11    1    3    3    0    0  0.10673568497E+02  0.33923315477E+02  0.16346313397E+03  0.16728691690E+03  0.00000000000E+00 0.  1.
         11    1    3    3    0    0  0.35866322677E+02 -0.33506711563E+02  0.61691914169E+02  0.78835176767E+02  0.00000000000E+00 0. -1.
</event>
<event>
 7    1  0.4274778E-006  0.1194942E+03  0.7561462E-02  0.1243934E+00
         -1   -1    0    0    0  501 -0.00000000000E+00  0.00000000000E+00  0.46598921504E+03  0.46598921504E+03  0.00000000000E+00 0.  1.
          1   -1    0    0  501    0  0.00000000000E+00 -0.00000000000E+00 -0.38315451839E+02  0.38315451839E+02  0.00000000000E+00 0. -1.
         23    2    1    2    0    0  0.67900653617E+02 -0.25376542447E+02  0.14128329858E+03  0.18349029470E+03  0.91941558194E+02 0.  0.
          5    1    1    2  502    0 -0.67758446860E+02 -0.37702046509E+02  0.12122397570E+03  0.14396310679E+03  0.41800000000E+01 0. -1.
         -5    1    1    2    0  502 -0.14220675738E+00  0.63078588956E+02  0.16516648892E+03  0.17685126539E+03  0.41800000000E+01 0. -1.
        -11    1    3    3    0    0 -0.72978629207E+01  0.12074863182E+02 -0.48595428890E+01  0.14922341679E+02  0.00000000000E+00 0. -1.
         11    1    3    3    0    0  0.75198516538E+02 -0.37451405629E+02  0.14614284147E+03  0.16856795302E+03  0.00000000000E+00 0.  1.
</event>
<event>
 7    1  0.4274778E-006  0.1949044E+03  0.7561462E-02  0.1154111E+00
          2   -1    0    0  501    0  0.00000000000E+00  0.00000000000E+00  0.61896682909E+03  0.61896682909E+03  0.00000000000E+00 0. -1.
         -2   -1    0    0    0  501 -0.00000000000E+00 -0.00000000000E+00 -0.73061046872E+02  0.73061046872E+02  0.00000000000E+00 0.  1.
         23    2    1    2    0    0 -0.17184409838E+03 -0.93776498648E+01  0.16065708002E+03  0.25193042714E+03  0.89665535702E+02 0.  0.
          5    1    1    2  502    0  0.19903314587E+02  0.50580604837E+02  0.11606062434E+03  0.12822667601E+03  0.41800000000E+01 0. -1.
         -5    1    1    2    0  502  0.15194078379E+03 -0.41202954972E+02  0.26918807785E+03  0.31187077281E+03  0.41800000000E+01 0. -1.
        -11    1    3    3    0    0 -0.51132113851E+02  0.17678100366E+02  0.68289626451E+01  0.54531119833E+02  0.00000000000E+00 0.  1.
         11    1    3    3    0    0 -0.12071198453E+03 -0.27055750231E+02  0.15382811738E+03  0.19739930731E+03  0.00000000000E+00 0. -1.
</event>
<event>
 7    1  0.4274778E-006  0.1401323E+03  0.7561462E-02  0.1213151E+00
         -1   -1    0    0    0  501 -0.00000000000E+00  0.00000000000E+00  0.44149588762E+02  0.44149588762E+02  0.00000000000E+00 0.  1.
          1   -1    0    0  501    0  0.00000000000E+00 -0.00000000000E+00 -0.48485710609E+03  0.48485710609E+03  0.00000000000E+00 0. -1.
         23    2    1    2    0    0  0.63023233311E+02 -0.64387021019E+02 -0.27046887106E+03  0.29933891127E+03  0.91283937110E+02 0.  0.
          5    1    1    2  502    0 -0.98775135095E+02  0.30543951707E+02 -0.10088666173E+03  0.14451661224E+03  0.41800000000E+01 0.  1.
         -5    1    1    2    0  502  0.35751901784E+02  0.33843069311E+02 -0.69351984534E+02  0.85151171339E+02  0.41800000000E+01 0.  1.
        -11    1    3    3    0    0 -0.20914588788E+02  0.10674723097E+01 -0.58712397213E+02  0.62335424181E+02  0.00000000000E+00 0. -1.
         11    1    3    3    0    0  0.83937822099E+02 -0.65454493329E+02 -0.21175647385E+03  0.23700348709E+03  0.00000000000E+00 0.  1.
</event>
<event>
 6    1  0.4274778E-006  0.1621817E+03  0.7561462E-02  0.1186255E+00
          1   -1    0    0  501    0  0.00000000000E+00  0.00000000000E+00  0.12564488118E+04  0.12564488118E+04  0.00000000000E+00 0. -1.
         -1   -1    0    0    0  501 -0.00000000000E+00 -0.00000000000E+00 -0.25451996754E+02  0.25451996754E+02  0.00000000000E+00 0.  1.
          5    1    1    2  502    0 -0.12845832003E+02 -0.10038156655E+03  0.20258736656E+03  0.22649633064E+03  0.41800000000E+01 0.  1.
         -5    1    1    2    0  502 -0.41594163766E+02  0.54831973251E+01  0.29770775037E+03  0.30067842780E+03  0.41800000000E+01 0.  1.
        -11    1    1    2    0    0  0.35844334181E+02  0.13341407200E+03  0.63575433468E+03  0.65059027426E+03  0.00000000000E+00 0. -1.
         11    1    1    2    0    0  0.18595661588E+02 -0.38515702774E+02  0.94947363473E+02  0.10413577589E+03  0.00000000000E+00 0.  1.
</event>
<event>
 7    1  0.4274778E-006  0.1273130E+03  0.7561462E-02  0.1231498E+00
          3   -1    0    0  501    0  0.00000000000E+00  0.00000000000E+00  0.24980550714E+03  0.24980550714E+03  0.00000000000E+00 0. -1.
         -3   -1    0    0    0  501 -0.00000000000E+00 -0.00000000000E+00 -0.69692399676E+02  0.69692399676E+02  0.00000000000E+00 0.  1.
         23    2    1    2    0    0  0.74126054238E+02 -0.47740717714E+01  0.71431836913E+02  0.13790212375E+03  0.91635281041E+02 0.  0.
          5    1    1    2  502    0 -0.17196953586E+02 -0.57526393487E+02  0.54680983477E+02  0.81317301445E+02  0.41800000000E+01 0.  1.
         -5    1    1    2    0  502 -0.56929100652E+02  0.62300465258E+02  0.54000287077E+02  0.10027848162E+03  0.41800000000E+01 0.  1.
        -11    1    3    3    0    0  0.59835454510E+02  0.33858515237E+02  0.67788519445E+02  0.96550318689E+02  0.00000000000E+00 0. -1.
         11    1    3    3    0    0  0.14290599728E+02 -0.38632587008E+02  0.36433174681E+01  0.41351805060E+02  0.00000000000E+00 0.  1.
</event>
<event>
 7    1  0.4274778E-006  0.1433000E+03  0.7561462E-02  0.1208956E+00
         -2   -1    0    0    0  501 -0.00000000000E+00  0.00000000000E+00  0.63313365889E+02  0.63313365889E+02  0.00000000000E+00 0.  1.
          2   -1    0    0  501    0  0.00000000000E+00 -0.00000000000E+00 -0.39816081673E+03  0.39816081673E+03  0.00000000000E+00 0. -1.
         23    2    1    2    0    0  0.66836106250E+01  0.10935486548E+03 -0.20719783526E+03  0.25184208286E+03  0.92143011180E+02 0.  0.
          5    1    1    2  502    0  0.30123645323E+02 -0.10128332655E+00 -0.78593014409E+02  0.84272051000E+02  0.41800000000E+01 0. -1.
         -5    1    1    2    0  502 -0.36807255948E+02 -0.10925358216E+03 -0.49056601171E+02  0.12536004875E+03  0.41800000000E+01 0. -1.
        -11    1    3    3    0    0 -0.40655001260E+02  0.59623815513E+02 -0.12871772755E+03  0.14756721143E+03  0.00000000000E+00 0.  1.
         11    1    3    3    0    0  0.47338611885E+02  0.49731049971E+02 -0.78480107707E+02  0.10427487143E+03  0.00000000000E+00 0. -1.
</event>
<event>
 7    1  0.4274778E-006  0.2630947E+03  0.7561462E-02  0.1105298E+00
          2   -1    0    0  501    0  0.00000000000E+00  0.00000000000E+00  0.28744195757E+03  0.28744195757E+03  0.00000000000E+00 0. -1.
         -2   -1    0    0    0  501 -0.00000000000E+00 -0.00000000000E+00 -0.32685899110E+03  0.32685899110E+03  0.00000000000E+00 0.  1.
         23    2    1    2    0    0 -0.58096341049E+02 -0.25474520102E+03  0.97605180520E+02  0.29383870873E+03  0.92434372377E+02 0.  0.
          5    1    1    2  502    0  0.14359638529E+02  0.11038996468E+03 -0.12744021049E+03  0.16926494962E+03  0.41800000000E+01 0.  1.
         -5    1    1    2    0  502  0.43736702520E+02  0.14435523634E+03 -0.95820035611E+01  0.15119729032E+03  0.41800000000E+01 0.  1.
        -11    1    3    3    0    0  0.49186303697E+01 -0.33288239296E+02  0.47484864742E+02  0.58198901878E+02  0.00000000000E+00 0.  1.
         11    1    3    3    0    0 -0.63014971419E+02 -0.22145696173E+03  0.50120315777E+02  0.23563980685E+03  0.00000000000E+00 0. -1.
</event>
<event>
 7    1  0.4274778E-006  0.2123085E+03  0.7561462E-02  0.1139751E+00
         -2   -1    0    0    0  501 -0.00000000000E+00  0.00000000000E+00  0.25875506910E+03  0.25875506910E+03  0.00000000000E+00 0.  1.
          2   -1    0    0  501    0  0.00000000000E+00 -0.00000000000E+00 -0.19668656483E+03  0.19668656483E+03  0.00000000000E+00 0. -1.
         23    2    1    2    0    0 -0.19375720649E+03 -0.53449524469E+02  0.32050836301E+02  0.21673960052E+03  0.74498936881E+02 0.  0.
          5    1    1    2  502    0  0.13204557470E+03  0.74215549238E+02  0.64753159671E+02  0.16478599951E+03  0.41800000000E+01 0. -1.
         -5    1    1    2    0  502  0.61711631782E+02 -0.20766024769E+02 -0.34735491705E+02  0.73916033889E+02  0.41800000000E+01 0. -1.
        -11    1    3    3    0    0 -0.13547668716E+03 -0.61904841671E+02 -0.15090247304E+01  0.14895777704E+03  0.00000000000E+00 0.  1.
         11    1    3    3    0    0 -0.58280519327E+02  0.84553172014E+01  0.33559861031E+02  0.67781823481E+02  0.00000000000E+00 0. -1.
</event>
<event>
 7    1  0.4274778E-006  0.1532756E+03  0.7561462E-02  0.1196505E+00
          2   -1    0    0  501    0  0.00000000000E+00  0.00000000000E+00  0.50454603378E+03  0.50454603378E+03  0.00000000000E+00 0. -1.
         -2   -1    0    0    0  501 -0.00000000000E+00 -0.00000000000E+00 -0.48804420837E+02  0.48804420837E+02  0.00000000000E+00 0.  1.
         23    2    1    2    0    0  0.10958246647E+03  0.22961924337E+02  0.23793784561E+03  0.27835445788E+03  0.91275511100E+02 0.  0.
          5    1    1    2  502    0 -0.53715977233E+01  0.39798289744E+02  0.89251793636E+02  0.97959751918E+02  0.41800000000E+01 0. -1.
         -5    1    1    2    0  502 -0.10421086874E+03 -0.62760214081E+02  0.12855197370E+03  0.17703624482E+03  0.41800000000E+01 0. -1.
        -11    1    3    3    0    0  0.22270565497E+02  0.48596002064E+02  0.87804979759E+02  0.10279719828E+03  0.00000000000E+00 0.  1.
         11    1    3    3    0    0  0.87311900970E+02 -0.25634077727E+02  0.15013286585E+03  0.17555725960E+03  0.00000000000E+00 0. -1.
</event>
<event>
 7    1  0.4274778E-006  0.9859351E+02  0.7561462E-02  0.1283282E+00
          1   -1    0    0  501    0  0.00000000000E+00  0.00000000000E+00  0.40711664814E+03  0.40711664814E+03  0.00000000000E+00 0. -1.
         -1   -1    0    0    0  501 -0.00000000000E+00 -0.00000000000E+00 -0.64763311200E+02  0.64763311200E+02  0.00000000000E+00 0.  1.
         23    2    1    2    0    0  0.35279222258E+02 -0.69448468315E+02  0.29115449511E+03  0.31587908628E+03  0.94556564277E+02 0.  0.
          5    1    1    2  502    0  0.83555984413E+00  0.23546011817E+02 -0.40593879109E+02  0.47121632546E+02  0.41800000000E+01 0. -1.
         -5    1    1    2    0  502 -0.36114782102E+02  0.45902456498E+02  0.91792720939E+02  0.10887924052E+03  0.41800000000E+01 0. -1.
        -11    1    3    3    0    0  0.51154380939E+02 -0.86687662643E+01  0.78152136779E+02  0.93806581224E+02  0.00000000000E+00 0.  1.
         11    1    3    3    0    0 -0.15875158681E+02 -0.60779702050E+02  0.21300235833E+03  0.22207250505E+03  0.00000000000E+00 0. -1.
</event>
<event>
 7    1  0.4274778E-006  0.1178052E+03  0.7561462E-02  0.1246762E+00
          1   -1    0    0  501    0  0.00000000000E+00  0.00000000000E+00  0.63703471451E+02  0.63703471451E+02  0.00000000000E+00 0. -1.
         -1   -1    0    0    0  501 -0.00000000000E+00 -0.00000000000E+00 -0.28226174894E+03  0.28226174894E+03  0.00000000000E+00 0.  1.
         23    2    1    2    0    0  0.61595976651E+02  0.41561690501E+02 -0.59686755805E+02  0.13053980827E+03  0.89200304186E+02 0.  0.
          5    1    1    2  502    0 -0.19194485234E+02  0.42983577182E+02 -0.76563368972E+02  0.89974652204E+02  0.41800000000E+01 0.  1.
         -5    1    1    2    0  502 -0.42401491417E+02 -0.84545267683E+02 -0.82308152715E+02  0.12545075992E+03  0.41800000000E+01 0.  1.
        -11    1    3    3    0    0  0.51636350678E+02  0.72400687647E+00  0.65869106356E+01  0.52059814531E+02  0.00000000000E+00 0. -1.
         11    1    3    3    0    0  0.99596259730E+01  0.40837683624E+02 -0.66273666440E+02  0.78479993736E+02  0.00000000000E+00 0.  1.
</event>
<event>
 7    1  0.4274778E-006  0.9638357E+02  0.7561462E-02  0.1288090E+00
         -1   -1    0    0    0  501 -0.00000000000E+00  0.00000000000E+00  0.82013958884E+02  0.82013958884E+02  0.00000000000E+00 0.  1.
          1   -1    0    0  501    0  0.00000000000E+00 -0.00000000000E+00 -0.21025961024E+03  0.21025961024E+03  0.00000000000E+00 0. -1.
         23    2    1    2    0    0  0.72804369940E+02  0.65645384836E+01 -0.77798189334E+02  0.13886589435E+03  0.88812211441E+02 0.  0.
          5    1    1    2  502    0 -0.26278158594E+02 -0.20177832261E+02  0.39145921006E+02  0.51454465941E+02  0.41800000000E+01 0. -1.
         -5    1    1    2    0  502 -0.46526211346E+02  0.13613293777E+02 -0.89593383023E+02  0.10195320883E+03  0.41800000000E+01 0. -1.
        -11    1    3    3    0    0  0.36620670762E+02 -0.38358998963E+02 -0.18571276782E+02  0.56190556589E+02  0.00000000000E+00 0.  1.
         11    1    3    3    0    0  0.36183699178E+02  0.44923537446E+02 -0.59226912552E+02  0.82675337758E+02  0.00000000000E+00 0. -1.
</event>
<event>
 7    1  0.4274778E-006  0.1291014E+03  0.7561462E-02  0.1228795E+00
          2   -1    0    0  501    0  0.00000000000E+00  0.00000000000E+00  0.24587394506E+03  0.24587394506E+03  0.00000000000E+00 0. -1.
         -2   -1    0    0    0  501 -0.00000000000E+00 -0.00000000000E+00 -0.84633661249E+02  0.84633661249E+02  0.00000000000E+00 0.  1.
         23    2    1    2    0    0 -0.94681802083E+02 -0.42199510496E+01  0.68187566987E+02  0.14805550591E+03  0.91040852945E+02 0.  0.
          5    1    1    2  502    0 -0.22677139959E+02 -0.51972444638E+01 -0.10251025187E+02  0.25764703455E+02  0.41800000000E+01 0.  1.
         -5    1    1    2    0  502  0.11735894204E+03  0.94171955134E+01  0.10330374201E+03  0.15668739694E+03  0.41800000000E+01 0.  1.
        -11    1    3    3    0    0 -0.55188033500E+01  0.22902349015E+02 -0.10774882548E+02  0.25905074305E+02  0.00000000000E+00 0.  1.
         11    1    3    3    0    0 -0.89162998733E+02 -0.27122300064E+02  0.78962449535E+02  0.12215043160E+03  0.00000000000E+00 0. -1.
</event>
<event>
 7    1  0.4274778E-006  0.1519276E+03  0.7561462E-02  0.1198124E+00
         -4   -1    0    0    0  501 -0.00000000000E+00  0.00000000000E+00  0.81781951051E+02  0.81781951051E+02  0.00000000000E+00 0.  1.
          4   -1    0    0  501    0  0.00000000000E+00 -0.00000000000E+00 -0.42279825856E+03  0.42279825856E+03  0.00000000000E+00 0. -1.
         23    2    1    2    0    0  0.87749618545E+02 -0.11790693756E+03 -0.19987966640E+03  0.26547967226E+03  0.94475043607E+02 0.  0.
          5    1    1    2  502    0  0.27140719697E+01  0.21426608708E+02 -0.97222275166E+02  0.99680032784E+02  0.41800000000E+01 0. -1.
         -5    1    1    2    0  502 -0.90463690514E+02  0.96480328854E+02 -0.43914365945E+02  0.13942050457E+03  0.41800000000E+01 0. -1.
        -11    1    3    3    0    0  0.56329683670E+02 -0.95734549412E+02 -0.73042765415E+02  0.13294127573E+03  0.00000000000E+00 0.  1.
         11    1    3    3    0    0  0.31419934875E+02 -0.22172388149E+02 -0.12683690098E+03  0.13253839653E+03  0.00000000000E+00 0. -1.
</event>
<event>
 7    1  0.4274778E-006  0.1463536E+03  0.7561462E-02  0.1205027E+00
         -2   -1    0    0    0  501 -0.00000000000E+00  0.00000000000E+00  0.39880884123E+02  0.39880884123E+02  0.00000000000E+00 0. -1.
          2   -1    0    0  501    0  0.00000000000E+00 -0.00000000000E+00 -0.63617587468E+03  0.63617587468E+03  0.00000000000E+00 0.  1.
         23    2    1    2    0    0  0.56832592515E+02  0.85919118727E+02 -0.39224413557E+03  0.41548739820E+03  0.90345324398E+02 0.  0.
          5    1    1    2  502    0 -0.62374468958E+02 -0.11543850877E+03 -0.17295904417E+03  0.21713803685E+03  0.41800000000E+01 0. -1.
         -5    1    1    2    0  502  0.55418764429E+01  0.29519390048E+02 -0.31091810824E+02  0.43431323761E+02  0.41800000000E+01 0. -1.
        -11    1    3    3    0    0  0.33196625391E+02  0.98770639459E+02 -0.25212655508E+03  0.27281029110E+03  0.00000000000E+00 0. -1.
         11    1    3    3    0    0  0.23635967124E+02 -0.12851520732E+02 -0.14011758049E+03  0.14267710709E+03  0.00000000000E+00 0.  1.
</event>
<event>
 7    1  0.4274778E-006  0.1099922E+03  0.7561462E-02  0.1260584E+00
         -1   -1    0    0    0  501 -0.00000000000E+00  0.00000000000E+00  0.53113630195E+02  0.53113630195E+02  0.00000000000E+00 0.  1.
          1   -1    0    0  501    0  0.00000000000E+00 -0.00000000000E+00 -0.27746324331E+03  0.27746324331E+03  0.00000000000E+00 0. -1.
         23    2    1    2    0    0  0.30802777118E+01  0.25760883377E+02 -0.16358564381E+03  0.18911291400E+03  0.91270587585E+02 0.  0.
          5    1    1    2  502    0 -0.58283264329E+02  0.99039998252E+01 -0.43101536713E+02  0.73281941707E+02  0.41800000000E+01 0. -1.
         -5    1    1    2    0  502  0.55202986617E+02 -0.35664883203E+02 -0.17662432587E+02  0.68182017792E+02  0.41800000000E+01 0. -1.
        -11    1    3    3    0    0  0.93037410785E+01 -0.33759805717E+02 -0.58391822228E+02  0.68087362874E+02  0.00000000000E+00 0.  1.
         11    1    3    3    0    0 -0.62234633667E+01  0.59520689094E+02 -0.10519382159E+03  0.12102555113E+03  0.00000000000E+00 0. -1.
</event>
<event>
 7    1  0.4274778E-006  0.1682156E+03  0.7561462E-02  0.1179722E+00
         -2   -1    0    0    0  501 -0.00000000000E+00  0.00000000000E+00  0.50577583596E+02  0.50577583596E+02  0.00000000000E+00 0.  1.
          2   -1    0    0  501    0  0.00000000000E+00 -0.00000000000E+00 -0.59509525249E+03  0.59509525249E+03  0.00000000000E+00 0. -1.
         23    2    1    2    0    0 -0.12871688231E+03 -0.39711105053E+02 -0.25893704781E+03  0.30604324022E+03  0.92027509477E+02 0.  0.
          5    1    1    2  502    0  0.15037068614E+03  0.25060909288E+02 -0.20989785209E+03  0.25944936526E+03  0.41800000000E+01 0. -1.
         -5    1    1    2    0  502 -0.21653803827E+02  0.14650195765E+02 -0.75682768993E+02  0.80180230597E+02  0.41800000000E+01 0. -1.
        -11    1    3    3    0    0 -0.13093840797E+03 -0.14043436959E+02 -0.18014758335E+03  0.22314846312E+03  0.00000000000E+00 0.  1.
         11    1    3    3    0    0  0.22215256612E+01 -0.25667668094E+02 -0.78789464458E+02  0.82894777105E+02  0.00000000000E+00 0. -1.
</event>
<event>
 7    1  0.4274778E-006  0.1259312E+03  0.7561462E-02  0.1233621E+00
         -2   -1    0    0    0  501 -0.00000000000E+00  0.00000000000E+00  0.11156714498E+03  0.11156714498E+03  0.00000000000E+00 0.  1.
          2   -1    0    0  501    0  0.00000000000E+00 -0.00000000000E+00 -0.18375410964E+03  0.18375410964E+03  0.00000000000E+00 0. -1.
         23    2    1    2    0    0  0.81865764940E+02  0.25764447322E+02 -0.74195213099E+02  0.14360665463E+03  0.88046188972E+02 0.  0.
          5    1    1    2  502    0 -0.10507796212E+03  0.11418300843E+02  0.12310951907E+02  0.10649313431E+03  0.41800000000E+01 0. -1.
         -5    1    1    2    0  502  0.23212197179E+02 -0.37182748165E+02 -0.10302703468E+02  0.45221465674E+02  0.41800000000E+01 0. -1.
        -11    1    3    3    0    0  0.30075868277E+02 -0.17299291693E+02  0.96928665205E+01  0.36024644441E+02  0.00000000000E+00 0.  1.
         11    1    3    3    0    0  0.51789896663E+02  0.43063739016E+02 -0.83888079619E+02  0.10758201019E+03  0.00000000000E+00 0. -1.
</event>
<event>
 7    1  0.4274778E-006  0.7513863E+02  0.7561462E-02  0.1343442E+00
          2   -1    0    0  501    0  0.00000000000E+00  0.00000000000E+00  0.18541934569E+03  0.18541934569E+03  0.00000000000E+00 0. -1.
         -2   -1    0    0    0  501 -0.00000000000E+00 -0.00000000000E+00 -0.67315808447E+02  0.67315808447E+02  0.00000000000E+00 0.  1.
         23    2    1    2    0    0 -0.20802103358E+02 -0.19023467397E+02  0.45727331205E+02  0.10548988407E+03  0.90788253682E+02 0.  0.
          5    1    1    2  502    0 -0.23051228235E+02  0.44428729870E+02  0.81350368615E+02  0.95606621291E+02  0.41800000000E+01 0.  1.
         -5    1    1    2    0  502  0.43853331593E+02 -0.25405262473E+02 -0.89741625773E+01  0.51638648773E+02  0.41800000000E+01 0.  1.
        -11    1    3    3    0    0 -0.30137167581E+02 -0.24084584774E+02 -0.16792284344E+02  0.42074896400E+02  0.00000000000E+00 0.  1.
         11    1    3    3    0    0  0.93350642237E+01  0.50611173769E+01  0.62519615549E+02  0.63414987673E+02  0.00000000000E+00 0. -1.
</event>
<event>
 7    1  0.4274778E-006  0.9732321E+02  0.7561462E-02  0.1286028E+00
         -2   -1    0    0    0  501 -0.00000000000E+00  0.00000000000E+00  0.10246549819E+03  0.10246549819E+03  0.00000000000E+00 0.  1.
          2   -1    0    0  501    0  0.00000000000E+00 -0.00000000000E+00 -0.13264807989E+03  0.13264807989E+03  0.00000000000E+00 0. -1.
         23    2    1    2    0    0  0.24755549378E+02  0.10558963162E+02 -0.40208177821E+02  0.10677028818E+03  0.95178085432E+02 0.  0.
          5    1    1    2  502    0 -0.61443390106E+02  0.29344546229E+02 -0.12746521156E+02  0.69399847137E+02  0.41800000000E+01 0.  1.
         -5    1    1    2    0  502  0.36687840728E+02 -0.39903509391E+02  0.22772117277E+02  0.58943442759E+02  0.41800000000E+01 0.  1.
        -11    1    3    3    0    0  0.48016038382E+02  0.66765446161E+01 -0.59182146221E+02  0.76502566109E+02  0.00000000000E+00 0. -1.
         11    1    3    3    0    0 -0.23260489005E+02  0.38824185461E+01  0.18973968400E+02  0.30267722071E+02  0.00000000000E+00 0.  1.
</event>
<event>
 7    1  0.4274778E-006  0.1177278E+03  0.7561462E-02  0.1246893E+00
         -1   -1    0    0    0  501 -0.00000000000E+00  0.00000000000E+00  0.24948229817E+03  0.24948229817E+03  0.00000000000E+00 0.  1.
          1   -1    0    0  501    0  0.00000000000E+00 -0.00000000000E+00 -0.92944886951E+02  0.92944886951E+02  0.00000000000E+00 0. -1.
         23    2    1    2    0    0  0.21661653897E+02  0.81467973253E+02 -0.22880024832E+01  0.12338595451E+03  0.90069977792E+02 0.  0.
          5    1    1    2  502    0  0.43326210312E+02 -0.53603069265E+01  0.81314558063E+02  0.92387353806E+02  0.41800000000E+01 0.  1.
         -5    1    1    2    0  502 -0.64987864209E+02 -0.76107666327E+02  0.77510855641E+02  0.12665387681E+03  0.41800000000E+01 0.  1.
        -11    1    3    3    0    0 -0.85082892502E+01  0.35081292092E+02  0.39897743834E+02  0.53804442231E+02  0.00000000000E+00 0.  1.
         11    1    3    3    0    0  0.30169943147E+02  0.46386681161E+02 -0.42185746317E+02  0.69581512279E+02  0.00000000000E+00 0. -1.
</event>
<event>
 7    1  0.4274778E-006  0.2279805E+03  0.7561462E-02  0.1128069E+00
         -1   -1    0    0    0  501 -0.00000000000E+00  0.00000000000E+00  0.10076980124E+03  0.10076980124E+03  0.00000000000E+00 0.  1.
          1   -1    0    0  501    0  0.00000000000E+00 -0.00000000000E+00 -0.86798790815E+03  0.86798790815E+03  0.00000000000E+00 0. -1.
         23    2    1    2    0    0  0.80879808284E+02  0.18545353807E+03 -0.68068968709E+03  0.71563355433E+03  0.88647480526E+02 0.  0.
          5    1    1    2  502    0 -0.77183557625E+02 -0.20390012272E+03 -0.84033143562E+02  0.23369125621E+03  0.41800000000E+01 0.  1.
         -5    1    1    2    0  502 -0.36962506592E+01  0.18446584652E+02 -0.24952762656E+01  0.19432898855E+02  0.41800000000E+01 0.  1.
        -11    1    3    3    0    0  0.47565502718E+02  0.23072635498E+02 -0.12427513656E+03  0.13505233477E+03  0.00000000000E+00 0.  1.
         11    1    3    3    0    0  0.33314305565E+02  0.16238090257E+03 -0.55641455052E+03  0.58058121956E+03  0.00000000000E+00 0. -1.
</event>
<event>
 7    1  0.4274778E-006  0.1247586E+03  0.7561462E-02  0.1235447E+00
          1   -1    0    0  501    0  0.00000000000E+00  0.00000000000E+00  0.78862729256E+03  0.78862729256E+03  0.00000000000E+00 0. -1.
         -1   -1    0    0    0  501 -0.00000000000E+00 -0.00000000000E+00 -0.22329377242E+02  0.22329377242E+02  0.00000000000E+00 0.  1.
         23    2    1    2    0    0 -0.65432507849E+02  0.80965908089E+01  0.45704037893E+03  0.47090522818E+03  0.92297660263E+02 0.  0.
          5    1    1    2  502    0 -0.33091288982E+02  0.19720878662E+02  0.92997470623E+02  0.10074695233E+03  0.41800000000E+01 0. -1.
         -5    1    1    2    0  502  0.98523796831E+02 -0.27817469471E+02  0.21626006577E+03  0.23930448929E+03  0.41800000000E+01 0. -1.
        -11    1    3    3    0    0  0.14946639837E+01 -0.30841714076E+02  0.75188471512E+02  0.81281926625E+02  0.00000000000E+00 0.  1.
         11    1    3    3    0    0 -0.66927171833E+02  0.38938304885E+02  0.38185190742E+03  0.38962330155E+03  0.00000000000E+00 0. -1.
</event>
<event>
 7    1  0.4274778E-006  0.1555794E+03  0.7561462E-02  0.1193780E+00
          1   -1    0    0  501    0  0.00000000000E+00  0.00000000000E+00  0.43750251691E+02  0.43750251691E+02  0.00000000000E+00 0. -1.
         -1   -1    0    0    0  501 -0.00000000000E+00 -0.00000000000E+00 -0.79032935538E+03  0.79032935538E+03  0.00000000000E+00 0.  1.
         23    2    1    2    0    0 -0.13089637450E+03 -0.17543992340E+02 -0.18859719820E+03  0.24719772847E+03  0.89978671180E+02 0.  0.
          5    1    1    2  502    0 -0.15413422540E+00  0.23091180099E+02 -0.14069670639E+02  0.27361549438E+02  0.41800000000E+01 0.  1.
         -5    1    1    2    0  502  0.13105050872E+03 -0.55471877589E+01 -0.54391223484E+03  0.55952032916E+03  0.41800000000E+01 0.  1.
        -11    1    3    3    0    0 -0.73889107154E+02 -0.51534704299E+02 -0.13288833892E+03  0.16054512302E+03  0.00000000000E+00 0.  1.
         11    1    3    3    0    0 -0.57007267345E+02  0.33990711959E+02 -0.55708859279E+02  0.86652605453E+02  0.00000000000E+00 0. -1.
</event>
<event>
 7    1  0.4274778E-006  0.1126418E+03  0.7561462E-02  0.1255754E+00
          1   -1    0    0  501    0  0.00000000000E+00  0.00000000000E+00  0.34154240684E+03  0.34154240684E+03  0.00000000000E+00 0. -1.
         -1   -1    0    0    0  501 -0.00000000000E+00 -0.00000000000E+00 -0.51721024935E+02  0.51721024935E+02  0.00000000000E+00 0.  1.
         23    2    1    2    0    0 -0.33627620173E+02 -0.37807444031E+02  0.15062650848E+03  0.18405281551E+03  0.92880967794E+02 0.  0.
          5    1    1    2  502    0 -0.29917402592E+02 -0.19170906502E+02  0.11494556404E+03  0.12038492317E+03  0.41800000000E+01 0. -1.
         -5    1    1    2    0  502  0.63545022765E+02  0.56978350533E+02  0.24249309384E+02  0.88825693092E+02  0.41800000000E+01 0.  1.
        -11    1    3    3    0    0  0.17695407508E+01 -0.61457722662E+02  0.10479940179E+03  0.12150348787E+03  0.00000000000E+00 0.  1.
         11    1    3    3    0    0 -0.35397160923E+02  0.23650278631E+02  0.45827106690E+02  0.62549327641E+02  0.00000000000E+00 0. -1.
</event>
<event>
 7    1  0.4274778E-006  0.1416887E+03  0.7561462E-02  0.1211075E+00
         -2   -1    0    0    0  501 -0.00000000000E+00  0.00000000000E+00  0.13928241471E+04  0.13928241471E+04  0.00000000000E+00 0.  1.
          2   -1    0    0  501    0  0.00000000000E+00 -0.00000000000E+00 -0.24366498761E+02  0.24366498761E+02  0.00000000000E+00 0. -1.
         23    2    1    2    0    0 -0.11492591552E+03 -0.70154889934E+02  0.40441845776E+03  0.43578945734E+03  0.90711010942E+02 0.  0.
          5    1    1    2  502    0  0.40072612953E+02  0.61134252237E+02  0.18890322233E+03  0.20259593014E+03  0.41800000000E+01 0.  1.
         -5    1    1    2    0  502  0.74853302565E+02  0.90206376968E+01  0.77513596823E+03  0.77880525836E+03  0.41800000000E+01 0.  1.
        -11    1    3    3    0    0 -0.55213804188E+02 -0.34276006384E+02  0.31906748606E+03  0.32561859506E+03  0.00000000000E+00 0.  1.
         11    1    3    3    0    0 -0.59712111329E+02 -0.35878883550E+02  0.85350971699E+02  0.11017086227E+03  0.00000000000E+00 0. -1.
</event>
<event>
 7    1  0.4274778E-006  0.1454773E+03  0.7561462E-02  0.1206143E+00
         -2   -1    0    0    0  501 -0.00000000000E+00  0.00000000000E+00  0.73409821951E+02  0.73409821951E+02  0.00000000000E+00 0.  1.
          2   -1    0    0  501    0  0.00000000000E+00 -0.00000000000E+00 -0.42849659063E+03  0.42849659063E+03  0.00000000000E+00 0. -1.
         23    2    1    2    0    0 -0.56850019246E+02  0.22915091312E+02 -0.17533203104E+03  0.20696711463E+03  0.91307389246E+02 0.  0.
          5    1    1    2  502    0  0.28262019641E+02  0.82858149412E+02 -0.39382191862E+01  0.87733668842E+02  0.41800000000E+01 0. -1.
         -5    1    1    2    0  502  0.28587999605E+02 -0.10577324072E+03 -0.17581651845E+03  0.20720562911E+03  0.41800000000E+01 0.  1.
        -11    1    3    3    0    0 -0.69106567466E+02  0.16612875385E+01 -0.68365895594E+02  0.97223316255E+02  0.00000000000E+00 0.  1.
         11    1    3    3    0    0  0.12256548220E+02  0.21253803773E+02 -0.10696613545E+03  0.10974379837E+03  0.00000000000E+00 0. -1.
</event>
<event>
 7    1  0.4274778E-006  0.1745477E+03  0.7561462E-02  0.1173187E+00
         -4   -1    0    0    0  501 -0.00000000000E+00  0.00000000000E+00  0.29754458208E+03  0.29754458208E+03  0.00000000000E+00 0.  1.
          4   -1    0    0  501    0  0.00000000000E+00 -0.00000000000E+00 -0.14685052791E+03  0.14685052791E+03  0.00000000000E+00 0. -1.
         23    2    1    2    0    0 -0.10403291930E+03  0.97809984151E+02 -0.40204673530E+02  0.17517498621E+03  0.93167691415E+02 0.  0.
          5    1    1    2  502    0  0.10896288250E+02 -0.92142097542E+02  0.69266424726E+02  0.11586287253E+03  0.41800000000E+01 0. -1.
         -5    1    1    2    0  502  0.93136631051E+02 -0.56678866095E+01  0.12163230298E+03  0.15335725125E+03  0.41800000000E+01 0. -1.
        -11    1    3    3    0    0 -0.67277223232E+02  0.10510875278E+02 -0.42783787309E+02  0.80418627951E+02  0.00000000000E+00 0.  1.
         11    1    3    3    0    0 -0.36755696068E+02  0.87299108873E+02  0.25791137787E+01  0.94756358264E+02  0.00000000000E+00 0. -1.
</event>
<event>
 7    1  0.4274778E-006  0.1086492E+03  0.7561462E-02  0.1263092E+00
         -1   -1    0    0    0  501 -0.00000000000E+00  0.00000000000E+00  0.90894763656E+02  0.90894763656E+02  0.00000000000E+00 0.  1.
          1   -1    0    0  501    0  0.00000000000E+00 -0.00000000000E+00 -0.26853384246E+03  0.26853384246E+03  0.00000000000E+00 0. -1.
         23    2    1    2    0    0  0.44076258307E+02 -0.13162932081E+02 -0.19731652907E+03  0.22470453360E+03  0.97171680282E+02 0.  0.
          5    1    1    2  502    0  0.38705046606E+02  0.22403126239E+02  0.24539166917E+02  0.51182260707E+02  0.41800000000E+01 0. -1.
         -5    1    1    2    0  502 -0.82781304913E+02 -0.92401941584E+01 -0.48617166485E+01  0.83541811807E+02  0.41800000000E+01 0. -1.
        -11    1    3    3    0    0  0.54008533108E+02 -0.35435274798E+02 -0.18767620585E+03  0.19848158249E+03  0.00000000000E+00 0. -1.
         11    1    3    3    0    0 -0.99322748009E+01  0.22272342718E+02 -0.96403232245E+01  0.26222951106E+02  0.00000000000E+00 0.  1.
</event>
<event>
 7    1  0.4274778E-006  0.1093576E+03  0.7561462E-02  0.1261764E+00
          1   -1    0    0  501    0  0.00000000000E+00  0.00000000000E+00  0.84324308245E+02  0.84324308245E+02  0.00000000000E+00 0. -1.
         -1   -1    0    0    0  501 -0.00000000000E+00 -0.00000000000E+00 -0.20371514408E+03  0.20371514408E+03  0.00000000000E+00 0.  1.
         23    2    1    2    0    0  0.19731781783E+02 -0.41605728531E+02  0.11421645013E+02  0.10128041609E+03  0.89481220652E+02 0.  0.
          5    1    1    2  502    0 -0.72089618491E+02  0.13824204854E+02 -0.65565663104E+02  0.98510660907E+02  0.41800000000E+01 0.  1.
         -5    1    1    2    0  502  0.52357836708E+02  0.27781523677E+02 -0.65246817743E+02  0.88248375329E+02  0.41800000000E+01 0.  1.
        -11    1    3    3    0    0  0.19126509459E+02  0.17941076476E+02 -0.20891462113E+02  0.33528477126E+02  0.00000000000E+00 0.  1.
         11    1    3    3    0    0  0.60527232454E+00 -0.59546805007E+02  0.32313107126E+02  0.67751938963E+02  0.00000000000E+00 0. -1.
</event>
<event>
 7    1  0.4274778E-006  0.9225164E+02  0.7561462E-02  0.1297489E+00
          1   -1    0    0  501    0  0.00000000000E+00  0.00000000000E+00  0.90688998089E+02  0.90688998089E+02  0.00000000000E+00 0. -1.
         -1   -1    0    0    0  501 -0.00000000000E+00 -0.00000000000E+00 -0.21084577100E+03  0.21084577100E+03  0.00000000000E+00 0.  1.
         23    2    1    2    0    0 -0.40980604845E+02  0.51939257700E+02 -0.33058536529E+02  0.12108801200E+03  0.95876709101E+02 0.  0.
          5    1    1    2  502    0  0.43602836844E+02 -0.49201804094E+02  0.23322756191E+02  0.69881673301E+02  0.41800000000E+01 0. -1.
         -5    1    1    2    0  502 -0.26222319987E+01 -0.27374536057E+01 -0.11042099257E+03  0.11056508379E+03  0.41800000000E+01 0.  1.
        -11    1    3    3    0    0  0.29436716914E+02  0.20481567483E+02  0.29290708764E+01  0.35980472001E+02  0.00000000000E+00 0.  1.
         11    1    3    3    0    0 -0.70417321759E+02  0.31457690217E+02 -0.35987607406E+02  0.85107539997E+02  0.00000000000E+00 0. -1.
</event>
<event>
 7    1  0.4274778E-006  0.6373467E+02  0.7561462E-02  0.1382795E+00
          1   -1    0    0  501    0  0.00000000000E+00  0.00000000000E+00  0.28852760890E+03  0.28852760890E+03  0.00000000000E+00 0. -1.
         -1   -1    0    0    0  501 -0.00000000000E+00 -0.00000000000E+00 -0.43354453207E+02  0.43354453207E+02  0.00000000000E+00 0.  1.
         23    2    1    2    0    0  0.37983289116E+02 -0.13450954377E+02  0.14201936791E+03  0.16481448338E+03  0.73284750426E+02 0.  0.
          5    1    1    2  502    0 -0.27694608643E+02  0.31596914137E+02 -0.16651273655E+02  0.45388254485E+02  0.41800000000E+01 0.  1.
         -5    1    1    2    0  502 -0.10288680473E+02 -0.18145959760E+02  0.11980506144E+03  0.12167932424E+03  0.41800000000E+01 0.  1.
        -11    1    3    3    0    0  0.57783861690E+01 -0.28030498628E+02  0.13728824172E+02  0.31742388271E+02  0.00000000000E+00 0.  1.
         11    1    3    3    0    0  0.32204902947E+02  0.14579544251E+02  0.12829054374E+03  0.13307209511E+03  0.00000000000E+00 0. -1.
</event>
<event>
 7    1  0.4274778E-006  0.1409238E+03  0.7561462E-02  0.1212091E+00
          1   -1    0    0  501    0  0.00000000000E+00  0.00000000000E+00  0.34891919342E+03  0.34891919342E+03  0.00000000000E+00 0. -1.
         -1   -1    0    0    0  501 -0.00000000000E+00 -0.00000000000E+00 -0.16279054598E+03  0.16279054598E+03  0.00000000000E+00 0.  1.
         23    2    1    2    0    0  0.44797033624E+02 -0.66991537378E+02  0.24363818964E+03  0.27208993951E+03  0.90436316979E+02 0.  0.
          5    1    1    2  502    0  0.65764931329E+01  0.10473900205E+03  0.48626527446E+02  0.11573901841E+03  0.41800000000E+01 0. -1.
         -5    1    1    2    0  502 -0.51373526757E+02 -0.37747464669E+02 -0.10613606965E+03  0.12388078148E+03  0.41800000000E+01 0.  1.
        -11    1    3    3    0    0 -0.10924851560E+02  0.12023325074E+02  0.83192064830E+02  0.84763390553E+02  0.00000000000E+00 0.  1.
         11    1    3    3    0    0  0.55721885184E+02 -0.79014862452E+02  0.16044612481E+03  0.18732654896E+03  0.00000000000E+00 0. -1.
</event>
<event>
 7    1  0.4274778E-006  0.1539074E+03  0.7561462E-02  0.1195752E+00
         -3   -1    0    0    0  501 -0.00000000000E+00  0.00000000000E+00  0.28555265042E+03  0.28555265042E+03  0.00000000000E+00 0.  1.
          3   -1    0    0  501    0  0.00000000000E+00 -0.00000000000E+00 -0.89233482835E+02  0.89233482835E+02  0.00000000000E+00 0. -1.
         23    2    1    2    0    0  0.56113595780E+01  0.11249725301E+03  0.53892703127E+02  0.15428754038E+03  0.90626168270E+02 0.  0.
          5    1    1    2  502    0 -0.58699788834E+02 -0.91732946942E+02  0.76014538887E+02  0.13287694038E+03  0.41800000000E+01 0.  1.
         -5    1    1    2    0  502  0.53088429255E+02 -0.20764306064E+02  0.66411925567E+02  0.87621652488E+02  0.41800000000E+01 0.  1.
        -11    1    3    3    0    0 -0.31018420352E+02  0.96344976610E+01  0.25963423002E+02  0.41582030738E+02  0.00000000000E+00 0.  1.
         11    1    3    3    0    0  0.36629779930E+02  0.10286275535E+03  0.27929280125E+02  0.11270550964E+03  0.00000000000E+00 0. -1.
</event>
<event>
 7    1  0.4274778E-006  0.1289045E+03  0.7561462E-02  0.1229090E+00
         -1   -1    0    0    0  501 -0.00000000000E+00  0.00000000000E+00  0.42533491052E+02  0.42533491052E+02  0.00000000000E+00 0.  1.
          1   -1    0    0  501    0  0.00000000000E+00 -0.00000000000E+00 -0.53149885262E+03  0.53149885262E+03  0.00000000000E+00 0. -1.
         23    2    1    2    0    0 -0.95197123077E+02 -0.25333883119E+02 -0.29452805289E+03  0.32271990888E+03  0.87732934380E+02 0.  0.
          5    1    1    2  502    0  0.19868491732E+02 -0.49146428914E+02 -0.67379124814E+02  0.85834417918E+02  0.41800000000E+01 0. -1.
         -5    1    1    2    0  502  0.75328631345E+02  0.74480312033E+02 -0.12705818387E+03  0.16547801688E+03  0.41800000000E+01 0. -1.
        -11    1    3    3    0    0 -0.33681242776E+02 -0.66845129881E+01 -0.17904096296E+02  0.38725514754E+02  0.00000000000E+00 0.  1.
         11    1    3    3    0    0 -0.61515880301E+02 -0.18649370131E+02 -0.27662395659E+03  0.28399439413E+03  0.00000000000E+00 0. -1.
</event>
<event>
 7    1  0.4274778E-006  0.1095081E+03  0.7561462E-02  0.1261483E+00
          1   -1    0    0  501    0  0.00000000000E+00  0.00000000000E+00  0.25079241904E+03  0.25079241904E+03  0.00000000000E+00 0. -1.
         -1   -1    0    0    0  501 -0.00000000000E+00 -0.00000000000E+00 -0.51037625601E+02  0.51037625601E+02  0.00000000000E+00 0.  1.
         23    2    1    2    0    0  0.21263474769E+02  0.19855916411E+02  0.10241054203E+03  0.14067556130E+03  0.91952714212E+02 0.  0.
          5    1    1    2  502    0  0.51075379091E+02  0.51346023235E+01  0.33933441054E+02  0.61676651272E+02  0.41800000000E+01 0. -1.
         -5    1    1    2    0  502 -0.72338853860E+02 -0.24990518735E+02  0.63410810351E+02  0.99477832072E+02  0.41800000000E+01 0. -1.
        -11    1    3    3    0    0 -0.22698576754E+01  0.51433355264E+02  0.80649528787E+02  0.95681183005E+02  0.00000000000E+00 0. -1.
         11    1    3    3    0    0  0.23533332444E+02 -0.31577438853E+02  0.21761013246E+02  0.44994378293E+02  0.00000000000E+00 0.  1.
</event>
<event>
 7    1  0.4274778E-006  0.1402158E+03  0.7561462E-02  0.1213039E+00
         -1   -1    0    0    0  501 -0.00000000000E+00  0.00000000000E+00  0.20874029134E+03  0.20874029134E+03  0.00000000000E+00 0.  1.
          1   -1    0    0  501    0  0.00000000000E+00 -0.00000000000E+00 -0.95572969765E+02  0.95572969765E+02  0.00000000000E+00 0. -1.
         23    2    1    2    0    0  0.15756957901E+02 -0.87807436233E+02  0.43464700848E+02  0.13560086525E+03  0.92412049304E+02 0.  0.
          5    1    1    2  502    0  0.10302464623E+02 -0.29976424308E+02  0.22552388673E+02  0.39125559759E+02  0.41800000000E+01 0. -1.
         -5    1    1    2    0  502 -0.26059422524E+02  0.11778386054E+03  0.47150232050E+02  0.12958683609E+03  0.41800000000E+01 0. -1.
        -11    1    3    3    0    0 -0.32006123792E+02 -0.69659362519E+02  0.19151488572E+02  0.79016442981E+02  0.00000000000E+00 0. -1.
         11    1    3    3    0    0  0.47763081693E+02 -0.18148073713E+02  0.24313212276E+02  0.56584422269E+02  0.00000000000E+00 0.  1.
</event>
<event>
 7    1  0.4274778E-006  0.8894822E+02  0.7561462E-02  0.1305419E+00
         -2   -1    0    0    0  501 -0.00000000000E+00  0.00000000000E+00  0.17377172847E+02  0.17377172847E+02  0.00000000000E+00 0.  1.
          2   -1    0    0  501    0  0.00000000000E+00 -0.00000000000E+00 -0.77109914325E+03  0.77109914325E+03  0.00000000000E+00 0. -1.
         23    2    1    2    0    0  0.27732503528E+02 -0.32307215073E+02 -0.26546464969E+03  0.28265442145E+03  0.87230693190E+02 0.  0.
          5    1    1    2  502    0 -0.20573378753E+02  0.62269088270E+02 -0.45713107016E+03  0.46183004555E+03  0.41800000000E+01 0. -1.
         -5    1    1    2    0  502 -0.71591247744E+01 -0.29961873197E+02 -0.31126250549E+02  0.43991849088E+02  0.41800000000E+01 0. -1.
        -11    1    3    3    0    0  0.30701552917E+02  0.14669083549E+02 -0.19479189620E+03  0.19774137197E+03  0.00000000000E+00 0. -1.
         11    1    3    3    0    0 -0.29690493896E+01 -0.46976298622E+02 -0.70672753489E+02  0.84913049481E+02  0.00000000000E+00 0.  1.
</event>
<event>
 7    1  0.4274778E-006  0.2808741E+03  0.7561462E-02  0.1095212E+00
         -2   -1    0    0    0  501 -0.00000000000E+00  0.00000000000E+00  0.41941780641E+02  0.41941780641E+02  0.00000000000E+00 0. -1.
          2   -1    0    0  501    0  0.00000000000E+00 -0.00000000000E+00 -0.22548687664E+04  0.22548687664E+04  0.00000000000E+00 0.  1.
         23    2    1    2    0    0 -0.83250762600E+02  0.25168572509E+03 -0.14992824063E+04  0.15253099332E+04  0.91903561608E+02 0.  0.
          5    1    1    2  502    0  0.48394673969E+02 -0.24638556913E+02 -0.74264302039E+02  0.92096481544E+02  0.41800000000E+01 0. -1.
         -5    1    1    2    0  502  0.34856088631E+02 -0.22704716818E+03 -0.63938027735E+03  0.67940413228E+03  0.41800000000E+01 0. -1.
        -11    1    3    3    0    0 -0.58065423494E+02  0.57477262344E+02 -0.34574317215E+03  0.35526549252E+03  0.00000000000E+00 0. -1.
         11    1    3    3    0    0 -0.25185339107E+02  0.19420846275E+03 -0.11535392342E+04  0.11700444407E+04  0.00000000000E+00 0.  1.
</event>
<event>
 7    1  0.4274778E-006  0.1250962E+03  0.7561462E-02  0.1234919E+00
         -2   -1    0    0    0  501 -0.00000000000E+00  0.00000000000E+00  0.19277456629E+02  0.19277456629E+02  0.00000000000E+00 0.  1.
          2   -1    0    0  501    0  0.00000000000E+00 -0.00000000000E+00 -0.85606364823E+03  0.85606364823E+03  0.00000000000E+00 0. -1.
         23    2    1    2    0    0 -0.58182691680E+01  0.71657430408E+02 -0.38031138595E+03  0.39660791312E+03  0.86558921409E+02 0.  0.
          5    1    1    2  502    0  0.23281680757E+02 -0.10354931631E+03 -0.36702134953E+03  0.38208198202E+03  0.41800000000E+01 0.  1.
         -5    1    1    2    0  502 -0.17463411589E+02  0.31891885898E+02 -0.89453456115E+02  0.96651209726E+02  0.41800000000E+01 0.  1.
        -11    1    3    3    0    0  0.36618543144E+02  0.41317285199E+02 -0.25432044677E+03  0.26024397285E+03  0.00000000000E+00 0. -1.
         11    1    3    3    0    0 -0.42436812312E+02  0.30340145209E+02 -0.12599093918E+03  0.13636394027E+03  0.00000000000E+00 0.  1.
</event>
<event>
 7    1  0.4274778E-006  0.1095487E+03  0.7561462E-02  0.1261408E+00
         -2   -1    0    0    0  501 -0.00000000000E+00  0.00000000000E+00  0.13387843834E+02  0.13387843834E+02  0.00000000000E+00 0.  1.
          2   -1    0    0  501    0  0.00000000000E+00 -0.00000000000E+00 -0.94527402767E+03  0.94527402767E+03  0.00000000000E+00 0. -1.
         23    2    1    2    0    0 -0.26242581165E+02 -0.16182702449E+02 -0.39728487421E+03  0.40875475621E+03  0.91074840209E+02 0.  0.
          5    1    1    2  502    0 -0.10497281500E+02  0.64337067823E+02 -0.33365740707E+03  0.33999145417E+03  0.41800000000E+01 0.  1.
         -5    1    1    2    0  502  0.36739862665E+02 -0.48154365374E+02 -0.20094390255E+03  0.20991566112E+03  0.41800000000E+01 0.  1.
        -11    1    3    3    0    0  0.29931966968E+02 -0.21177236369E+02 -0.10889140444E+03  0.11489880743E+03  0.00000000000E+00 0.  1.
         11    1    3    3    0    0 -0.56174548133E+02  0.49945339204E+01 -0.28839346977E+03  0.29385594878E+03  0.00000000000E+00 0. -1.
</event>
<event>
 7    1  0.4274778E-006  0.1213516E+03  0.7561462E-02  0.1240884E+00
          2   -1    0    0  501    0  0.00000000000E+00  0.00000000000E+00  0.33023431038E+03  0.33023431038E+03  0.00000000000E+00 0. -1.
         -2   -1    0    0    0  501 -0.00000000000E+00 -0.00000000000E+00 -0.60283229093E+02  0.60283229093E+02  0.00000000000E+00 0.  1.
         23    2    1    2    0    0  0.62196266842E+02  0.50829436912E+02  0.66203110411E+02  0.13830186858E+03  0.91063427113E+02 0.  0.
          5    1    1    2  502    0 -0.86605396181E+02 -0.37670263033E+02  0.75633801382E+02  0.12106811172E+03  0.41800000000E+01 0.  1.
         -5    1    1    2    0  502  0.24409129339E+02 -0.13159173879E+02  0.12811416949E+03  0.13114755917E+03  0.41800000000E+01 0.  1.
        -11    1    3    3    0    0 -0.13357116877E+02  0.41980246334E+02  0.34214480359E+02  0.55779784150E+02  0.00000000000E+00 0. -1.
         11    1    3    3    0    0  0.75553383719E+02  0.88491905774E+01  0.31988630052E+02  0.82522084426E+02  0.00000000000E+00 0.  1.
</event>
<event>
 7    1  0.4274778E-006  0.1351294E+03  0.7561462E-02  0.1220037E+00
         -2   -1    0    0    0  501 -0.00000000000E+00  0.00000000000E+00  0.76012118450E+02  0.76012118450E+02  0.00000000000E+00 0.  1.
          2   -1    0    0  501    0  0.00000000000E+00 -0.00000000000E+00 -0.38616209754E+03  0.38616209754E+03  0.00000000000E+00 0. -1.
         23    2    1    2    0    0  0.59003663960E+02 -0.61773126371E+02 -0.28146214428E+03  0.30800854814E+03  0.91383672266E+02 0.  0.
          5    1    1    2  502    0  0.29851961729E+02  0.47882940341E+02  0.76137182147E+01  0.57090775961E+02  0.41800000000E+01 0. -1.
         -5    1    1    2    0  502 -0.88855625689E+02  0.13890186030E+02 -0.36301553021E+02  0.97074891894E+02  0.41800000000E+01 0. -1.
        -11    1    3    3    0    0  0.62094242114E+02 -0.29952031215E+00 -0.11797902352E+03  0.13332229599E+03  0.00000000000E+00 0.  1.
         11    1    3    3    0    0 -0.30905781545E+01 -0.61473606059E+02 -0.16348312077E+03  0.17468625215E+03  0.00000000000E+00 0. -1.
</event>
<event>
 7    1  0.4274778E-006  0.1877294E+03  0.7561462E-02  0.1160525E+00
          2   -1    0    0  501    0  0.00000000000E+00  0.00000000000E+00  0.85691040351E+03  0.85691040351E+03  0.00000000000E+00 0. -1.
         -2   -1    0    0    0  501 -0.00000000000E+00 -0.00000000000E+00 -0.57832881948E+02  0.57832881948E+02  0.00000000000E+00 0.  1.
         23    2    1    2    0    0 -0.69666429890E+02  0.16073472011E+03  0.55597131140E+03  0.59003276225E+03  0.91353706710E+02 0.  0.
          5    1    1    2  502    0 -0.73753293707E+01 -0.11949121814E+02  0.10921956781E+03  0.11019783749E+03  0.41800000000E+01 0.  1.
         -5    1    1    2    0  502  0.77041759261E+02 -0.14878559830E+03  0.13388664236E+03  0.21451268572E+03  0.41800000000E+01 0.  1.
        -11    1    3    3    0    0 -0.75803303237E+02  0.72936271814E+02  0.36306132348E+03  0.37799386917E+03  0.00000000000E+00 0. -1.
         11    1    3    3    0    0  0.61368733469E+01  0.87798448300E+02  0.19290998792E+03  0.21203889308E+03  0.00000000000E+00 0.  1.
</event>
<event>
 7    1  0.4274778E-006  0.9943973E+02  0.7561462E-02  0.1281479E+00
          1   -1    0    0  501    0  0.00000000000E+00  0.00000000000E+00  0.74971137495E+02  0.74971137495E+02  0.00000000000E+00 0. -1.
         -1   -1    0    0    0  501 -0.00000000000E+00 -0.00000000000E+00 -0.19427808517E+03  0.19427808517E+03  0.00000000000E+00 0.  1.
         23    2    1    2    0    0 -0.41863445288E+02  0.10538596459E+02 -0.19412611870E+02  0.10344778248E+03  0.91983607960E+02 0.  0.
          5    1    1    2  502    0 -0.27503133164E+02 -0.11607762578E+02  0.13320752759E+02  0.32955687521E+02  0.41800000000E+01 0.  1.
         -5    1    1    2    0  502  0.69366578452E+02  0.10691661193E+01 -0.11321508857E+03  0.13284575267E+03  0.41800000000E+01 0.  1.
        -11    1    3    3    0    0  0.27717450414E+02 -0.44116937049E+01 -0.15752564405E+02  0.32184831584E+02  0.00000000000E+00 0. -1.
         11    1    3    3    0    0 -0.69580895702E+02  0.14950290164E+02 -0.36600474650E+01  0.71262950894E+02  0.00000000000E+00 0.  1.
</event>
<event>
 7    1  0.4274778E-006  0.1138231E+03  0.7561462E-02  0.1253649E+00
          2   -1    0    0  501    0  0.00000000000E+00  0.00000000000E+00  0.10919704041E+04  0.10919704041E+04  0.00000000000E+00 0. -1.
         -2   -1    0    0    0  501 -0.00000000000E+00 -0.00000000000E+00 -0.11967848354E+02  0.11967848354E+02  0.00000000000E+00 0.  1.
         23    2    1    2    0    0 -0.26455537108E+02  0.25369343086E+02  0.50864394336E+03  0.51789882846E+03  0.90316313016E+02 0.  0.
          5    1    1    2  502    0  0.14415514030E+02  0.50803460943E+02  0.24618417361E+03  0.25181921775E+03  0.41800000000E+01 0. -1.
         -5    1    1    2    0  502  0.12040023078E+02 -0.76172804029E+02  0.32517443875E+03  0.33422020622E+03  0.41800000000E+01 0. -1.
        -11    1    3    3    0    0 -0.34785709833E+02  0.55874648265E+02  0.34957069245E+03  0.35571293335E+03  0.00000000000E+00 0.  1.
         11    1    3    3    0    0  0.83301727253E+01 -0.30505305179E+02  0.15907325090E+03  0.16218589512E+03  0.00000000000E+00 0. -1.
</event>
<event>
 7    1  0.4274778E-006  0.1699036E+03  0.7561462E-02  0.1177948E+00
          1   -1    0    0  501    0  0.00000000000E+00  0.00000000000E+00  0.67654577893E+02  0.67654577893E+02  0.00000000000E+00 0. -1.
         -1   -1    0    0    0  501 -0.00000000000E+00 -0.00000000000E+00 -0.46456607837E+03  0.46456607837E+03  0.00000000000E+00 0.  1.
         23    2    1    2    0    0 -0.11643594776E+03  0.51203233218E+02 -0.11075663308E+03  0.19167045284E+03  0.91057288003E+02 0.  0.
          5    1    1    2  502    0 -0.45939635721E+01  0.34476180260E+02 -0.71522669633E+02  0.79640920249E+02  0.41800000000E+01 0. -1.
         -5    1    1    2    0  502  0.12102991133E+03 -0.85679413478E+02 -0.21463219776E+03  0.26090928317E+03  0.41800000000E+01 0.  1.
        -11    1    3    3    0    0  0.13623999692E+02  0.17305254484E+02 -0.15344971316E+02  0.26843124726E+02  0.00000000000E+00 0.  1.
         11    1    3    3    0    0 -0.13005994745E+03  0.33897978734E+02 -0.95411661768E+02  0.16482732812E+03  0.00000000000E+00 0. -1.
</event>
<event>
 7    1  0.4274778E-006  0.8324464E+02  0.7561462E-02  0.1320088E+00
         -1   -1    0    0    0  501 -0.00000000000E+00  0.00000000000E+00  0.58467672956E+03  0.58467672956E+03  0.00000000000E+00 0.  1.
          1   -1    0    0  501    0  0.00000000000E+00 -0.00000000000E+00 -0.29393569471E+02  0.29393569471E+02  0.00000000000E+00 0. -1.
         23    2    1    2    0    0  0.14896967484E+02 -0.24974807397E+02  0.85435195785E+02  0.12898934480E+03  0.92159740387E+02 0.  0.
          5    1    1    2  502    0 -0.45999574553E+02  0.23465402354E+02  0.89315415163E+02  0.10325357985E+03  0.41800000000E+01 0. -1.
         -5    1    1    2    0  502  0.31102607069E+02  0.15094050427E+01  0.38053254914E+03  0.38182737437E+03  0.41800000000E+01 0.  1.
        -11    1    3    3    0    0  0.37004132007E+02  0.13084068777E+02  0.73601304674E+02  0.83412533177E+02  0.00000000000E+00 0.  1.
         11    1    3    3    0    0 -0.22107164523E+02 -0.38058876173E+02  0.11833891111E+02  0.45576811622E+02  0.00000000000E+00 0. -1.
</event>
<event>
 7    1  0.4274778E-006  0.9238426E+02  0.7561462E-02  0.1297178E+00
         -2   -1    0    0    0  501 -0.00000000000E+00  0.00000000000E+00  0.47740398486E+03  0.47740398486E+03  0.00000000000E+00 0.  1.
          2   -1    0    0  501    0  0.00000000000E+00 -0.00000000000E+00 -0.25287893649E+02  0.25287893649E+02  0.00000000000E+00 0. -1.
         23    2    1    2    0    0  0.69527098547E+01  0.14858857871E+02  0.19858058889E+03  0.21950156101E+03  0.92073661650E+02 0.  0.
          5    1    1    2  502    0 -0.44373303455E+01  0.52279943647E+02  0.15632274326E+03  0.16494591498E+03  0.41800000000E+01 0. -1.
         -5    1    1    2    0  502 -0.25153795091E+01 -0.67138801517E+02  0.97212759066E+02  0.11824440253E+03  0.41800000000E+01 0. -1.
        -11    1    3    3    0    0 -0.74819785796E+01 -0.23060923657E+02  0.93740174346E+01  0.25993430060E+02  0.00000000000E+00 0. -1.
         11    1    3    3    0    0  0.14434688434E+02  0.37919781528E+02  0.18920657145E+03  0.19350813095E+03  0.00000000000E+00 0.  1.
</event>
<event>
 7    1  0.4274778E-006  0.9676117E+02  0.7561462E-02  0.1287258E+00
         -1   -1    0    0    0  501 -0.00000000000E+00  0.00000000000E+00  0.59608331242E+02  0.59608331242E+02  0.00000000000E+00 0.  1.
          1   -1    0    0  501    0  0.00000000000E+00 -0.00000000000E+00 -0.21251419727E+03  0.21251419727E+03  0.00000000000E+00 0. -1.
         23    2    1    2    0    0 -0.48901376476E+01 -0.12497346074E+02 -0.98289137610E+02  0.13496708261E+03  0.91516455960E+02 0.  0.
          5    1    1    2  502    0  0.60473816488E+02 -0.56414543864E+01 -0.49223700025E+02  0.78290187970E+02  0.41800000000E+01 0. -1.
         -5    1    1    2    0  502 -0.55583678841E+02  0.18138800461E+02 -0.53930283895E+01  0.58865257927E+02  0.41800000000E+01 0. -1.
        -11    1    3    3    0    0  0.26246459847E+02 -0.28727347993E+02 -0.91188358547E+02  0.99143602475E+02  0.00000000000E+00 0. -1.
         11    1    3    3    0    0 -0.31136597494E+02  0.16230001919E+02 -0.71007790634E+01  0.35823480137E+02  0.00000000000E+00 0.  1.
</event>
<event>
 7    1  0.4274778E-006  0.2943809E+03  0.7561462E-02  0.1088084E+00
          2   -1    0    0  501    0  0.00000000000E+00  0.00000000000E+00  0.82638509322E+03  0.82638509322E+03  0.00000000000E+00 0. -1.
         -2   -1    0    0    0  501 -0.00000000000E+00 -0.00000000000E+00 -0.14945167711E+03  0.14945167711E+03  0.00000000000E+00 0.  1.
         23    2    1    2    0    0  0.11510582729E+03 -0.25245138124E+03  0.59143665602E+03  0.65970572234E+03  0.91832840734E+02 0.  0.
          5    1    1    2  502    0 -0.42821372520E+02  0.22547883459E+01  0.20330805032E+02  0.47639983713E+02  0.41800000000E+01 0. -1.
         -5    1    1    2    0  502 -0.72284454774E+02  0.25019659290E+03  0.65165955060E+02  0.26849106428E+03  0.41800000000E+01 0. -1.
        -11    1    3    3    0    0 -0.84537992265E+01 -0.10001159364E+02  0.73275645584E+02  0.74436618312E+02  0.00000000000E+00 0. -1.
         11    1    3    3    0    0  0.12355962652E+03 -0.24245022188E+03  0.51816101044E+03  0.58526910403E+03  0.00000000000E+00 0.  1.
</event>
<event>
 7    1  0.4274778E-006  0.1016302E+03  0.7561462E-02  0.1276905E+00
         -2   -1    0    0    0  501 -0.00000000000E+00  0.00000000000E+00  0.44481486876E+03  0.44481486876E+03  0.00000000000E+00 0.  1.
          2   -1    0    0  501    0  0.00000000000E+00 -0.00000000000E+00 -0.33683042945E+02  0.33683042945E+02  0.00000000000E+00 0. -1.
         23    2    1    2    0    0  0.49188488812E+02 -0.92816683755E+01  0.15573953112E+03  0.18974382345E+03  0.96136674508E+02 0.  0.
          5    1    1    2  502    0 -0.30009531113E+02 -0.36107996092E+02  0.22676775345E+03  0.23161486512E+03  0.41800000000E+01 0.  1.
         -5    1    1    2    0  502 -0.19178957699E+02  0.45389664467E+02  0.28624541243E+02  0.57139223133E+02  0.41800000000E+01 0.  1.
        -11    1    3    3    0    0  0.76912501966E+02  0.14948879483E+01  0.96092589897E+02  0.12309164668E+03  0.00000000000E+00 0. -1.
         11    1    3    3    0    0 -0.27724013154E+02 -0.10776556324E+02  0.59646941225E+02  0.66652176777E+02  0.00000000000E+00 0.  1.
</event>
<event>
 7    1  0.4274778E-006  0.1584783E+03  0.7561462E-02  0.1190426E+00
          2   -1    0    0  501    0  0.00000000000E+00  0.00000000000E+00  0.92177100979E+03  0.92177100979E+03  0.00000000000E+00 0.  1.
         -2   -1    0    0    0  501 -0.00000000000E+00 -0.00000000000E+00 -0.38800998248E+02  0.38800998248E+02  0.00000000000E+00 0. -1.
         23    2    1    2    0    0  0.57792312653E+02  0.13359171276E+03  0.39771098845E+03  0.43873661406E+03  0.11458223714E+03 0.  0.
          5    1    1    2  502    0  0.11268736264E+02  0.30229248783E+01 -0.60682088209E+00  0.12408187756E+02  0.41800000000E+01 0. -1.
         -5    1    1    2    0  502 -0.69061048917E+02 -0.13661463764E+03  0.48586584398E+03  0.50942720622E+03  0.41800000000E+01 0. -1.
        -11    1    3    3    0    0  0.41421042864E+02  0.44301812417E+02  0.47742103928E+02  0.77185891605E+02  0.00000000000E+00 0. -1.
         11    1    3    3    0    0  0.16371269789E+02  0.89289900341E+02  0.34996888452E+03  0.36155072246E+03  0.00000000000E+00 0.  1.
</event>
<event>
 7    1  0.4274778E-006  0.1784225E+03  0.7561462E-02  0.1169339E+00
         -1   -1    0    0    0  501 -0.00000000000E+00  0.00000000000E+00  0.51876467326E+02  0.51876467326E+02  0.00000000000E+00 0.  1.
          1   -1    0    0  501    0  0.00000000000E+00 -0.00000000000E+00 -0.75244690070E+03  0.75244690070E+03  0.00000000000E+00 0. -1.
         23    2    1    2    0    0 -0.11572830989E+03 -0.11299907053E+03 -0.39260893704E+03  0.43466252988E+03  0.92886521037E+02 0.  0.
          5    1    1    2  502    0  0.59614442597E+02 -0.15034674865E+00 -0.35980909457E+02  0.69756738855E+02  0.41800000000E+01 0.  1.
         -5    1    1    2    0  502  0.56113867294E+02  0.11314941728E+03 -0.27198058687E+03  0.29990409928E+03  0.41800000000E+01 0.  1.
        -11    1    3    3    0    0 -0.10283486525E+03 -0.11832365925E+03 -0.39019077034E+03  0.42050485741E+03  0.00000000000E+00 0. -1.
         11    1    3    3    0    0 -0.12893444638E+02  0.53245887194E+01 -0.24181667039E+01  0.14157672474E+02  0.00000000000E+00 0.  1.
</event>
<event>
 7    1  0.4274778E-006  0.1889651E+03  0.7561462E-02  0.1159398E+00
         -2   -1    0    0    0  501 -0.00000000000E+00  0.00000000000E+00  0.16674424108E+03  0.16674424108E+03  0.00000000000E+00 0. -1.
          2   -1    0    0  501    0  0.00000000000E+00 -0.00000000000E+00 -0.32361049088E+03  0.32361049088E+03  0.00000000000E+00 0.  1.
         23    2    1    2    0    0  0.12730058906E+03 -0.11411046994E+03 -0.19540494554E+03  0.27504113318E+03  0.90762838618E+02 0.  0.
          5    1    1    2  502    0 -0.12995633343E+03  0.86077426591E+02  0.71683860899E+02  0.17162173604E+03  0.41800000000E+01 0. -1.
         -5    1    1    2    0  502  0.26557443741E+01  0.28033043344E+02 -0.33145165152E+02  0.43691862746E+02  0.41800000000E+01 0. -1.
        -11    1    3    3    0    0  0.14157157707E+03 -0.99052970045E+02 -0.17297147788E+03  0.24448544838E+03  0.00000000000E+00 0. -1.
         11    1    3    3    0    0 -0.14270988019E+02 -0.15057499890E+02 -0.22433467658E+02  0.30555684792E+02  0.00000000000E+00 0.  1.
</event>
<event>
 7    1  0.4274778E-006  0.1419905E+03  0.7561462E-02  0.1210675E+00
         -3   -1    0    0    0  501 -0.00000000000E+00  0.00000000000E+00  0.49710913925E+03  0.49710913925E+03  0.00000000000E+00 0.  1.
          3   -1    0    0  501    0  0.00000000000E+00 -0.00000000000E+00 -0.46636021887E+02  0.46636021887E+02  0.00000000000E+00 0. -1.
         23    2    1    2    0    0 -0.10247343119E+03  0.68423956344E+01  0.15517963664E+03  0.20700555976E+03  0.90680536299E+02 0.  0.
          5    1    1    2  502    0  0.17440356935E+02  0.46187504424E+02  0.44362838641E+02  0.66505529599E+02  0.41800000000E+01 0.  1.
         -5    1    1    2    0  502  0.85033074256E+02 -0.53029900059E+02  0.25093064207E+03  0.27023407178E+03  0.41800000000E+01 0.  1.
        -11    1    3    3    0    0 -0.20819339210E+02 -0.36251747180E+02  0.69175704265E+02  0.80826432059E+02  0.00000000000E+00 0.  1.
         11    1    3    3    0    0 -0.81654091981E+02  0.43094142815E+02  0.86003932379E+02  0.12617912770E+03  0.00000000000E+00 0. -1.
</event>
<event>
 7    1  0.4274778E-006  0.1224650E+03  0.7561462E-02  0.1239085E+00
         -1   -1    0    0    0  501 -0.00000000000E+00  0.00000000000E+00  0.73462575009E+02  0.73462575009E+02  0.00000000000E+00 0.  1.
          1   -1    0    0  501    0  0.00000000000E+00 -0.00000000000E+00 -0.21298569494E+03  0.21298569494E+03  0.00000000000E+00 0. -1.
         23    2    1    2    0    0 -0.73775646603E+01 -0.42041749209E+02 -0.90352757092E+02  0.14542255732E+03  0.10565113499E+03 0.  0.
          5    1    1    2  502    0 -0.96177226265E+01 -0.42998771061E+02 -0.25305746951E+02  0.50982821911E+02  0.41800000000E+01 0.  1.
         -5    1    1    2    0  502  0.16995287287E+02  0.85040520270E+02 -0.23864615885E+02  0.90042890719E+02  0.41800000000E+01 0.  1.
        -11    1    3    3    0    0  0.44873124194E+02 -0.42197243922E+02 -0.45846964611E+02  0.76786384428E+02  0.00000000000E+00 0.  1.
         11    1    3    3    0    0 -0.52250688854E+02  0.15549471258E+00 -0.44505792481E+02  0.68636172888E+02  0.00000000000E+00 0. -1.
</event>
<event>
 7    1  0.4274778E-006  0.1283664E+03  0.7561462E-02  0.1229900E+00
          4   -1    0    0  501    0  0.00000000000E+00  0.00000000000E+00  0.21652399948E+03  0.21652399948E+03  0.00000000000E+00 0. -1.
         -4   -1    0    0    0  501 -0.00000000000E+00 -0.00000000000E+00 -0.88287309628E+02  0.88287309628E+02  0.00000000000E+00 0.  1.
         23    2    1    2    0    0 -0.75610741051E+02  0.30749218162E+02  0.85647207604E+02  0.14949247926E+03  0.91378655077E+02 0.  0.
          5    1    1    2  502    0 -0.33620417453E+00 -0.61994185951E+02  0.38270887410E+02  0.72976197133E+02  0.41800000000E+01 0.  1.
         -5    1    1    2    0  502  0.75946945225E+02  0.31244967789E+02  0.43185948341E+01  0.82342632716E+02  0.41800000000E+01 0.  1.
        -11    1    3    3    0    0 -0.26760382008E+02  0.52474539949E+02  0.14797732872E+02  0.60734407762E+02  0.00000000000E+00 0.  1.
         11    1    3    3    0    0 -0.48850359043E+02 -0.21725321787E+02  0.70849474731E+02  0.88758071493E+02  0.00000000000E+00 0. -1.
</event>
<event>
 7    1  0.4274778E-006  0.1180740E+03  0.7561462E-02  0.1246309E+00
         -3   -1    0    0    0  501 -0.00000000000E+00  0.00000000000E+00  0.29697295294E+03  0.29697295294E+03  0.00000000000E+00 0.  1.
          3   -1    0    0  501    0  0.00000000000E+00 -0.00000000000E+00 -0.78654322891E+02  0.78654322891E+02  0.00000000000E+00 0. -1.
         23    2    1    2    0    0 -0.84401339161E+02  0.10212869732E+02  0.10670512458E+02  0.11873389895E+03  0.82194830508E+02 0.  0.
          5    1    1    2  502    0  0.94892981837E+02  0.36136689911E+02  0.15941571165E+03  0.18905390734E+03  0.41800000000E+01 0. -1.
         -5    1    1    2    0  502 -0.10491642676E+02 -0.46349559643E+02  0.48232405934E+02  0.67839469539E+02  0.41800000000E+01 0. -1.
        -11    1    3    3    0    0 -0.15887879735E+02 -0.49559623284E+01 -0.32380975992E+02  0.36407607602E+02  0.00000000000E+00 0. -1.
         11    1    3    3    0    0 -0.68513459426E+02  0.15168832060E+02  0.43051488450E+02  0.82326291344E+02  0.00000000000E+00 0.  1.
</event>
<event>
 7    1  0.4274778E-006  0.9508647E+02  0.7561462E-02  0.1290981E+00
          1   -1    0    0  501    0  0.00000000000E+00  0.00000000000E+00  0.13144747445E+03  0.13144747445E+03  0.00000000000E+00 0. -1.
         -1   -1    0    0    0  501 -0.00000000000E+00 -0.00000000000E+00 -0.18783399654E+03  0.18783399654E+03  0.00000000000E+00 0.  1.
         23    2    1    2    0    0 -0.18080139847E+02  0.73169740254E+02  0.56680733647E+02  0.13459301246E+03  0.96030573725E+02 0.  0.
          5    1    1    2  502    0  0.25588579565E+02 -0.74914113971E+02 -0.13750790090E+03  0.15872238370E+03  0.41800000000E+01 0.  1.
         -5    1    1    2    0  502 -0.75084397181E+01  0.17443737167E+01  0.24440645160E+02  0.25966074838E+02  0.41800000000E+01 0.  1.
        -11    1    3    3    0    0  0.10193019397E+02 -0.10004115081E+02  0.43471485122E+02  0.45757512844E+02  0.00000000000E+00 0. -1.
         11    1    3    3    0    0 -0.28273159244E+02  0.83173855335E+02  0.13209248525E+02  0.88835499613E+02  0.00000000000E+00 0.  1.
</event>
<event>
 7    1  0.4274778E-006  0.1078593E+03  0.7561462E-02  0.1264586E+00
          1   -1    0    0  501    0  0.00000000000E+00  0.00000000000E+00  0.50405717932E+03  0.50405717932E+03  0.00000000000E+00 0. -1.
         -1   -1    0    0    0  501 -0.00000000000E+00 -0.00000000000E+00 -0.30102580756E+02  0.30102580756E+02  0.00000000000E+00 0.  1.
         23    2    1    2    0    0  0.95356328784E+01 -0.26224144155E+02  0.32103882987E+03  0.33463616576E+03  0.90204207869E+02 0.  0.
          5    1    1    2  502    0  0.40138540724E+02 -0.27644878836E+02  0.33264693095E+02  0.59155337748E+02  0.41800000000E+01 0. -1.
         -5    1    1    2    0  502 -0.49674173603E+02  0.53869022991E+02  0.11965107560E+03  0.14036825657E+03  0.41800000000E+01 0. -1.
        -11    1    3    3    0    0 -0.16200371569E+02  0.28584856078E+02  0.90558174185E+02  0.96334463966E+02  0.00000000000E+00 0. -1.
         11    1    3    3    0    0  0.25736004447E+02 -0.54809000232E+02  0.23048065568E+03  0.23830170179E+03  0.00000000000E+00 0.  1.
</event>
<event>
 7    1  0.4274778E-006  0.1009362E+03  0.7561462E-02  0.1278339E+00
          3   -1    0    0  501    0  0.00000000000E+00  0.00000000000E+00  0.76614852108E+02  0.76614852108E+02  0.00000000000E+00 0. -1.
         -3   -1    0    0    0  501 -0.00000000000E+00 -0.00000000000E+00 -0.17940698371E+03  0.17940698371E+03  0.00000000000E+00 0.  1.
         23    2    1    2    0    0  0.11036645129E+02 -0.40786958941E+02 -0.45537644333E+02  0.11211173748E+03  0.93327279370E+02 0.  0.
          5    1    1    2  502    0 -0.12924261011E+02  0.72820782036E+02  0.44758559806E+01  0.74211916198E+02  0.41800000000E+01 0. -1.
         -5    1    1    2    0  502  0.18876158826E+01 -0.32033823095E+02 -0.61730343253E+02  0.69698182143E+02  0.41800000000E+01 0. -1.
        -11    1    3    3    0    0  0.15264600179E+02  0.25119168849E+02  0.38516114132E+01  0.29644823709E+02  0.00000000000E+00 0. -1.
         11    1    3    3    0    0 -0.42279550498E+01 -0.65906127789E+02 -0.49389255747E+02  0.82466913773E+02  0.00000000000E+00 0.  1.
</event>
<event>
 7    1  0.4274778E-006  0.1081070E+03  0.7561462E-02  0.1264116E+00
         -2   -1    0    0    0  501 -0.00000000000E+00  0.00000000000E+00  0.21174792031E+02  0.21174792031E+02  0.00000000000E+00 0.  1.
          2   -1    0    0  501    0  0.00000000000E+00 -0.00000000000E+00 -0.95541289424E+03  0.95541289424E+03  0.00000000000E+00 0. -1.
         23    2    1    2    0    0  0.93440493142E+01  0.89636591838E+02 -0.32499722201E+03  0.34923546224E+03  0.90665229956E+02 0.  0.
          5    1    1    2  502    0 -0.17657961089E+02 -0.86073828687E+02 -0.20609048994E+03  0.22407871389E+03  0.41800000000E+01 0. -1.
         -5    1    1    2    0  502  0.83139117745E+01 -0.35627631506E+01 -0.40315039026E+03  0.40327351014E+03  0.41800000000E+01 0.  1.
        -11    1    3    3    0    0 -0.17375486588E+02  0.89899386141E+02 -0.18168338518E+03  0.20345186067E+03  0.00000000000E+00 0.  1.
         11    1    3    3    0    0  0.26719535902E+02 -0.26279430298E+00 -0.14331383683E+03  0.14578360157E+03  0.00000000000E+00 0. -1.
</event>
<event>
 7    1  0.4274778E-006  0.1759876E+03  0.7561462E-02  0.1171744E+00
          1   -1    0    0  501    0  0.00000000000E+00  0.00000000000E+00  0.20409167936E+03  0.20409167936E+03  0.00000000000E+00 0. -1.
         -1   -1    0    0    0  501 -0.00000000000E+00 -0.00000000000E+00 -0.17348128689E+03  0.17348128689E+03  0.00000000000E+00 0.  1.
         23    2    1    2    0    0 -0.12021679568E+03 -0.92101718376E+02  0.38124540871E+02  0.18098978996E+03  0.91482342348E+02 0.  0.
          5    1    1    2  502    0  0.10551667809E+03  0.35563906576E+01 -0.13557807799E+02  0.10652560172E+03  0.41800000000E+01 0. -1.
         -5    1    1    2    0  502  0.14700117592E+02  0.88545327719E+02  0.60436593986E+01  0.90057574567E+02  0.41800000000E+01 0. -1.
        -11    1    3    3    0    0 -0.51977971183E+02 -0.64536217847E+02  0.62138155860E+02  0.10357501299E+03  0.00000000000E+00 0. -1.
         11    1    3    3    0    0 -0.68238824499E+02 -0.27565500529E+02 -0.24013614990E+02  0.77414776970E+02  0.00000000000E+00 0.  1.
</event>
<event>
 7    1  0.4274778E-006  0.1511290E+03  0.7561462E-02  0.1199092E+00
         -2   -1    0    0    0  501 -0.00000000000E+00  0.00000000000E+00  0.29223968440E+02  0.29223968440E+02  0.00000000000E+00 0.  1.
          2   -1    0    0  501    0  0.00000000000E+00 -0.00000000000E+00 -0.10318512817E+04  0.10318512817E+04  0.00000000000E+00 0. -1.
         23    2    1    2    0    0 -0.65489982840E+01  0.13397132163E+03 -0.48559187922E+03  0.51247251231E+03  0.94007437573E+02 0.  0.
          5    1    1    2  502    0  0.37059687729E+02 -0.12948103512E+03 -0.48720100963E+03  0.50549090506E+03  0.41800000000E+01 0.  1.
         -5    1    1    2    0  502 -0.30510689445E+02 -0.44902865120E+01 -0.29834424368E+02  0.43111832722E+02  0.41800000000E+01 0.  1.
        -11    1    3    3    0    0 -0.15312215346E+02  0.60843986950E+02 -0.37089912668E+03  0.37616833580E+03  0.00000000000E+00 0. -1.
         11    1    3    3    0    0  0.87632170617E+01  0.73127334683E+02 -0.11469275254E+03  0.13630417652E+03  0.00000000000E+00 0.  1.
</event>
<event>
 7    1  0.4274778E-006  0.1926540E+03  0.7561462E-02  0.1156089E+00
         -2   -1    0    0    0  501 -0.00000000000E+00  0.00000000000E+00  0.16316093919E+03  0.16316093919E+03  0.00000000000E+00 0.  1.
          2   -1    0    0  501    0  0.00000000000E+00 -0.00000000000E+00 -0.27713839610E+03  0.27713839610E+03  0.00000000000E+00 0. -1.
         23    2    1    2    0    0  0.52231395307E+02  0.17292603611E+03 -0.95050835143E+02  0.21976310459E+03  0.81422529161E+02 0.  0.
          5    1    1    2  502    0  0.49753917100E+01 -0.79110682062E+02 -0.63732966362E+02  0.10179694465E+03  0.41800000000E+01 0.  1.
         -5    1    1    2    0  502 -0.57206787017E+02 -0.93815354051E+02  0.44806344588E+02  0.11873928605E+03  0.41800000000E+01 0.  1.
        -11    1    3    3    0    0  0.36416965336E+02  0.18704241247E+02 -0.71883318664E+01  0.41565804694E+02  0.00000000000E+00 0.  1.
         11    1    3    3    0    0  0.15814429972E+02  0.15422179487E+03 -0.87862503277E+02  0.17819729989E+03  0.00000000000E+00 0. -1.
</event>
<event>
 7    1  0.4274778E-006  0.2111128E+03  0.7561462E-02  0.1140688E+00
          2   -1    0    0  501    0  0.00000000000E+00  0.00000000000E+00  0.10891466532E+04  0.10891466532E+04  0.00000000000E+00 0. -1.
         -2   -1    0    0    0  501 -0.00000000000E+00 -0.00000000000E+00 -0.60020543427E+02  0.60020543427E+02  0.00000000000E+00 0.  1.
         23    2    1    2    0    0  0.15166505507E+03 -0.16267230932E+02  0.77692822385E+03  0.79751747393E+03  0.95654296652E+02 0.  0.
          5    1    1    2  502    0 -0.92166681368E+02 -0.85693229517E+02  0.14607292974E+03  0.19285434904E+03  0.41800000000E+01 0. -1.
         -5    1    1    2    0  502 -0.59498373701E+02  0.10196046045E+03  0.10612495613E+03  0.15879537362E+03  0.41800000000E+01 0.  1.
        -11    1    3    3    0    0  0.97317210594E+01 -0.33797120388E+02  0.11236581707E+03  0.11774136311E+03  0.00000000000E+00 0.  1.
         11    1    3    3    0    0  0.14193333401E+03  0.17529889456E+02  0.66456240679E+03  0.67977611082E+03  0.00000000000E+00 0. -1.
</event>
<event>
 7    1  0.4274778E-006  0.2292215E+03  0.7561462E-02  0.1127189E+00
          2   -1    0    0  501    0  0.00000000000E+00  0.00000000000E+00  0.36461840402E+03  0.36461840402E+03  0.00000000000E+00 0. -1.
         -2   -1    0    0    0  501 -0.00000000000E+00 -0.00000000000E+00 -0.19314789987E+03  0.19314789987E+03  0.00000000000E+00 0.  1.
         23    2    1    2    0    0 -0.59282906099E+02 -0.20995125945E+03  0.19117771701E+03  0.30552333198E+03  0.95924932137E+02 0.  0.
          5    1    1    2  502    0 -0.91637977630E+01  0.11077933832E+02  0.32251325851E+02  0.35557224675E+02  0.41800000000E+01 0. -1.
         -5    1    1    2    0  502  0.68446703862E+02  0.19887332561E+03 -0.51958538714E+02  0.21668574724E+03  0.41800000000E+01 0. -1.
        -11    1    3    3    0    0  0.16010688714E+01 -0.14145063506E+03  0.84061611306E+02  0.16455151192E+03  0.00000000000E+00 0. -1.
         11    1    3    3    0    0 -0.60883974970E+02 -0.68500624382E+02  0.10711610570E+03  0.14097182005E+03  0.00000000000E+00 0.  1.
</event>
<event>
 7    1  0.4274778E-006  0.1849514E+03  0.7561462E-02  0.1163095E+00
          2   -1    0    0  501    0  0.00000000000E+00  0.00000000000E+00  0.80706160412E+02  0.80706160412E+02  0.00000000000E+00 0. -1.
         -2   -1    0    0    0  501 -0.00000000000E+00 -0.00000000000E+00 -0.50809775016E+03  0.50809775016E+03  0.00000000000E+00 0.  1.
         23    2    1    2    0    0  0.16967811267E+03  0.16314177623E+02 -0.19437311059E+03  0.27416155686E+03  0.91251514111E+02 0.  0.
          5    1    1    2  502    0 -0.16239244435E+03 -0.50342493180E+01 -0.24643714030E+03  0.29520397383E+03  0.41800000000E+01 0.  1.
         -5    1    1    2    0  502 -0.72856683205E+01 -0.11279928305E+02  0.13418661147E+02  0.19438379881E+02  0.41800000000E+01 0.  1.
        -11    1    3    3    0    0  0.15333383168E+03 -0.18898231137E+02 -0.15737210136E+03  0.22053205065E+03  0.00000000000E+00 0.  1.
         11    1    3    3    0    0  0.16344280984E+02  0.35212408760E+02 -0.37001009231E+02  0.53629506204E+02  0.00000000000E+00 0. -1.
</event>
<event>
 7    1  0.4274778E-006  0.1058290E+03  0.7561462E-02  0.1268495E+00
          2   -1    0    0  501    0  0.00000000000E+00  0.00000000000E+00  0.19278355849E+03  0.19278355849E+03  0.00000000000E+00 0.  1.
         -2   -1    0    0    0  501 -0.00000000000E+00 -0.00000000000E+00 -0.96943052816E+02  0.96943052816E+02  0.00000000000E+00 0. -1.
         23    2    1    2    0    0  0.69718564422E+02  0.32241977833E+02  0.73704098530E+02  0.14128654239E+03  0.92894400052E+02 0.  0.
          5    1    1    2  502    0 -0.15187630658E+02 -0.33006432041E+02  0.67900577872E+02  0.77123599219E+02  0.41800000000E+01 0. -1.
         -5    1    1    2    0  502 -0.54530933763E+02  0.76445420802E+00 -0.45764170729E+02  0.71316469696E+02  0.41800000000E+01 0. -1.
        -11    1    3    3    0    0  0.43968156797E+02  0.65153205908E+02  0.44741675457E+02  0.90443112368E+02  0.00000000000E+00 0.  1.
         11    1    3    3    0    0  0.25750407624E+02 -0.32911228074E+02  0.28962423073E+02  0.50843430022E+02  0.00000000000E+00 0. -1.
</event>
<event>
 7    1  0.4274778E-006  0.2506726E+03  0.7561462E-02  0.1112880E+00
         -2   -1    0    0    0  501 -0.00000000000E+00  0.00000000000E+00  0.16964988845E+03  0.16964988845E+03  0.00000000000E+00 0.  1.
          2   -1    0    0  501    0  0.00000000000E+00 -0.00000000000E+00 -0.44870996612E+03  0.44870996612E+03  0.00000000000E+00 0. -1.
         23    2    1    2    0    0  0.23759129663E+03 -0.86716178182E+00 -0.23440053795E+03  0.34615557813E+03  0.91813375249E+02 0.  0.
          5    1    1    2  502    0 -0.16417644258E+03 -0.29944428764E+02  0.21870712825E+02  0.16836381319E+03  0.41800000000E+01 0. -1.
         -5    1    1    2    0  502 -0.73414854049E+02  0.30811590546E+02 -0.66530252545E+02  0.10384046326E+03  0.41800000000E+01 0. -1.
        -11    1    3    3    0    0  0.11010396188E+03 -0.46156273336E+02 -0.10698608021E+03  0.16031002884E+03  0.00000000000E+00 0.  1.
         11    1    3    3    0    0  0.12748733475E+03  0.45289111554E+02 -0.12741445774E+03  0.18584554928E+03  0.00000000000E+00 0. -1.
</event>
<event>
 7    1  0.4274778E-006  0.1034454E+03  0.7561462E-02  0.1273213E+00
         -1   -1    0    0    0  501 -0.00000000000E+00  0.00000000000E+00  0.11347090174E+04  0.11347090174E+04  0.00000000000E+00 0.  1.
          1   -1    0    0  501    0  0.00000000000E+00 -0.00000000000E+00 -0.15241826425E+03  0.15241826425E+03  0.00000000000E+00 0. -1.
         23    2    1    2    0    0 -0.64645913047E+01 -0.90746848456E+02 -0.11829986662E+03  0.17456608124E+03  0.90563109673E+02 0.  0.
          5    1    1    2  502    0 -0.33016113056E+01  0.23047684933E+02  0.23675150363E+02  0.33467619615E+02  0.41800000000E+01 0. -1.
         -5    1    1    2    0  502  0.97662026103E+01  0.67699163522E+02  0.10769154694E+04  0.10790935808E+04  0.41800000000E+01 0.  1.
        -11    1    3    3    0    0  0.29800311408E+02 -0.22204090291E+02 -0.53308741742E+01  0.37543287085E+02  0.00000000000E+00 0.  1.
         11    1    3    3    0    0 -0.36264902713E+02 -0.68542758164E+02 -0.11296899244E+03  0.13702279416E+03  0.00000000000E+00 0. -1.
</event>
<event>
 7    1  0.4274778E-006  0.1559517E+03  0.7561462E-02  0.1193345E+00
          2   -1    0    0  501    0  0.00000000000E+00  0.00000000000E+00  0.12976791316E+03  0.12976791316E+03  0.00000000000E+00 0.  1.
         -2   -1    0    0    0  501 -0.00000000000E+00 -0.00000000000E+00 -0.25171862440E+03  0.25171862440E+03  0.00000000000E+00 0. -1.
         23    2    1    2    0    0  0.11231452507E+03  0.88994635426E+02 -0.79192121543E+02  0.18652399856E+03  0.89360014822E+02 0.  0.
          5    1    1    2  502    0 -0.75275413737E+02 -0.61291658961E+02  0.35928597590E+02  0.10359243166E+03  0.41800000000E+01 0.  1.
         -5    1    1    2    0  502 -0.37039111333E+02 -0.27702976465E+02 -0.78687187285E+02  0.91370107344E+02  0.41800000000E+01 0.  1.
        -11    1    3    3    0    0  0.52074463485E+02 -0.94124546318E+01 -0.17834272080E+02  0.55842683585E+02  0.00000000000E+00 0.  1.
         11    1    3    3    0    0  0.60240061586E+02  0.98407090058E+02 -0.61357849463E+02  0.13068131498E+03  0.00000000000E+00 0. -1.
</event>
<event>
 7    1  0.4274778E-006  0.2190543E+03  0.7561462E-02  0.1134590E+00
         -2   -1    0    0    0  501 -0.00000000000E+00  0.00000000000E+00  0.72305172287E+02  0.72305172287E+02  0.00000000000E+00 0.  1.
          2   -1    0    0  501    0  0.00000000000E+00 -0.00000000000E+00 -0.81602144212E+03  0.81602144212E+03  0.00000000000E+00 0. -1.
         23    2    1    2    0    0  0.46874331098E+02  0.18706576495E+03 -0.54567593220E+03  0.58491506443E+03  0.84691240863E+02 0.  0.
          5    1    1    2  502    0 -0.45649016091E+02 -0.35748895754E+01 -0.33196715815E+02  0.56710729553E+02  0.41800000000E+01 0.  1.
         -5    1    1    2    0  502 -0.12253150065E+01 -0.18349087538E+03 -0.16484362182E+03  0.24670082042E+03  0.41800000000E+01 0.  1.
        -11    1    3    3    0    0  0.61885693164E+02  0.18278491074E+03 -0.47847302805E+03  0.51592305743E+03  0.00000000000E+00 0.  1.
         11    1    3    3    0    0 -0.15011362066E+02  0.42808542123E+01 -0.67202904151E+02  0.68992007003E+02  0.00000000000E+00 0. -1.
</event>
<event>
 7    1  0.4274778E-006  0.7946342E+02  0.7561462E-02  0.1330581E+00
         -4   -1    0    0    0  501 -0.00000000000E+00  0.00000000000E+00  0.13711172425E+03  0.13711172425E+03  0.00000000000E+00 0.  1.
          4   -1    0    0  501    0  0.00000000000E+00 -0.00000000000E+00 -0.90196495368E+02  0.90196495368E+02  0.00000000000E+00 0. -1.
         23    2    1    2    0    0  0.37137443130E+01  0.34120821446E+01 -0.57693026000E+01  0.92010554340E+02  0.91690910433E+02 0.  0.
          5    1    1    2  502    0  0.38738574149E+02 -0.33168924373E+02 -0.11739650722E+02  0.52499013993E+02  0.41800000000E+01 0. -1.
         -5    1    1    2    0  502 -0.42452318462E+02  0.29756842228E+02  0.64424182205E+02  0.82798651287E+02  0.41800000000E+01 0. -1.
        -11    1    3    3    0    0  0.15949950471E+01 -0.26104779382E+02 -0.39351686920E+02  0.47249960627E+02  0.00000000000E+00 0. -1.
         11    1    3    3    0    0  0.21187492659E+01  0.29516861527E+02  0.33582384320E+02  0.44760593713E+02  0.00000000000E+00 0.  1.
</event>
<event>
 6    1  0.4274778E-006  0.1233362E+03  0.7561462E-02  0.1237693E+00
          2   -1    0    0  501    0  0.00000000000E+00  0.00000000000E+00  0.10837497976E+03  0.10837497976E+03  0.00000000000E+00 0. -1.
         -2   -1    0    0    0  501 -0.00000000000E+00 -0.00000000000E+00 -0.13183391303E+04  0.13183391303E+04  0.00000000000E+00 0.  1.
          5    1    1    2  502    0 -0.11677536828E+02  0.10228631227E+03 -0.19952074487E+03  0.22455479193E+03  0.41800000000E+01 0. -1.
         -5    1    1    2    0  502 -0.24554660013E+02 -0.99285115618E+02 -0.10990681879E+04  0.11038246326E+04  0.41800000000E+01 0.  1.
        -11    1    1    2    0    0  0.15327546793E+02 -0.11027681117E+02  0.52932388411E+02  0.56199476727E+02  0.00000000000E+00 0.  1.
         11    1    1    2    0    0  0.20904650048E+02  0.80264844651E+01  0.35692393797E+02  0.42135208810E+02  0.00000000000E+00 0. -1.
</event>
<event>
 7    1  0.4274778E-006  0.1018805E+03  0.7561462E-02  0.1276390E+00
         -2   -1    0    0    0  501 -0.00000000000E+00  0.00000000000E+00  0.36738818267E+02  0.36738818267E+02  0.00000000000E+00 0.  1.
          2   -1    0    0  501    0  0.00000000000E+00 -0.00000000000E+00 -0.45622122554E+03  0.45622122554E+03  0.00000000000E+00 0. -1.
         23    2    1    2    0    0 -0.11223785401E+02 -0.10980486791E+02 -0.31745483346E+03  0.33077263484E+03  0.91577400170E+02 0.  0.
          5    1    1    2  502    0 -0.51820184850E+02 -0.16803624183E+01 -0.77291378932E+02  0.93164289472E+02  0.41800000000E+01 0. -1.
         -5    1    1    2    0  502  0.63043970250E+02  0.12660849210E+02 -0.24736194879E+02  0.69023119495E+02  0.41800000000E+01 0. -1.
        -11    1    3    3    0    0 -0.28992623559E+02 -0.42309321149E+02 -0.23905667076E+03  0.24449691759E+03  0.00000000000E+00 0. -1.
         11    1    3    3    0    0  0.17768838158E+02  0.31328834358E+02 -0.78398162702E+02  0.86275717249E+02  0.00000000000E+00 0.  1.
</event>
<event>
 7    1  0.4274778E-006  0.9063998E+02  0.7561462E-02  0.1301309E+00
         -3   -1    0    0    0  501 -0.00000000000E+00  0.00000000000E+00  0.81397788089E+02  0.81397788089E+02  0.00000000000E+00 0.  1.
          3   -1    0    0  501    0  0.00000000000E+00 -0.00000000000E+00 -0.17109665820E+03  0.17109665820E+03  0.00000000000E+00 0. -1.
         23    2    1    2    0    0 -0.29563121389E+02  0.35773876161E+02 -0.41037860110E+02  0.11048336475E+03  0.91480705962E+02 0.  0.
          5    1    1    2  502    0  0.91949398171E+01 -0.82032172360E+02 -0.28348818825E+02  0.87378213241E+02  0.41800000000E+01 0. -1.
         -5    1    1    2    0  502  0.20368181572E+02  0.46258296200E+02 -0.20312191180E+02  0.54632868297E+02  0.41800000000E+01 0. -1.
        -11    1    3    3    0    0 -0.14853780762E+02  0.90119039619E+01 -0.67730900360E+02  0.69923701843E+02  0.00000000000E+00 0. -1.
         11    1    3    3    0    0 -0.14709340627E+02  0.26761972199E+02  0.26693040250E+02  0.40559662911E+02  0.00000000000E+00 0.  1.
</event>
<event>
 7    1  0.4274778E-006  0.1261184E+03  0.7561462E-02  0.1233332E+00
          1   -1    0    0  501    0  0.00000000000E+00  0.00000000000E+00  0.57921202290E+02  0.57921202290E+02  0.00000000000E+00 0. -1.
         -1   -1    0    0    0  501 -0.00000000000E+00 -0.00000000000E+00 -0.36479592792E+03  0.36479592792E+03  0.00000000000E+00 0.  1.
         23    2    1    2    0    0  0.75569717549E+02  0.55855636376E+02 -0.10350792209E+03  0.16613128467E+03  0.89750094631E+02 0.  0.
          5    1    1    2  502    0 -0.90988522453E+02 -0.68520643551E+02 -0.10125853891E+03  0.15246230325E+03  0.41800000000E+01 0.  1.
         -5    1    1    2    0  502  0.15418804904E+02  0.12665007175E+02 -0.10210826464E+03  0.10412354229E+03  0.41800000000E+01 0.  1.
        -11    1    3    3    0    0  0.56244907881E+02  0.72918645819E+02 -0.45637375691E+02  0.10277834709E+03  0.00000000000E+00 0. -1.
         11    1    3    3    0    0  0.19324809668E+02 -0.17063009443E+02 -0.57870546396E+02  0.63352937581E+02  0.00000000000E+00 0.  1.
</event>
<event>
 7    1  0.4274778E-006  0.1807026E+03  0.7561462E-02  0.1167125E+00
         -2   -1    0    0    0  501 -0.00000000000E+00  0.00000000000E+00  0.17188857393E+03  0.17188857393E+03  0.00000000000E+00 0.  1.
          2   -1    0    0  501    0  0.00000000000E+00 -0.00000000000E+00 -0.35874494991E+03  0.35874494991E+03  0.00000000000E+00 0. -1.
         23    2    1    2    0    0  0.95012657737E+02 -0.13381240362E+03 -0.25186472344E+03  0.31428333043E+03  0.91678832787E+02 0.  0.
          5    1    1    2  502    0 -0.76529701271E+02  0.24308673939E+02 -0.11787718119E+02  0.81265795411E+02  0.41800000000E+01 0.  1.
         -5    1    1    2    0  502 -0.18482956465E+02  0.10950372968E+03  0.76796065582E+02  0.13508439800E+03  0.41800000000E+01 0.  1.
        -11    1    3    3    0    0  0.43685843121E+02 -0.97958087629E+02 -0.21834151480E+03  0.24326375995E+03  0.00000000000E+00 0. -1.
         11    1    3    3    0    0  0.51326814616E+02 -0.35854315986E+02 -0.33523208644E+02  0.71019570481E+02  0.00000000000E+00 0.  1.
</event>
<event>
 7    1  0.4274778E-006  0.9646493E+02  0.7561462E-02  0.1287910E+00
         -2   -1    0    0    0  501 -0.00000000000E+00  0.00000000000E+00  0.73809426454E+02  0.73809426454E+02  0.00000000000E+00 0.  1.
          2   -1    0    0  501    0  0.00000000000E+00 -0.00000000000E+00 -0.18922415485E+03  0.18922415485E+03  0.00000000000E+00 0. -1.
         23    2    1    2    0    0  0.41523383901E+02 -0.13638924582E+02 -0.71253486125E+02  0.12335608566E+03  0.90716332104E+02 0.  0.
          5    1    1    2  502    0  0.15026291584E+02 -0.35914670784E+02 -0.50733386618E+02  0.64085894970E+02  0.41800000000E+01 0. -1.
         -5    1    1    2    0  502 -0.56549675486E+02  0.49553595366E+02  0.65721443459E+01  0.75591600674E+02  0.41800000000E+01 0. -1.
        -11    1    3    3    0    0  0.49827470290E+02  0.12224821400E+02 -0.47570494380E+01  0.51525261505E+02  0.00000000000E+00 0.  1.
         11    1    3    3    0    0 -0.83040863889E+01 -0.25863745982E+02 -0.66496436687E+02  0.71830824157E+02  0.00000000000E+00 0. -1.
</event>
<event>
 7    1  0.4274778E-006  0.1218136E+03  0.7561462E-02  0.1240135E+00
         -2   -1    0    0    0  501 -0.00000000000E+00  0.00000000000E+00  0.18416826018E+03  0.18416826018E+03  0.00000000000E+00 0.  1.
          2   -1    0    0  501    0  0.00000000000E+00 -0.00000000000E+00 -0.10735754240E+03  0.10735754240E+03  0.00000000000E+00 0. -1.
         23    2    1    2    0    0  0.21047143906E+02  0.58593043157E+02 -0.37848281006E+02  0.11077788492E+03  0.83445314070E+02 0.  0.
          5    1    1    2  502    0 -0.93544438786E+00 -0.96473553504E+02  0.76715044924E+02  0.12333163463E+03  0.41800000000E+01 0. -1.
         -5    1    1    2    0  502 -0.20111699519E+02  0.37880510348E+02  0.37943953862E+02  0.57416283025E+02  0.41800000000E+01 0. -1.
        -11    1    3    3    0    0  0.32668096032E+02  0.76179113195E+02 -0.32492150140E+02  0.89029217711E+02  0.00000000000E+00 0.  1.
         11    1    3    3    0    0 -0.11620952126E+02 -0.17586070038E+02 -0.53561308660E+01  0.21748667213E+02  0.00000000000E+00 0. -1.
</event>
<event>
 7    1  0.4274778E-006  0.6733740E+02  0.7561462E-02  0.1369389E+00
          1   -1    0    0  501    0  0.00000000000E+00  0.00000000000E+00  0.27547415687E+02  0.27547415687E+02  0.00000000000E+00 0. -1.
         -1   -1    0    0    0  501 -0.00000000000E+00 -0.00000000000E+00 -0.43393451178E+03  0.43393451178E+03  0.00000000000E+00 0.  1.
         23    2    1    2    0    0  0.10183955127E+02  0.13470580582E+02 -0.15774025287E+03  0.18263025140E+03  0.90480118624E+02 0.  0.
          5    1    1    2  502    0  0.17899383548E+02  0.96031530412E+01 -0.24047046301E+03  0.24136305529E+03  0.41800000000E+01 0.  1.
         -5    1    1    2    0  502 -0.28083338674E+02 -0.23073733623E+02 -0.81763802110E+01  0.37488620777E+02  0.41800000000E+01 0.  1.
        -11    1    3    3    0    0  0.66102498337E+01 -0.31526235777E+02 -0.20558851367E+02  0.38213417993E+02  0.00000000000E+00 0. -1.
         11    1    3    3    0    0  0.35737052931E+01  0.44996816359E+02 -0.13718140150E+03  0.14441683340E+03  0.00000000000E+00 0.  1.
</event>
<event>
 7    1  0.4274778E-006  0.9795175E+02  0.7561462E-02  0.1284663E+00
         -1   -1    0    0    0  501 -0.00000000000E+00  0.00000000000E+00  0.30196210102E+02  0.30196210102E+02  0.00000000000E+00 0.  1.
          1   -1    0    0  501    0  0.00000000000E+00 -0.00000000000E+00 -0.57378164618E+03  0.57378164618E+03  0.00000000000E+00 0. -1.
         23    2    1    2    0    0 -0.53011323642E+02 -0.48475416998E+02 -0.28945931464E+03  0.31176602893E+03  0.90836641715E+02 0.  0.
          5    1    1    2  502    0  0.17340753384E+02 -0.24642378647E+01  0.10160209399E+02  0.20675503651E+02  0.41800000000E+01 0.  1.
         -5    1    1    2    0  502  0.35670570258E+02  0.50939654862E+02 -0.26428633084E+03  0.27153632370E+03  0.41800000000E+01 0.  1.
        -11    1    3    3    0    0 -0.55854328163E+02 -0.72419747167E+02 -0.23684954456E+03  0.25389374256E+03  0.00000000000E+00 0.  1.
         11    1    3    3    0    0  0.28430045208E+01  0.23944330169E+02 -0.52609770080E+02  0.57872286371E+02  0.00000000000E+00 0. -1.
</event>
<event>
 7    1  0.4274778E-006  0.1069939E+03  0.7561462E-02  0.1266240E+00
         -1   -1    0    0    0  501 -0.00000000000E+00  0.00000000000E+00  0.36750178640E+03  0.36750178640E+03  0.00000000000E+00 0.  1.
          1   -1    0    0  501    0  0.00000000000E+00 -0.00000000000E+00 -0.68682541615E+02  0.68682541615E+02  0.00000000000E+00 0. -1.
         23    2    1    2    0    0  0.87702423019E+02 -0.12537972723E+02  0.35952435253E+02  0.13188628736E+03  0.90843268484E+02 0.  0.
          5    1    1    2  502    0 -0.69474548219E+02 -0.40993438064E+01  0.26952532275E+03  0.27839699976E+03  0.41800000000E+01 0. -1.
         -5    1    1    2    0  502 -0.18227874800E+02  0.16637316529E+02 -0.66585132255E+01  0.25901040894E+02  0.41800000000E+01 0. -1.
        -11    1    3    3    0    0  0.49650733715E+02  0.33208634439E+02  0.40564020977E+02  0.72204214265E+02  0.00000000000E+00 0.  1.
         11    1    3    3    0    0  0.38051689304E+02 -0.45746607162E+02 -0.46115857242E+01  0.59682073093E+02  0.00000000000E+00 0. -1.
</event>
<event>
 7    1  0.4274778E-006  0.1223948E+03  0.7561462E-02  0.1239198E+00
         -1   -1    0    0    0  501 -0.00000000000E+00  0.00000000000E+00  0.27160439560E+02  0.27160439560E+02  0.00000000000E+00 0.  1.
          1   -1    0    0  501    0  0.00000000000E+00 -0.00000000000E+00 -0.64371247957E+03  0.64371247957E+03  0.00000000000E+00 0. -1.
         23    2    1    2    0    0  0.53115168787E+02  0.41559311489E+02 -0.36327859160E+03  0.38045237324E+03  0.90687792270E+02 0.  0.
          5    1    1    2  502    0 -0.13092341640E+02  0.39283814766E+02 -0.35632585762E+02  0.54788512302E+02  0.41800000000E+01 0. -1.
         -5    1    1    2    0  502 -0.40022827146E+02 -0.80843126255E+02 -0.21764086265E+03  0.23563203358E+03  0.41800000000E+01 0. -1.
        -11    1    3    3    0    0  0.63511682014E+02  0.62737961599E+02 -0.27909508259E+03  0.29302534141E+03  0.00000000000E+00 0.  1.
         11    1    3    3    0    0 -0.10396513228E+02 -0.21178650110E+02 -0.84183509003E+02  0.87427031837E+02  0.00000000000E+00 0. -1.
</event>
<event>
 7    1  0.4274778E-006  0.1331621E+03  0.7561462E-02  0.1222838E+00
         -1   -1    0    0    0  501 -0.00000000000E+00  0.00000000000E+00  0.41779233811E+03  0.41779233811E+03  0.00000000000E+00 0.  1.
          1   -1    0    0  501    0  0.00000000000E+00 -0.00000000000E+00 -0.11196321096E+03  0.11196321096E+03  0.00000000000E+00 0. -1.
         23    2    1    2    0    0  0.94664870645E+02  0.59869859777E+02 -0.38229143158E+02  0.15036156122E+03  0.92743160722E+02 0.  0.
          5    1    1    2  502    0  0.23211669243E+02 -0.45794822971E+01  0.98891275812E+02  0.10176792264E+03  0.41800000000E+01 0. -1.
         -5    1    1    2    0  502 -0.11787653989E+03 -0.55290377480E+02  0.24516699449E+03  0.27762606522E+03  0.41800000000E+01 0.  1.
        -11    1    3    3    0    0  0.71657380487E+02  0.46486541710E+02  0.18770571627E+02  0.87453491055E+02  0.00000000000E+00 0.  1.
         11    1    3    3    0    0  0.23007490158E+02  0.13383318067E+02 -0.56999714785E+02  0.62908070161E+02  0.00000000000E+00 0. -1.
</event>
<event>
 6    1  0.4274778E-006  0.1792249E+03  0.7561462E-02  0.1168555E+00
          1   -1    0    0  501    0  0.00000000000E+00  0.00000000000E+00  0.11066943356E+03  0.11066943356E+03  0.00000000000E+00 0. -1.
         -1   -1    0    0    0  501 -0.00000000000E+00 -0.00000000000E+00 -0.32375511282E+03  0.32375511282E+03  0.00000000000E+00 0.  1.
          5    1    1    2  502    0 -0.50640152076E+02 -0.14756304083E+02 -0.57623442483E+02  0.78231112967E+02  0.41800000000E+01 0.  1.
         -5    1    1    2    0  502 -0.42836453391E+02  0.13967142636E+03 -0.11584560975E+03  0.18649596987E+03  0.41800000000E+01 0.  1.
        -11    1    1    2    0    0  0.75753596795E+02 -0.75773982427E+02 -0.46884397276E+02  0.11695490818E+03  0.00000000000E+00 0.  1.
         11    1    1    2    0    0  0.17723008672E+02 -0.49141139849E+02  0.72677702502E+01  0.52742555365E+02  0.00000000000E+00 0. -1.
</event>
<event>
 7    1  0.4274778E-006  0.9877815E+02  0.7561462E-02  0.1282886E+00
         -2   -1    0    0    0  501 -0.00000000000E+00  0.00000000000E+00  0.46870471147E+02  0.46870471147E+02  0.00000000000E+00 0.  1.
          2   -1    0    0  501    0  0.00000000000E+00 -0.00000000000E+00 -0.38941181571E+03  0.38941181571E+03  0.00000000000E+00 0. -1.
         23    2    1    2    0    0 -0.66973469723E+01 -0.44530243643E+02 -0.26198350714E+03  0.28084031225E+03  0.90598708153E+02 0.  0.
          5    1    1    2  502    0  0.48898159772E+02 -0.22045516330E+02 -0.28459079788E+02  0.60863999554E+02  0.41800000000E+01 0. -1.
         -5    1    1    2    0  502 -0.42200812799E+02  0.66575759973E+02 -0.52098757635E+02  0.94577975047E+02  0.41800000000E+01 0. -1.
        -11    1    3    3    0    0 -0.23929708028E+02 -0.40628988561E+02 -0.25858383773E+03  0.26284776350E+03  0.00000000000E+00 0. -1.
         11    1    3    3    0    0  0.17232361055E+02 -0.39012550826E+01 -0.33996694055E+01  0.17992548759E+02  0.00000000000E+00 0.  1.
</event>
<event>
 7    1  0.4274778E-006  0.1233344E+03  0.7561462E-02  0.1237696E+00
          1   -1    0    0  501    0  0.00000000000E+00  0.00000000000E+00  0.17142537750E+03  0.17142537750E+03  0.00000000000E+00 0. -1.
         -1   -1    0    0    0  501 -0.00000000000E+00 -0.00000000000E+00 -0.12224555388E+03  0.12224555388E+03  0.00000000000E+00 0.  1.
         23    2    1    2    0    0  0.10081718182E+02 -0.72362200186E+02  0.90454947315E+02  0.14967335837E+03  0.94244828268E+02 0.  0.
          5    1    1    2  502    0 -0.38548968725E+02 -0.10114347530E+02  0.11815431001E+02  0.41777982544E+02  0.41800000000E+01 0. -1.
         -5    1    1    2    0  502  0.28467250544E+02  0.82476547716E+02 -0.53090554701E+02  0.10221959047E+03  0.41800000000E+01 0.  1.
        -11    1    3    3    0    0 -0.41670578905E+02 -0.42381869207E+02  0.45570052360E+02  0.74895191140E+02  0.00000000000E+00 0.  1.
         11    1    3    3    0    0  0.51752297087E+02 -0.29980330979E+02  0.44884894955E+02  0.74778167231E+02  0.00000000000E+00 0. -1.
</event>
<event>
 7    1  0.4274778E-006  0.1087572E+03  0.7561462E-02  0.1262889E+00
          2   -1    0    0  501    0  0.00000000000E+00  0.00000000000E+00  0.13332329614E+03  0.13332329614E+03  0.00000000000E+00 0. -1.
         -2   -1    0    0    0  501 -0.00000000000E+00 -0.00000000000E+00 -0.14901947877E+03  0.14901947877E+03  0.00000000000E+00 0.  1.
         23    2    1    2    0    0 -0.53152997087E+01  0.91620656481E+02  0.59689236734E+01  0.12569520393E+03  0.85679980949E+02 0.  0.
          5    1    1    2  502    0 -0.49080337295E+01 -0.10690109003E+02  0.47812134566E+02  0.49414975841E+02  0.41800000000E+01 0.  1.
         -5    1    1    2    0  502  0.10223333438E+02 -0.80930547478E+02 -0.69477240873E+02  0.10723259514E+03  0.41800000000E+01 0.  1.
        -11    1    3    3    0    0  0.36347933870E+02  0.22819559608E+02  0.13295137764E+02  0.44929559151E+02  0.00000000000E+00 0. -1.
         11    1    3    3    0    0 -0.41663233579E+02  0.68801096873E+02 -0.73262140907E+01  0.80765644776E+02  0.00000000000E+00 0.  1.
</event>
<event>
 7    1  0.4274778E-006  0.1053217E+03  0.7561462E-02  0.1269487E+00
          2   -1    0    0  501    0  0.00000000000E+00  0.00000000000E+00  0.54472692432E+03  0.54472692432E+03  0.00000000000E+00 0. -1.
         -2   -1    0    0    0  501 -0.00000000000E+00 -0.00000000000E+00 -0.46255985652E+02  0.46255985652E+02  0.00000000000E+00 0.  1.
         23    2    1    2    0    0 -0.21399562783E+02 -0.42484486894E+02  0.33757577223E+03  0.35309360139E+03  0.91950075757E+02 0.  0.
          5    1    1    2  502    0  0.65389446686E+02  0.43212314043E+02  0.17475569141E+03  0.19157272223E+03  0.41800000000E+01 0. -1.
         -5    1    1    2    0  502 -0.43989883903E+02 -0.72782714910E+00 -0.13860524978E+02  0.46316586346E+02  0.41800000000E+01 0.  1.
        -11    1    3    3    0    0 -0.43561924686E+02 -0.42525467674E+01  0.26130665619E+03  0.26494696451E+03  0.00000000000E+00 0.  1.
         11    1    3    3    0    0  0.22162361902E+02 -0.38231940126E+02  0.76269116044E+02  0.88146636879E+02  0.00000000000E+00 0. -1.
</event>
<event>
 7    1  0.4274778E-006  0.1230531E+03  0.7561462E-02  0.1238144E+00
          4   -1    0    0  501    0  0.00000000000E+00  0.00000000000E+00  0.16471441118E+03  0.16471441118E+03  0.00000000000E+00 0. -1.
         -4   -1    0    0    0  501 -0.00000000000E+00 -0.00000000000E+00 -0.14446972418E+03  0.14446972418E+03  0.00000000000E+00 0.  1.
         23    2    1    2    0    0  0.76115674900E+02  0.50873748480E+02  0.73850884734E+02  0.14517867599E+03  0.85095008884E+02 0.  0.
          5    1    1    2  502    0 -0.14280072741E+02 -0.63574544152E+02 -0.72899324285E+02  0.97864329676E+02  0.41800000000E+01 0.  1.
         -5    1    1    2    0  502 -0.61835602160E+02  0.12700795672E+02  0.19293126555E+02  0.66141129696E+02  0.41800000000E+01 0.  1.
        -11    1    3    3    0    0  0.12641766216E+02 -0.19208299743E+02  0.37274684839E+02  0.43796976630E+02  0.00000000000E+00 0. -1.
         11    1    3    3    0    0  0.63473908684E+02  0.70082048223E+02  0.36576199896E+02  0.10138169936E+03  0.00000000000E+00 0.  1.
</event>
<event>
 7    1  0.4274778E-006  0.1495553E+03  0.7561462E-02  0.1201021E+00
         -1   -1    0    0    0  501 -0.00000000000E+00  0.00000000000E+00  0.60735312895E+02  0.60735312895E+02  0.00000000000E+00 0.  1.
          1   -1    0    0  501    0  0.00000000000E+00 -0.00000000000E+00 -0.54607311765E+03  0.54607311765E+03  0.00000000000E+00 0. -1.
         23    2    1    2    0    0  0.24552065529E+02  0.13148222863E+03 -0.32641437899E+03  0.36433013404E+03  0.91102795752E+02 0.  0.
          5    1    1    2  502    0  0.17000591394E+02 -0.91078657760E+01 -0.97226388565E+02  0.99208953024E+02  0.41800000000E+01 0.  1.
         -5    1    1    2    0  502 -0.41552656923E+02 -0.12237436285E+03 -0.61697037200E+02  0.14326934348E+03  0.41800000000E+01 0.  1.
        -11    1    3    3    0    0 -0.23406666809E+02  0.32147818824E+02 -0.15859904021E+03  0.16350843972E+03  0.00000000000E+00 0. -1.
         11    1    3    3    0    0  0.47958732339E+02  0.99334409806E+02 -0.16781533879E+03  0.20082169432E+03  0.00000000000E+00 0.  1.
</event>
<event>
 7    1  0.4274778E-006  0.1284531E+03  0.7561462E-02  0.1229769E+00
          1   -1    0    0  501    0  0.00000000000E+00  0.00000000000E+00  0.74869554326E+02  0.74869554326E+02  0.00000000000E+00 0. -1.
         -1   -1    0    0    0  501 -0.00000000000E+00 -0.00000000000E+00 -0.22415812588E+03  0.22415812588E+03  0.00000000000E+00 0.  1.
         23    2    1    2    0    0  0.12022901513E+02 -0.68894564052E+02 -0.55297109599E+02  0.12764305717E+03  0.91345326082E+02 0.  0.
          5    1    1    2  502    0 -0.50127075010E+02 -0.13791566303E+02 -0.35405160913E+02  0.63039105081E+02  0.41800000000E+01 0. -1.
         -5    1    1    2    0  502  0.38104173497E+02  0.82686130355E+02 -0.58586301043E+02  0.10834551795E+03  0.41800000000E+01 0. -1.
        -11    1    3    3    0    0  0.51135718337E+02 -0.41506629506E+02 -0.41867566202E+02  0.78042008447E+02  0.00000000000E+00 0.  1.
         11    1    3    3    0    0 -0.39112816824E+02 -0.27387934546E+02 -0.13429543397E+02  0.49601048723E+02  0.00000000000E+00 0. -1.
</event>
<event>
 7    1  0.4274778E-006  0.1263337E+03  0.7561462E-02  0.1233000E+00
          1   -1    0    0  501    0  0.00000000000E+00  0.00000000000E+00  0.40712743784E+03  0.40712743784E+03  0.00000000000E+00 0. -1.
         -1   -1    0    0    0  501 -0.00000000000E+00 -0.00000000000E+00 -0.72107830592E+02  0.72107830592E+02  0.00000000000E+00 0.  1.
         23    2    1    2    0    0  0.73103756824E+01  0.11594749499E+03  0.24465783846E+03  0.28607787731E+03  0.92118569137E+02 0.  0.
          5    1    1    2  502    0  0.67001540923E+01 -0.11297066353E+03  0.11687087700E+03  0.16273763293E+03  0.41800000000E+01 0.  1.
         -5    1    1    2    0  502 -0.14010529775E+02 -0.29768314673E+01 -0.26509108209E+02  0.30419758187E+02  0.41800000000E+01 0.  1.
        -11    1    3    3    0    0 -0.18807183556E+02  0.57096601768E+02  0.41725159733E+02  0.73175959450E+02  0.00000000000E+00 0.  1.
         11    1    3    3    0    0  0.26117559238E+02  0.58850893226E+02  0.20293267873E+03  0.21290191786E+03  0.00000000000E+00 0. -1.
</event>
<event>
 7    1  0.4274778E-006  0.9477066E+02  0.7561462E-02  0.1291693E+00
          2   -1    0    0  501    0  0.00000000000E+00  0.00000000000E+00  0.27003541624E+02  0.27003541624E+02  0.00000000000E+00 0. -1.
         -2   -1    0    0    0  501 -0.00000000000E+00 -0.00000000000E+00 -0.53217175323E+03  0.53217175323E+03  0.00000000000E+00 0.  1.
         23    2    1    2    0    0 -0.36627577667E+02  0.20177220875E+02 -0.15502185879E+03  0.18501215406E+03  0.91918555030E+02 0.  0.
          5    1    1    2  502    0  0.51547901071E+02 -0.41192040402E+02 -0.33964558896E+03  0.34602105253E+03  0.41800000000E+01 0.  1.
         -5    1    1    2    0  502 -0.14920323405E+02  0.21014819527E+02 -0.10500763862E+02  0.28142088266E+02  0.41800000000E+01 0.  1.
        -11    1    3    3    0    0 -0.20252842512E+02  0.55121400548E+02 -0.68190824202E+02  0.89991860374E+02  0.00000000000E+00 0.  1.
         11    1    3    3    0    0 -0.16374735155E+02 -0.34944179673E+02 -0.86831034584E+02  0.95020293682E+02  0.00000000000E+00 0. -1.
</event>
<event>
 7    1  0.4274778E-006  0.1082651E+03  0.7561462E-02  0.1263817E+00
         -1   -1    0    0    0  501 -0.00000000000E+00  0.00000000000E+00  0.18071491184E+02  0.18071491184E+02  0.00000000000E+00 0.  1.
          1   -1    0    0  501    0  0.00000000000E+00 -0.00000000000E+00 -0.92262011644E+03  0.92262011644E+03  0.00000000000E+00 0. -1.
         23    2    1    2    0    0 -0.49779131532E+02  0.48559263652E+02 -0.44490224357E+03  0.45927959134E+03  0.90353597967E+02 0.  0.
          5    1    1    2  502    0  0.29416405786E+02  0.31852288780E+02 -0.65854490041E+02  0.78956820405E+02  0.41800000000E+01 0.  1.
         -5    1    1    2    0  502  0.20362725746E+02 -0.80411552432E+02 -0.39379189164E+03  0.40245519587E+03  0.41800000000E+01 0.  1.
        -11    1    3    3    0    0  0.66333603927E+00 -0.11480467202E+02 -0.51669685895E+01  0.12607089525E+02  0.00000000000E+00 0.  1.
         11    1    3    3    0    0 -0.50442467571E+02  0.60039730854E+02 -0.43973527498E+03  0.44667250182E+03  0.00000000000E+00 0. -1.
</event>
<event>
 6    1  0.1464908E-005  0.1020374E+03  0.7561462E-02  0.1276069E+00
         -2   -1    0    0    0  501 -0.00000000000E+00  0.00000000000E+00  0.15674561065E+02  0.15674561065E+02  0.00000000000E+00 0.  1.
          2   -1    0    0  501    0  0.00000000000E+00 -0.00000000000E+00 -0.69365891118E+03  0.69365891118E+03  0.00000000000E+00 0. -1.
          5    1    1    2  502    0 -0.29966493430E+02 -0.81776893647E+02 -0.25720438798E+03  0.27158243806E+03  0.41800000000E+01 0. -1.
         -5    1    1    2    0  502 -0.23131620756E+02  0.48285625125E+02 -0.14355796713E+03  0.15327405456E+03  0.41800000000E+01 0.  1.
        -11    1    1    2    0    0  0.91150407218E+01  0.91139852927E+01 -0.41715916329E+02  0.43661955642E+02  0.00000000000E+00 0. -1.
         11    1    1    2    0    0  0.43983073464E+02  0.24377283229E+02 -0.23550607868E+03  0.24081502400E+03  0.00000000000E+00 0.  1.
</event>
<event>
 7    1  0.4274778E-006  0.1236684E+03  0.7561462E-02  0.1237165E+00
          2   -1    0    0  501    0  0.00000000000E+00  0.00000000000E+00  0.83022257683E+03  0.83022257683E+03  0.00000000000E+00 0. -1.
         -2   -1    0    0    0  501 -0.00000000000E+00 -0.00000000000E+00 -0.37628131599E+02  0.37628131599E+02  0.00000000000E+00 0.  1.
         23    2    1    2    0    0 -0.10070023494E+03  0.14868948063E+02  0.60535361627E+03  0.62073013031E+03  0.92148092827E+02 0.  0.
          5    1    1    2  502    0  0.92398505659E+02 -0.35315152321E+02  0.55543412812E+02  0.11352174654E+03  0.41800000000E+01 0.  1.
         -5    1    1    2    0  502  0.83017292775E+01  0.20446204258E+02  0.13169741616E+03  0.13359883158E+03  0.41800000000E+01 0.  1.
        -11    1    3    3    0    0 -0.13509984378E+01  0.25878836332E+02  0.48624782476E+02  0.55099082002E+02  0.00000000000E+00 0.  1.
         11    1    3    3    0    0 -0.99349236499E+02 -0.11009888269E+02  0.55672883379E+03  0.56563104830E+03  0.00000000000E+00 0. -1.
</event>
<event>
 7    1  0.4274778E-006  0.1019325E+03  0.7561462E-02  0.1276284E+00
         -1   -1    0    0    0  501 -0.00000000000E+00  0.00000000000E+00  0.14715387941E+03  0.14715387941E+03  0.00000000000E+00 0.  1.
          1   -1    0    0  501    0  0.00000000000E+00 -0.00000000000E+00 -0.86124100379E+02  0.86124100379E+02  0.00000000000E+00 0. -1.
         23    2    1    2    0    0 -0.44805639766E+01 -0.24481908422E+02  0.61141684943E+01  0.94422539962E+02  0.90877905472E+02 0.  0.
          5    1    1    2  502    0  0.10688734849E+02 -0.48584864641E+02  0.52646317838E+01  0.50198873221E+02  0.41800000000E+01 0. -1.
         -5    1    1    2    0  502 -0.62081708724E+01  0.73066773063E+02  0.49650978755E+02  0.88656566608E+02  0.41800000000E+01 0. -1.
        -11    1    3    3    0    0 -0.38276288878E+02  0.80545051606E+00 -0.21571605207E+02  0.43943795831E+02  0.00000000000E+00 0. -1.
         11    1    3    3    0    0  0.33795724901E+02 -0.25287358938E+02  0.27685773702E+02  0.50478744132E+02  0.00000000000E+00 0.  1.
</event>
<event>
 7    1  0.4274778E-006  0.1192474E+03  0.7561462E-02  0.1244344E+00
         -1   -1    0    0    0  501 -0.00000000000E+00  0.00000000000E+00  0.52496322341E+03  0.52496322341E+03  0.00000000000E+00 0.  1.
          1   -1    0    0  501    0  0.00000000000E+00 -0.00000000000E+00 -0.39064935281E+02  0.39064935281E+02  0.00000000000E+00 0. -1.
         23    2    1    2    0    0  0.72611299982E+02 -0.50624189871E+02  0.16514523575E+03  0.20854919882E+03  0.91567515818E+02 0.  0.
          5    1    1    2  502    0 -0.46079452181E+02  0.73183328599E+02  0.10138702372E+03  0.13332635327E+03  0.41800000000E+01 0. -1.
         -5    1    1    2    0  502 -0.26531847802E+02 -0.22559138729E+02  0.21936602866E+03  0.22215260660E+03  0.41800000000E+01 0. -1.
        -11    1    3    3    0    0 -0.15612142784E+02 -0.15128419876E+02  0.72865120376E+02  0.76039028516E+02  0.00000000000E+00 0.  1.
         11    1    3    3    0    0  0.88223442766E+02 -0.35495769995E+02  0.92280115376E+02  0.13251017031E+03  0.00000000000E+00 0. -1.
</event>
<event>
 7    1  0.4274778E-006  0.1199960E+03  0.7561462E-02  0.1243104E+00
         -1   -1    0    0    0  501 -0.00000000000E+00  0.00000000000E+00  0.30483840487E+02  0.30483840487E+02  0.00000000000E+00 0.  1.
          1   -1    0    0  501    0  0.00000000000E+00 -0.00000000000E+00 -0.63145910764E+03  0.63145910764E+03  0.00000000000E+00 0. -1.
         23    2    1    2    0    0  0.48803621186E+02 -0.41423516176E+02 -0.40960362364E+03  0.42452335412E+03  0.91363277986E+02 0.  0.
          5    1    1    2  502    0 -0.44255124970E+01  0.73396120949E+02 -0.59794046825E+02  0.94865041859E+02  0.41800000000E+01 0.  1.
         -5    1    1    2    0  502 -0.44378108689E+02 -0.31972604773E+02 -0.13157759668E+03  0.14255455214E+03  0.41800000000E+01 0.  1.
        -11    1    3    3    0    0  0.23128962043E+02 -0.69615555630E+02 -0.26236549595E+03  0.27242783987E+03  0.00000000000E+00 0.  1.
         11    1    3    3    0    0  0.25674659143E+02  0.28192039454E+02 -0.14723812769E+03  0.15209551426E+03  0.00000000000E+00 0. -1.
</event>
<event>
 7    1  0.4274778E-006  0.1047352E+03  0.7561462E-02  0.1270642E+00
         -2   -1    0    0    0  501 -0.00000000000E+00  0.00000000000E+00  0.20785446422E+03  0.20785446422E+03  0.00000000000E+00 0.  1.
          2   -1    0    0  501    0  0.00000000000E+00 -0.00000000000E+00 -0.83157601222E+02  0.83157601222E+02  0.00000000000E+00 0. -1.
         23    2    1    2    0    0  0.45106818037E+02  0.47862297955E+02  0.15979963235E+02  0.11317403891E+03  0.90706004539E+02 0.  0.
          5    1    1    2  502    0 -0.65991569465E+02 -0.31661533448E+02  0.81419144435E+01  0.73763833357E+02  0.41800000000E+01 0.  1.
         -5    1    1    2    0  502  0.20884751428E+02 -0.16200764507E+02  0.10057498532E+03  0.10407419317E+03  0.41800000000E+01 0.  1.
        -11    1    3    3    0    0 -0.17571326958E+02  0.43092958439E+02  0.18942026429E+02  0.50244949630E+02  0.00000000000E+00 0.  1.
         11    1    3    3    0    0  0.62678144995E+02  0.47693395165E+01 -0.29620631933E+01  0.62929089281E+02  0.00000000000E+00 0. -1.
</event>
<event>
 7    1  0.4274778E-006  0.9826729E+02  0.7561462E-02  0.1283982E+00
          2   -1    0    0  501    0  0.00000000000E+00  0.00000000000E+00  0.97864245717E+02  0.97864245717E+02  0.00000000000E+00 0. -1.
         -2   -1    0    0    0  501 -0.00000000000E+00 -0.00000000000E+00 -0.14059325072E+03  0.14059325072E+03  0.00000000000E+00 0.  1.
         23    2    1    2    0    0 -0.28298945386E+02  0.21870240807E+02  0.85052474739E+01  0.98638556166E+02  0.91531894905E+02 0.  0.
          5    1    1    2  502    0  0.40780347416E+02  0.33409874464E+02  0.12591129720E+02  0.54362352733E+02  0.41800000000E+01 0. -1.
         -5    1    1    2    0  502 -0.12481402030E+02 -0.55280115271E+02 -0.63825382193E+02  0.85456587535E+02  0.41800000000E+01 0. -1.
        -11    1    3    3    0    0 -0.14163438161E+02 -0.29939915006E+02 -0.19122481429E+02  0.38244879227E+02  0.00000000000E+00 0.  1.
         11    1    3    3    0    0 -0.14135507225E+02  0.51810155813E+02  0.27627728903E+02  0.60393676939E+02  0.00000000000E+00 0. -1.
</event>
<event>
 7    1  0.4274778E-006  0.1345107E+03  0.7561462E-02  0.1220912E+00
          1   -1    0    0  501    0  0.00000000000E+00  0.00000000000E+00  0.19894082311E+03  0.19894082311E+03  0.00000000000E+00 0. -1.
         -1   -1    0    0    0  501 -0.00000000000E+00 -0.00000000000E+00 -0.12322256211E+03  0.12322256211E+03  0.00000000000E+00 0.  1.
         23    2    1    2    0    0  0.97947762914E+02 -0.23552288111E+02  0.65674291450E+02  0.15202903309E+03  0.93012041203E+02 0.  0.
          5    1    1    2  502    0 -0.12273319294E+03  0.16801427496E+02 -0.25038487530E+02  0.12645205761E+03  0.41800000000E+01 0. -1.
         -5    1    1    2    0  502  0.24785430028E+02  0.67508606148E+01  0.35082457080E+02  0.43682294531E+02  0.41800000000E+01 0.  1.
        -11    1    3    3    0    0  0.72033176466E+02  0.14039064514E+02  0.16690456726E+01  0.73407489793E+02  0.00000000000E+00 0.  1.
         11    1    3    3    0    0  0.25914586447E+02 -0.37591352625E+02  0.64005245777E+02  0.78621543294E+02  0.00000000000E+00 0. -1.
</event>
<event>
 7    1  0.1865524E-005  0.3424907E+03  0.7561462E-02  0.1065740E+00
          2   -1    0    0  501    0  0.00000000000E+00  0.00000000000E+00  0.30309191019E+04  0.30309191019E+04  0.00000000000E+00 0.  1.
         -2   -1    0    0    0  501 -0.00000000000E+00 -0.00000000000E+00 -0.41776018011E+02  0.41776018011E+02  0.00000000000E+00 0. -1.
         23    2    1    2    0    0 -0.33589674145E+03 -0.42706959019E+02  0.14991685575E+04  0.15396191837E+04  0.90941529126E+02 0.  0.
          5    1    1    2  502    0  0.31080130976E+03  0.50348822330E+02  0.11582252777E+04  0.12002648560E+04  0.41800000000E+01 0. -1.
         -5    1    1    2    0  502  0.25095431692E+02 -0.76418633110E+01  0.33174924859E+03  0.33281108020E+03  0.41800000000E+01 0. -1.
        -11    1    3    3    0    0 -0.14267701023E+03  0.10681996594E+02  0.47768863622E+03  0.49865545969E+03  0.00000000000E+00 0. -1.
         11    1    3    3    0    0 -0.19321973123E+03 -0.53388955613E+02  0.10214799213E+04  0.10409637240E+04  0.00000000000E+00 0.  1.
</event>
<event>
 7    1  0.4274778E-006  0.1333999E+03  0.7561462E-02  0.1222496E+00
          1   -1    0    0  501    0  0.00000000000E+00  0.00000000000E+00  0.27846480060E+03  0.27846480060E+03  0.00000000000E+00 0. -1.
         -1   -1    0    0    0  501 -0.00000000000E+00 -0.00000000000E+00 -0.13381238184E+03  0.13381238184E+03  0.00000000000E+00 0.  1.
         23    2    1    2    0    0  0.87521398270E+02 -0.17393480831E+02  0.21182770235E+03  0.24713357277E+03  0.90782701959E+02 0.  0.
          5    1    1    2  502    0  0.91873242318E+01  0.44784847562E+02 -0.40121174141E+02  0.60969422764E+02  0.41800000000E+01 0. -1.
         -5    1    1    2    0  502 -0.96708722502E+02 -0.27391366731E+02 -0.27054109445E+02  0.10417418690E+03  0.41800000000E+01 0.  1.
        -11    1    3    3    0    0  0.78548514472E+02 -0.45508635820E+02  0.11865448847E+03  0.14939810138E+03  0.00000000000E+00 0. -1.
         11    1    3    3    0    0  0.89728837982E+01  0.28115154989E+02  0.93173213881E+02  0.97735471394E+02  0.00000000000E+00 0.  1.
</event>
<event>
 7    1  0.4274778E-006  0.8242170E+02  0.7561462E-02  0.1322316E+00
         -2   -1    0    0    0  501 -0.00000000000E+00  0.00000000000E+00  0.27429839041E+03  0.27429839041E+03  0.00000000000E+00 0.  1.
          2   -1    0    0  501    0  0.00000000000E+00 -0.00000000000E+00 -0.62579757112E+02  0.62579757112E+02  0.00000000000E+00 0. -1.
         23    2    1    2    0    0 -0.24446618457E+02 -0.33968432209E+02  0.16896809758E+02  0.10160367028E+03  0.91029182650E+02 0.  0.
          5    1    1    2  502    0  0.39275750106E+02  0.26254723698E+02  0.85311267606E+01  0.48188666579E+02  0.41800000000E+01 0.  1.
         -5    1    1    2    0  502 -0.14829131649E+02  0.77137085106E+01  0.18629069677E+03  0.18708581066E+03  0.41800000000E+01 0.  1.
        -11    1    3    3    0    0  0.18392718859E+02  0.22656042173E+02  0.52821595879E+01  0.29656189302E+02  0.00000000000E+00 0.  1.
         11    1    3    3    0    0 -0.42839337316E+02 -0.56624474382E+02  0.11614650170E+02  0.71947480979E+02  0.00000000000E+00 0. -1.
</event>
<event>
 7    1  0.4274778E-006  0.1487897E+03  0.7561462E-02  0.1201968E+00
          2   -1    0    0  501    0  0.00000000000E+00  0.00000000000E+00  0.30626971420E+03  0.30626971420E+03  0.00000000000E+00 0. -1.
         -2   -1    0    0    0  501 -0.00000000000E+00 -0.00000000000E+00 -0.79009891800E+02  0.79009891800E+02  0.00000000000E+00 0.  1.
         23    2    1    2    0    0  0.10469780475E+03 -0.11402225862E+01  0.14963142882E+03  0.20462354732E+03  0.92294643410E+02 0.  0.
          5    1    1    2  502    0 -0.76587604654E+02  0.56957952002E+02  0.68042432799E+02  0.11729072659E+03  0.41800000000E+01 0.  1.
         -5    1    1    2    0  502 -0.28110200094E+02 -0.55817729416E+02  0.95859607851E+01  0.63365332088E+02  0.41800000000E+01 0.  1.
        -11    1    3    3    0    0  0.81244187299E+01  0.35272609724E+02  0.43352789979E+02  0.56476787935E+02  0.00000000000E+00 0.  1.
         11    1    3    3    0    0  0.96573386018E+02 -0.36412832310E+02  0.10627863884E+03  0.14814675939E+03  0.00000000000E+00 0. -1.
</event>
<event>
 7    1  0.4274778E-006  0.9345766E+02  0.7561462E-02  0.1294688E+00
          2   -1    0    0  501    0  0.00000000000E+00  0.00000000000E+00  0.35353588644E+03  0.35353588644E+03  0.00000000000E+00 0.  1.
         -2   -1    0    0    0  501 -0.00000000000E+00 -0.00000000000E+00 -0.53240201813E+02  0.53240201813E+02  0.00000000000E+00 0. -1.
         23    2    1    2    0    0  0.67729485497E+02 -0.15065274235E+02  0.20578926726E+03  0.23533260921E+03  0.90653012871E+02 0.  0.
          5    1    1    2  502    0 -0.71030220474E+02  0.45181829342E+02  0.10884596642E+03  0.13766483476E+03  0.41800000000E+01 0. -1.
         -5    1    1    2    0  502  0.33007349771E+01 -0.30116555108E+02 -0.14339549052E+02  0.33778644289E+02  0.41800000000E+01 0. -1.
        -11    1    3    3    0    0  0.19614275946E+02 -0.13673451199E+02 -0.80826895172E-01  0.23910031819E+02  0.00000000000E+00 0. -1.
         11    1    3    3    0    0  0.48115209551E+02 -0.13918230353E+01  0.20587009415E+03  0.21142257739E+03  0.00000000000E+00 0.  1.
</event>
<event>
 7    1  0.4274778E-006  0.1293494E+03  0.7561462E-02  0.1228424E+00
          1   -1    0    0  501    0  0.00000000000E+00  0.00000000000E+00  0.47115869437E+03  0.47115869437E+03  0.00000000000E+00 0. -1.
         -1   -1    0    0    0  501 -0.00000000000E+00 -0.00000000000E+00 -0.45949847998E+02  0.45949847998E+02  0.00000000000E+00 0.  1.
         23    2    1    2    0    0  0.64192040245E+02 -0.73077831272E+02  0.22517105224E+03  0.26192369252E+03  0.91875080881E+02 0.  0.
          5    1    1    2  502    0 -0.10198029015E+03  0.57391373554E+02  0.15381079071E+03  0.19331058190E+03  0.41800000000E+01 0. -1.
         -5    1    1    2    0  502  0.37788249909E+02  0.15686457718E+02  0.46227003433E+02  0.61874267942E+02  0.41800000000E+01 0. -1.
        -11    1    3    3    0    0  0.39876038142E+02 -0.62091614333E+02  0.22329796754E+03  0.23517535861E+03  0.00000000000E+00 0. -1.
         11    1    3    3    0    0  0.24316002103E+02 -0.10986216939E+02  0.18730846906E+01  0.26748333914E+02  0.00000000000E+00 0.  1.
</event>
<event>
 7    1  0.4274778E-006  0.2152916E+03  0.7561462E-02  0.1137443E+00
         -2   -1    0    0    0  501 -0.00000000000E+00  0.00000000000E+00  0.76624349433E+02  0.76624349433E+02  0.00000000000E+00 0.  1.
          2   -1    0    0  501    0  0.00000000000E+00 -0.00000000000E+00 -0.68461468622E+03  0.68461468622E+03  0.00000000000E+00 0. -1.
         23    2    1    2    0    0  0.65595739295E+02 -0.17584588450E+03 -0.41502876510E+03  0.46441176751E+03  0.90580559890E+02 0.  0.
          5    1    1    2  502    0  0.34315044638E+02  0.72605430920E+02 -0.85436426633E+02  0.11732828424E+03  0.41800000000E+01 0.  1.
         -5    1    1    2    0  502 -0.99910783933E+02  0.10324045358E+03 -0.10752514505E+03  0.17949898390E+03  0.41800000000E+01 0.  1.
        -11    1    3    3    0    0 -0.60975895887E+01 -0.10656804873E+03 -0.24620734913E+03  0.26835049539E+03  0.00000000000E+00 0. -1.
         11    1    3    3    0    0  0.71693328884E+02 -0.69277835774E+02 -0.16882141596E+03  0.19606127212E+03  0.00000000000E+00 0.  1.
</event>
<event>
 7    1  0.4274778E-006  0.7815848E+02  0.7561462E-02  0.1334360E+00
         -2   -1    0    0    0  501 -0.00000000000E+00  0.00000000000E+00  0.17038876223E+03  0.17038876223E+03  0.00000000000E+00 0. -1.
          2   -1    0    0  501    0  0.00000000000E+00 -0.00000000000E+00 -0.80922020807E+02  0.80922020807E+02  0.00000000000E+00 0.  1.
         23    2    1    2    0    0  0.68201076298E+00  0.14617576333E+02 -0.55968764525E+01  0.93516737558E+02  0.92194991735E+02 0.  0.
          5    1    1    2  502    0 -0.34883942715E+02 -0.11897448553E+02  0.11294414061E+03  0.11887930871E+03  0.41800000000E+01 0.  1.
         -5    1    1    2    0  502  0.34201931952E+02 -0.27201277795E+01 -0.17880522735E+02  0.38914736767E+02  0.41800000000E+01 0.  1.
        -11    1    3    3    0    0 -0.40949683699E+02  0.13742592796E+01 -0.22415840618E+02  0.46703694653E+02  0.00000000000E+00 0. -1.
         11    1    3    3    0    0  0.41631694462E+02  0.13243317053E+02  0.16818964166E+02  0.46813042905E+02  0.00000000000E+00 0.  1.
</event>
<event>
 7    1  0.4274778E-006  0.7860827E+02  0.7561462E-02  0.1333048E+00
         -1   -1    0    0    0  501 -0.00000000000E+00  0.00000000000E+00  0.18304805407E+03  0.18304805407E+03  0.00000000000E+00 0.  1.
          1   -1    0    0  501    0  0.00000000000E+00 -0.00000000000E+00 -0.88368179350E+02  0.88368179350E+02  0.00000000000E+00 0. -1.
         23    2    1    2    0    0 -0.35492070485E+02  0.56631539047E+02  0.46588327825E+02  0.12165594664E+03  0.90348651241E+02 0.  0.
          5    1    1    2  502    0  0.48132108566E+02 -0.50780884346E+02  0.84951993916E+02  0.11013497065E+03  0.41800000000E+01 0. -1.
         -5    1    1    2    0  502 -0.12640038081E+02 -0.58506547003E+01 -0.36860447026E+02  0.39625316126E+02  0.41800000000E+01 0. -1.
        -11    1    3    3    0    0 -0.15782836841E+02  0.48946255824E+02  0.72069878344E+02  0.88537569779E+02  0.00000000000E+00 0.  1.
         11    1    3    3    0    0 -0.19709233643E+02  0.76852832227E+01 -0.25481550519E+02  0.33118376860E+02  0.00000000000E+00 0. -1.
</event>
<event>
 7    1  0.4274778E-006  0.1263945E+03  0.7561462E-02  0.1232906E+00
         -1   -1    0    0    0  501 -0.00000000000E+00  0.00000000000E+00  0.77297829999E+02  0.77297829999E+02  0.00000000000E+00 0.  1.
          1   -1    0    0  501    0  0.00000000000E+00 -0.00000000000E+00 -0.23701072107E+03  0.23701072107E+03  0.00000000000E+00 0. -1.
         23    2    1    2    0    0 -0.79513618044E+02 -0.95980940864E+01 -0.68569343064E+02  0.14003284827E+03  0.92156958077E+02 0.  0.
          5    1    1    2  502    0  0.20892506763E+02 -0.56086972574E+02 -0.43284456363E+02  0.73981496970E+02  0.41800000000E+01 0.  1.
         -5    1    1    2    0  502  0.58621111281E+02  0.65685066660E+02 -0.47859091646E+02  0.10029420583E+03  0.41800000000E+01 0.  1.
        -11    1    3    3    0    0 -0.81754334112E+02 -0.27770794205E+02 -0.20711207714E+02  0.88791566501E+02  0.00000000000E+00 0.  1.
         11    1    3    3    0    0  0.22407160677E+01  0.18172700119E+02 -0.47858135350E+02  0.51241281769E+02  0.00000000000E+00 0. -1.
</event>
<event>
 6    1  0.1659619E-005  0.6425702E+02  0.7561462E-02  0.1380788E+00
          2   -1    0    0  501    0  0.00000000000E+00  0.00000000000E+00  0.95677508009E+02  0.95677508009E+02  0.00000000000E+00 0. -1.
         -2   -1    0    0    0  501 -0.00000000000E+00 -0.00000000000E+00 -0.12177914377E+03  0.12177914377E+03  0.00000000000E+00 0.  1.
          5    1    1    2  502    0 -0.73245374495E+01 -0.51181072671E+02  0.54584849069E+02  0.75300260268E+02  0.41800000000E+01 0. -1.
         -5    1    1    2    0  502  0.97390375136E+01  0.41365406759E+02 -0.95518521113E+02  0.10462889660E+03  0.41800000000E+01 0.  1.
        -11    1    1    2    0    0  0.12902744843E+02  0.12978555196E+02  0.11249758526E+02  0.21482103862E+02  0.00000000000E+00 0.  1.
         11    1    1    2    0    0 -0.15317244907E+02 -0.31628892835E+01  0.35822777528E+01  0.16045391053E+02  0.00000000000E+00 0. -1.
</event>
<event>
 7    1  0.4274778E-006  0.1133862E+03  0.7561462E-02  0.1254425E+00
         -1   -1    0    0    0  501 -0.00000000000E+00  0.00000000000E+00  0.70824927067E+03  0.70824927067E+03  0.00000000000E+00 0.  1.
          1   -1    0    0  501    0  0.00000000000E+00 -0.00000000000E+00 -0.20386204233E+02  0.20386204233E+02  0.00000000000E+00 0. -1.
         23    2    1    2    0    0 -0.41646929353E+02  0.35609971634E+01  0.20799990739E+03  0.23097596146E+03  0.91316952823E+02 0.  0.
          5    1    1    2  502    0 -0.36194385587E+02  0.25970142468E+02  0.11506026671E+03  0.12345371288E+03  0.41800000000E+01 0. -1.
         -5    1    1    2    0  502  0.77841314940E+02 -0.29531139631E+02  0.36480289234E+03  0.37420580057E+03  0.41800000000E+01 0. -1.
        -11    1    3    3    0    0  0.27876925813E+02  0.80056819171E+01  0.42950700446E+02  0.51826408370E+02  0.00000000000E+00 0. -1.
         11    1    3    3    0    0 -0.69523855166E+02 -0.44446847537E+01  0.16504920694E+03  0.17914955309E+03  0.00000000000E+00 0.  1.
</event>
<event>
 7    1  0.4274778E-006  0.9015395E+02  0.7561462E-02  0.1302479E+00
          2   -1    0    0  501    0  0.00000000000E+00  0.00000000000E+00  0.53877748449E+03  0.53877748449E+03  0.00000000000E+00 0. -1.
         -2   -1    0    0    0  501 -0.00000000000E+00 -0.00000000000E+00 -0.31007881171E+02  0.31007881171E+02  0.00000000000E+00 0.  1.
         23    2    1    2    0    0 -0.63946611778E+02  0.13343622694E+02  0.28074042341E+03  0.30247056054E+03  0.91684421971E+02 0.  0.
          5    1    1    2  502    0  0.37643310913E+02  0.46108571741E+01  0.23173222522E+03  0.23485224177E+03  0.41800000000E+01 0.  1.
         -5    1    1    2    0  502  0.26303300865E+02 -0.17954479868E+02 -0.47030453138E+01  0.32462563345E+02  0.41800000000E+01 0.  1.
        -11    1    3    3    0    0  0.38152656974E+01  0.37800964786E+02  0.68414348704E+02  0.78255940987E+02  0.00000000000E+00 0.  1.
         11    1    3    3    0    0 -0.67761877476E+02 -0.24457342092E+02  0.21232607471E+03  0.22421461956E+03  0.00000000000E+00 0. -1.
</event>
<event>
 7    1  0.4274778E-006  0.9986631E+02  0.7561462E-02  0.1280577E+00
         -2   -1    0    0    0  501 -0.00000000000E+00  0.00000000000E+00  0.33694823224E+03  0.33694823224E+03  0.00000000000E+00 0.  1.
          2   -1    0    0  501    0  0.00000000000E+00 -0.00000000000E+00 -0.38514416135E+02  0.38514416135E+02  0.00000000000E+00 0. -1.
         23    2    1    2    0    0  0.29804493510E+02  0.29966527642E+02  0.13278378411E+03  0.16362464873E+03  0.85762414480E+02 0.  0.
          5    1    1    2  502    0  0.36494516764E+02 -0.11598542703E+02  0.73931306485E+01  0.39223803073E+02  0.41800000000E+01 0. -1.
         -5    1    1    2    0  502 -0.66299010274E+02 -0.18367984939E+02  0.15825690134E+03  0.17261419657E+03  0.41800000000E+01 0. -1.
        -11    1    3    3    0    0  0.12787524913E+02  0.58055459501E+02  0.10476024838E+03  0.12045192739E+03  0.00000000000E+00 0.  1.
         11    1    3    3    0    0  0.17016968597E+02 -0.28088931859E+02  0.28023535734E+02  0.43172721344E+02  0.00000000000E+00 0. -1.
</event>
<event>
 7    1  0.4274778E-006  0.1718732E+03  0.7561462E-02  0.1175908E+00
         -2   -1    0    0    0  501 -0.00000000000E+00  0.00000000000E+00  0.20689120411E+03  0.20689120411E+03  0.00000000000E+00 0.  1.
          2   -1    0    0  501    0  0.00000000000E+00 -0.00000000000E+00 -0.16271554778E+03  0.16271554778E+03  0.00000000000E+00 0. -1.
         23    2    1    2    0    0 -0.14707813101E+03  0.17696932560E+02  0.10235217711E+02  0.17276731158E+03  0.88309830841E+02 0.  0.
          5    1    1    2  502    0  0.15302131229E+03  0.19309644815E+02  0.16130282136E+02  0.15513233963E+03  0.41800000000E+01 0.  1.
         -5    1    1    2    0  502 -0.59431812798E+01 -0.37006577375E+02  0.17810156482E+02  0.41707100674E+02  0.41800000000E+01 0.  1.
        -11    1    3    3    0    0 -0.11178505418E+03 -0.10262387015E+01  0.44316579025E+02  0.12025352669E+03  0.00000000000E+00 0.  1.
         11    1    3    3    0    0 -0.35293076833E+02  0.18723171261E+02 -0.34081361314E+02  0.52513784890E+02  0.00000000000E+00 0. -1.
</event>
<event>
 7    1  0.4274778E-006  0.1525855E+03  0.7561462E-02  0.1197331E+00
          1   -1    0    0  501    0  0.00000000000E+00  0.00000000000E+00  0.32115635022E+03  0.32115635022E+03  0.00000000000E+00 0. -1.
         -1   -1    0    0    0  501 -0.00000000000E+00 -0.00000000000E+00 -0.11612007457E+03  0.11612007457E+03  0.00000000000E+00 0.  1.
         23    2    1    2    0    0  0.10544363706E+03  0.60547186246E+02  0.21438449594E+03  0.26256262654E+03  0.90521259367E+02 0.  0.
          5    1    1    2  502    0 -0.90732894355E+02  0.19391425008E+02 -0.81765838490E+00  0.92879634189E+02  0.41800000000E+01 0.  1.
         -5    1    1    2    0  502 -0.14710742709E+02 -0.79938611253E+02 -0.85305619011E+01  0.81834164054E+02  0.41800000000E+01 0.  1.
        -11    1    3    3    0    0  0.17160473759E+02  0.35033702121E+02  0.12862137598E+02  0.41076474137E+02  0.00000000000E+00 0.  1.
         11    1    3    3    0    0  0.88283163305E+02  0.25513484124E+02  0.20152235834E+03  0.22148615240E+03  0.00000000000E+00 0. -1.
</event>
<event>
 7    1  0.4274778E-006  0.9236258E+02  0.7561462E-02  0.1297229E+00
          3   -1    0    0  501    0  0.00000000000E+00  0.00000000000E+00  0.90633846806E+02  0.90633846806E+02  0.00000000000E+00 0. -1.
         -3   -1    0    0    0  501 -0.00000000000E+00 -0.00000000000E+00 -0.25590360086E+03  0.25590360086E+03  0.00000000000E+00 0.  1.
         23    2    1    2    0    0 -0.39234644600E+02 -0.37794596083E+02  0.97385603675E+01  0.10770817521E+03  0.92403585529E+02 0.  0.
          5    1    1    2  502    0  0.23134275315E+02 -0.11201997818E+02  0.22648204198E+02  0.34512215270E+02  0.41800000000E+01 0. -1.
         -5    1    1    2    0  502  0.16100369285E+02  0.48996593901E+02 -0.19765651861E+03  0.20431705718E+03  0.41800000000E+01 0.  1.
        -11    1    3    3    0    0 -0.67810098602E+02 -0.12866307098E+02  0.22588662262E+01  0.69056888197E+02  0.00000000000E+00 0.  1.
         11    1    3    3    0    0  0.28575454003E+02 -0.24928288985E+02  0.74796941413E+01  0.38651287011E+02  0.00000000000E+00 0. -1.
</event>
<event>
 7    1  0.4274778E-006  0.2275830E+03  0.7561462E-02  0.1128353E+00
          2   -1    0    0  501    0  0.00000000000E+00  0.00000000000E+00  0.14647968671E+04  0.14647968671E+04  0.00000000000E+00 0. -1.
         -2   -1    0    0    0  501 -0.00000000000E+00 -0.00000000000E+00 -0.50764696901E+02  0.50764696901E+02  0.00000000000E+00 0.  1.
         23    2    1    2    0    0  0.99249351587E+02 -0.19381589132E+03  0.10389054012E+04  0.10641406931E+04  0.75206041682E+02 0.  0.
          5    1    1    2  502    0  0.75190121971E+01  0.11966645935E+02 -0.59300243993E+01  0.15886275483E+02  0.41800000000E+01 0. -1.
         -5    1    1    2    0  502 -0.10676836378E+03  0.18184924539E+03  0.38105679345E+03  0.43553459540E+03  0.41800000000E+01 0. -1.
        -11    1    3    3    0    0  0.16399138477E+02 -0.11157174760E+03  0.55648074358E+03  0.56779221955E+03  0.00000000000E+00 0. -1.
         11    1    3    3    0    0  0.82850213111E+02 -0.82244143720E+02  0.48242465758E+03  0.49634847359E+03  0.00000000000E+00 0.  1.
</event>
<event>
 7    1  0.4274778E-006  0.1455901E+03  0.7561462E-02  0.1205999E+00
         -2   -1    0    0    0  501 -0.00000000000E+00  0.00000000000E+00  0.24974201658E+02  0.24974201658E+02  0.00000000000E+00 0.  1.
          2   -1    0    0  501    0  0.00000000000E+00 -0.00000000000E+00 -0.99450450564E+03  0.99450450564E+03  0.00000000000E+00 0. -1.
         23    2    1    2    0    0  0.90097097750E+02  0.69982777241E+02 -0.46093504688E+03  0.48344522399E+03  0.90791470006E+02 0.  0.
          5    1    1    2  502    0  0.29536187363E+02 -0.31904783626E+02 -0.13322236513E+03  0.14019975946E+03  0.41800000000E+01 0.  1.
         -5    1    1    2    0  502 -0.11963328511E+03 -0.38077993615E+02 -0.37537289197E+03  0.39583372384E+03  0.41800000000E+01 0.  1.
        -11    1    3    3    0    0  0.81345507554E+02  0.39993250965E+02 -0.43010793877E+03  0.43955590170E+03  0.00000000000E+00 0. -1.
         11    1    3    3    0    0  0.87515901965E+01  0.29989526276E+02 -0.30827108105E+02  0.43889322293E+02  0.00000000000E+00 0.  1.
</event>
<event>
 7    1  0.4274778E-006  0.9394873E+02  0.7561462E-02  0.1293562E+00
         -1   -1    0    0    0  501 -0.00000000000E+00  0.00000000000E+00  0.30339563914E+03  0.30339563914E+03  0.00000000000E+00 0.  1.
          1   -1    0    0  501    0  0.00000000000E+00 -0.00000000000E+00 -0.10324662494E+03  0.10324662494E+03  0.00000000000E+00 0. -1.
         23    2    1    2    0    0  0.47690523026E+02 -0.15114527668E+02 -0.55570086395E+02  0.11760254628E+03  0.90771633546E+02 0.  0.
          5    1    1    2  502    0  0.28767369922E+01 -0.26105561973E+02  0.15951576334E+01  0.26641938922E+02  0.41800000000E+01 0. -1.
         -5    1    1    2    0  502 -0.50567260019E+02  0.41220089641E+02  0.25412394295E+03  0.26239777887E+03  0.41800000000E+01 0. -1.
        -11    1    3    3    0    0  0.70739767355E+02 -0.17157680518E+02 -0.20563911756E+02  0.75639772296E+02  0.00000000000E+00 0.  1.
         11    1    3    3    0    0 -0.23049244329E+02  0.20431528504E+01 -0.35006174639E+02  0.41962773985E+02  0.00000000000E+00 0. -1.
</event>
<event>
 7    1  0.4274778E-006  0.8341668E+02  0.7561462E-02  0.1319626E+00
          1   -1    0    0  501    0  0.00000000000E+00  0.00000000000E+00  0.91980298243E+02  0.91980298243E+02  0.00000000000E+00 0. -1.
         -1   -1    0    0    0  501 -0.00000000000E+00 -0.00000000000E+00 -0.14664338974E+03  0.14664338974E+03  0.00000000000E+00 0.  1.
         23    2    1    2    0    0  0.22480573053E+02 -0.85404391499E+01  0.11187792993E+02  0.95229720581E+02  0.91461564082E+02 0.  0.
          5    1    1    2  502    0 -0.52618461439E+02 -0.13124338217E+02 -0.85389201843E+02  0.10124099431E+03  0.41800000000E+01 0. -1.
         -5    1    1    2    0  502  0.30137888386E+02  0.21664777367E+02  0.19538317358E+02  0.42152973085E+02  0.41800000000E+01 0. -1.
        -11    1    3    3    0    0 -0.24851676252E+02  0.60180463441E+01  0.32470120267E+02  0.41329546386E+02  0.00000000000E+00 0.  1.
         11    1    3    3    0    0  0.47332249305E+02 -0.14558485494E+02 -0.21282327274E+02  0.53900174196E+02  0.00000000000E+00 0. -1.
</event>
<event>
 7    1  0.4274778E-006  0.9057068E+02  0.7561462E-02  0.1301476E+00
          2   -1    0    0  501    0  0.00000000000E+00  0.00000000000E+00  0.20586405857E+03  0.20586405857E+03  0.00000000000E+00 0. -1.
         -2   -1    0    0    0  501 -0.00000000000E+00 -0.00000000000E+00 -0.81888781141E+02  0.81888781141E+02  0.00000000000E+00 0.  1.
         23    2    1    2    0    0 -0.20620578480E+02 -0.35616049717E+02  0.12241375333E+03  0.15605610514E+03  0.87605192157E+02 0.  0.
          5    1    1    2  502    0  0.19792784190E+02 -0.26623656602E+02 -0.43407759826E+02  0.54793059870E+02  0.41800000000E+01 0. -1.
         -5    1    1    2    0  502  0.82779428994E+00  0.62239706318E+02  0.44969283928E+02  0.76903674704E+02  0.41800000000E+01 0. -1.
        -11    1    3    3    0    0 -0.45114971213E+02 -0.40167371083E+02  0.46710388087E+02  0.76358618914E+02  0.00000000000E+00 0.  1.
         11    1    3    3    0    0  0.24494392733E+02  0.45513213670E+01  0.75703365243E+02  0.79697486226E+02  0.00000000000E+00 0. -1.
</event>
<event>
 7    1  0.4274778E-006  0.8838849E+02  0.7561462E-02  0.1306802E+00
          2   -1    0    0  501    0  0.00000000000E+00  0.00000000000E+00  0.35203119150E+03  0.35203119150E+03  0.00000000000E+00 0. -1.
         -2   -1    0    0    0  501 -0.00000000000E+00 -0.00000000000E+00 -0.40119958877E+02  0.40119958877E+02  0.00000000000E+00 0.  1.
         23    2    1    2    0    0  0.20629856223E+02 -0.40134145204E+02  0.10879521278E+03  0.14937467972E+03  0.91869777608E+02 0.  0.
          5    1    1    2  502    0 -0.65762852301E+02  0.49892173968E+02  0.10014015101E+03  0.12984415278E+03  0.41800000000E+01 0.  1.
         -5    1    1    2    0  502  0.45132996078E+02 -0.97580287642E+01  0.10297586883E+03  0.11293231788E+03  0.41800000000E+01 0.  1.
        -11    1    3    3    0    0  0.21693964862E+02 -0.27246103009E+02  0.12435643524E+03  0.12914140012E+03  0.00000000000E+00 0. -1.
         11    1    3    3    0    0 -0.10641086387E+01 -0.12888042195E+02 -0.15561222457E+02  0.20233279595E+02  0.00000000000E+00 0.  1.
</event>
<event>
 7    1  0.4274778E-006  0.1577382E+03  0.7561462E-02  0.1191274E+00
         -1   -1    0    0    0  501 -0.00000000000E+00  0.00000000000E+00  0.50384220732E+02  0.50384220732E+02  0.00000000000E+00 0.  1.
          1   -1    0    0  501    0  0.00000000000E+00 -0.00000000000E+00 -0.60271735522E+03  0.60271735522E+03  0.00000000000E+00 0. -1.
         23    2    1    2    0    0 -0.92666211518E+02  0.85664113321E+02 -0.35684101626E+03  0.38892235047E+03  0.89441135603E+02 0.  0.
          5    1    1    2  502    0  0.11327242477E+03 -0.44345491128E+02 -0.17576895681E+03  0.21379748215E+03  0.41800000000E+01 0. -1.
         -5    1    1    2    0  502 -0.20606213251E+02 -0.41318622193E+02 -0.19723161409E+02  0.50381743325E+02  0.41800000000E+01 0. -1.
        -11    1    3    3    0    0 -0.26015724619E+02  0.75654118023E+02 -0.25102422355E+03  0.26346446498E+03  0.00000000000E+00 0.  1.
         11    1    3    3    0    0 -0.66650486899E+02  0.10009995299E+02 -0.10581679272E+03  0.12545788548E+03  0.00000000000E+00 0. -1.
</event>
<event>
 7    1  0.4274778E-006  0.1743202E+03  0.7561462E-02  0.1173416E+00
          4   -1    0    0  501    0  0.00000000000E+00  0.00000000000E+00  0.66946886974E+03  0.66946886974E+03  0.00000000000E+00 0. -1.
         -4   -1    0    0    0  501 -0.00000000000E+00 -0.00000000000E+00 -0.55075636207E+02  0.55075636207E+02  0.00000000000E+00 0.  1.
         23    2    1    2    0    0  0.21401497679E+02  0.66141261078E+01  0.25136863148E+03  0.26637505868E+03  0.85250878187E+02 0.  0.
          5    1    1    2  502    0 -0.91767162724E+02 -0.10642422624E+03  0.27066566866E+03  0.30499951586E+03  0.41800000000E+01 0. -1.
         -5    1    1    2    0  502  0.70365665046E+02  0.99810100136E+02  0.92358933396E+02  0.15316993140E+03  0.41800000000E+01 0.  1.
        -11    1    3    3    0    0 -0.27000770386E+02  0.22259480559E+02  0.13326159748E+03  0.13777945942E+03  0.00000000000E+00 0. -1.
         11    1    3    3    0    0  0.48402268065E+02 -0.15645354451E+02  0.11810703400E+03  0.12859559926E+03  0.00000000000E+00 0.  1.
</event>
<event>
 6    1  0.4510733E-006  0.7244107E+02  0.7561462E-02  0.1351983E+00
         -1   -1    0    0    0  501 -0.00000000000E+00  0.00000000000E+00  0.15154797859E+03  0.15154797859E+03  0.00000000000E+00 0.  1.
          1   -1    0    0  501    0  0.00000000000E+00 -0.00000000000E+00 -0.44756171991E+02  0.44756171991E+02  0.00000000000E+00 0. -1.
          5    1    1    2  502    0  0.41000745215E+02 -0.24096091036E+02  0.17317933932E+02  0.50784504990E+02  0.41800000000E+01 0. -1.
         -5    1    1    2    0  502 -0.55601769221E+02  0.15091885280E+02  0.88562345810E+02  0.10573591271E+03  0.41800000000E+01 0.  1.
        -11    1    1    2    0    0 -0.97997871249E+00  0.20178890807E+02 -0.23338950578E+01  0.20337036623E+02  0.00000000000E+00 0.  1.
         11    1    1    2    0    0  0.15581002718E+02 -0.11174685051E+02  0.32454219103E+01  0.19446696250E+02  0.00000000000E+00 0. -1.
</event>
<event>
 7    1  0.4274778E-006  0.8307826E+02  0.7561462E-02  0.1320536E+00
          4   -1    0    0  501    0  0.00000000000E+00  0.00000000000E+00  0.85647558151E+02  0.85647558151E+02  0.00000000000E+00 0. -1.
         -4   -1    0    0    0  501 -0.00000000000E+00 -0.00000000000E+00 -0.13178101071E+03  0.13178101071E+03  0.00000000000E+00 0.  1.
         23    2    1    2    0    0  0.23686793418E+02 -0.29827638086E+01  0.14487533181E+02  0.76391480246E+02  0.71104209257E+02 0.  0.
          5    1    1    2  502    0  0.43112579429E+02  0.30176779163E+02 -0.12549200311E+02  0.54261287620E+02  0.41800000000E+01 0.  1.
         -5    1    1    2    0  502 -0.66799372847E+02 -0.27194015355E+02 -0.48071785427E+02  0.86775800993E+02  0.41800000000E+01 0.  1.
        -11    1    3    3    0    0  0.21475272272E+02  0.12923111923E+02 -0.23991654945E+02  0.34695729534E+02  0.00000000000E+00 0.  1.
         11    1    3    3    0    0  0.22115211468E+01 -0.15905875732E+02  0.38479188126E+02  0.41695750711E+02  0.00000000000E+00 0. -1.
</event>
<event>
 7    1  0.4274778E-006  0.1878264E+03  0.7561462E-02  0.1160436E+00
         -1   -1    0    0    0  501 -0.00000000000E+00  0.00000000000E+00  0.24928549083E+03  0.24928549083E+03  0.00000000000E+00 0.  1.
          1   -1    0    0  501    0  0.00000000000E+00 -0.00000000000E+00 -0.17419275750E+03  0.17419275750E+03  0.00000000000E+00 0. -1.
         23    2    1    2    0    0 -0.12760961392E+03 -0.93564040493E+02 -0.48786561593E+02  0.18676819132E+03  0.86393202628E+02 0.  0.
          5    1    1    2  502    0 -0.10875700402E+02 -0.18236423334E+02  0.38091706259E+01  0.21973397009E+02  0.41800000000E+01 0.  1.
         -5    1    1    2    0  502  0.13848531432E+03  0.11180046383E+03  0.12007012430E+03  0.21473665999E+03  0.41800000000E+01 0.  1.
        -11    1    3    3    0    0 -0.20391167020E+02 -0.60402682479E+02  0.15422456148E+01  0.63770387051E+02  0.00000000000E+00 0. -1.
         11    1    3    3    0    0 -0.10721844690E+03 -0.33161358014E+02 -0.50328807208E+02  0.12299780427E+03  0.00000000000E+00 0.  1.
</event>
<event>
 7    1  0.4274778E-006  0.1287817E+03  0.7561462E-02  0.1229275E+00
          2   -1    0    0  501    0  0.00000000000E+00  0.00000000000E+00  0.41609214694E+02  0.41609214694E+02  0.00000000000E+00 0. -1.
         -2   -1    0    0    0  501 -0.00000000000E+00 -0.00000000000E+00 -0.42311257805E+03  0.42311257805E+03  0.00000000000E+00 0.  1.
         23    2    1    2    0    0  0.60236065747E+01  0.74079672839E+02 -0.13586185086E+03  0.17921980032E+03  0.90206499465E+02 0.  0.
          5    1    1    2  502    0 -0.65325541631E+02 -0.35341013627E+02 -0.11907081448E+03  0.14039852170E+03  0.41800000000E+01 0.  1.
         -5    1    1    2    0  502  0.59301935057E+02 -0.38738659212E+02 -0.12657069802E+03  0.14510347072E+03  0.41800000000E+01 0.  1.
        -11    1    3    3    0    0 -0.33710082435E+02  0.62195491233E+02 -0.10852929061E+03  0.12955020535E+03  0.00000000000E+00 0.  1.
         11    1    3    3    0    0  0.39733689009E+02  0.11884181606E+02 -0.27332560250E+02  0.49669594971E+02  0.00000000000E+00 0. -1.
</event>
<event>
 7    1  0.4274778E-006  0.7027400E+02  0.7561462E-02  0.1359164E+00
         -2   -1    0    0    0  501 -0.00000000000E+00  0.00000000000E+00  0.72257130758E+02  0.72257130758E+02  0.00000000000E+00 0.  1.
          2   -1    0    0  501    0  0.00000000000E+00 -0.00000000000E+00 -0.21621297277E+03  0.21621297277E+03  0.00000000000E+00 0. -1.
         23    2    1    2    0    0 -0.24016198853E+02  0.42211469326E+02 -0.10939157009E+03  0.14990052689E+03  0.90250021637E+02 0.  0.
          5    1    1    2  502    0 -0.81856590536E+01 -0.36022314569E+02 -0.76569264769E+02  0.85117194904E+02  0.41800000000E+01 0.  1.
         -5    1    1    2    0  502  0.32201857906E+02 -0.61891547563E+01  0.42004992844E+02  0.53452381734E+02  0.41800000000E+01 0.  1.
        -11    1    3    3    0    0 -0.29924582190E+02  0.23485264270E+01  0.33217467091E+01  0.30199837695E+02  0.00000000000E+00 0.  1.
         11    1    3    3    0    0  0.59083833373E+01  0.39862942899E+02 -0.11271331680E+03  0.11970068919E+03  0.00000000000E+00 0. -1.
</event>
<event>
 7    1  0.4274778E-006  0.1827489E+03  0.7561462E-02  0.1165169E+00
         -2   -1    0    0    0  501 -0.00000000000E+00  0.00000000000E+00  0.69576571870E+02  0.69576571870E+02  0.00000000000E+00 0.  1.
          2   -1    0    0  501    0  0.00000000000E+00 -0.00000000000E+00 -0.51602065918E+03  0.51602065918E+03  0.00000000000E+00 0. -1.
         23    2    1    2    0    0  0.14461374813E+02 -0.14558625029E+03 -0.28802611068E+03  0.33630085353E+03  0.93459809634E+02 0.  0.
          5    1    1    2  502    0 -0.69581442516E+02  0.79325200404E+02 -0.96896163420E+02  0.14331923614E+03  0.41800000000E+01 0.  1.
         -5    1    1    2    0  502  0.55120067703E+02  0.66261049884E+02 -0.61521813220E+02  0.10597714139E+03  0.41800000000E+01 0.  1.
        -11    1    3    3    0    0 -0.21116674056E+02  0.25377169457E+01 -0.35677488046E+02  0.41535973369E+02  0.00000000000E+00 0.  1.
         11    1    3    3    0    0  0.35578048869E+02 -0.14812396723E+03 -0.25234862263E+03  0.29476488016E+03  0.00000000000E+00 0. -1.
</event>
<event>
 7    1  0.4274778E-006  0.7172078E+02  0.7561462E-02  0.1354337E+00
         -2   -1    0    0    0  501 -0.00000000000E+00  0.00000000000E+00  0.46561564737E+02  0.46561564737E+02  0.00000000000E+00 0.  1.
          2   -1    0    0  501    0  0.00000000000E+00 -0.00000000000E+00 -0.30730791151E+03  0.30730791151E+03  0.00000000000E+00 0. -1.
         23    2    1    2    0    0 -0.34594252119E+02 -0.14114779647E+02 -0.15791135239E+03  0.18768200862E+03  0.94300328019E+02 0.  0.
          5    1    1    2  502    0 -0.69171668424E+01  0.38116479168E+02 -0.11075377511E+03  0.11740776926E+03  0.41800000000E+01 0. -1.
         -5    1    1    2    0  502  0.41511418961E+02 -0.24001699521E+02  0.79187807262E+01  0.48779698362E+02  0.41800000000E+01 0. -1.
        -11    1    3    3    0    0 -0.13627467368E+01  0.13235727534E+02  0.85040457990E+01  0.15791148058E+02  0.00000000000E+00 0.  1.
         11    1    3    3    0    0 -0.33231505382E+02 -0.27350507181E+02 -0.16641539819E+03  0.17189086057E+03  0.00000000000E+00 0. -1.
</event>
<event>
 7    1  0.4274778E-006  0.9141849E+02  0.7561462E-02  0.1299453E+00
         -1   -1    0    0    0  501 -0.00000000000E+00  0.00000000000E+00  0.55056623540E+02  0.55056623540E+02  0.00000000000E+00 0.  1.
          1   -1    0    0  501    0  0.00000000000E+00 -0.00000000000E+00 -0.22290204452E+03  0.22290204452E+03  0.00000000000E+00 0. -1.
         23    2    1    2    0    0 -0.75924629873E+01 -0.19803914445E+02 -0.81872763391E+02  0.12469903589E+03  0.91634380263E+02 0.  0.
          5    1    1    2  502    0  0.54433029957E+02 -0.51235225912E+01 -0.32961592548E+01  0.54932160888E+02  0.41800000000E+01 0. -1.
         -5    1    1    2    0  502 -0.46840566969E+02  0.24927437036E+02 -0.82676498331E+02  0.98327471276E+02  0.41800000000E+01 0. -1.
        -11    1    3    3    0    0 -0.39789446036E+02 -0.13108733702E+02 -0.64083953951E+01  0.42380496065E+02  0.00000000000E+00 0.  1.
         11    1    3    3    0    0  0.32196983049E+02 -0.66951807426E+01 -0.75464367996E+02  0.82318539830E+02  0.00000000000E+00 0. -1.
</event>
<event>
 7    1  0.4274778E-006  0.1389575E+03  0.7561462E-02  0.1214739E+00
          1   -1    0    0  501    0  0.00000000000E+00  0.00000000000E+00  0.51759253192E+03  0.51759253192E+03  0.00000000000E+00 0. -1.
         -1   -1    0    0    0  501 -0.00000000000E+00 -0.00000000000E+00 -0.47209547532E+02  0.47209547532E+02  0.00000000000E+00 0.  1.
         23    2    1    2    0    0 -0.10032190657E+03 -0.22910087135E+02  0.29866817729E+03  0.32874500308E+03  0.91001318089E+02 0.  0.
          5    1    1    2  502    0  0.95616559784E+02  0.60427163605E+02  0.16050057416E+03  0.19639723856E+03  0.41800000000E+01 0.  1.
         -5    1    1    2    0  502  0.47053467814E+01 -0.37517076470E+02  0.11214232933E+02  0.39659837815E+02  0.41800000000E+01 0.  1.
        -11    1    3    3    0    0 -0.33797446088E+02  0.27213861972E+02  0.48514939426E+02  0.65088869963E+02  0.00000000000E+00 0.  1.
         11    1    3    3    0    0 -0.66524460477E+02 -0.50123949107E+02  0.25015323786E+03  0.26365613312E+03  0.00000000000E+00 0. -1.
</event>
<event>
 7    1  0.4274778E-006  0.7846961E+02  0.7561462E-02  0.1333451E+00
          2   -1    0    0  501    0  0.00000000000E+00  0.00000000000E+00  0.58262087980E+02  0.58262087980E+02  0.00000000000E+00 0. -1.
         -2   -1    0    0    0  501 -0.00000000000E+00 -0.00000000000E+00 -0.18095829948E+03  0.18095829948E+03  0.00000000000E+00 0.  1.
         23    2    1    2    0    0  0.24621417696E+02 -0.45300893655E+02 -0.47146540625E+02  0.94933507339E+02  0.64274328837E+02 0.  0.
          5    1    1    2  502    0 -0.40755270827E+02  0.14175481349E+02  0.15964420456E+02  0.46198176286E+02  0.41800000000E+01 0. -1.
         -5    1    1    2    0  502  0.16133853131E+02  0.31125412306E+02 -0.91514091329E+02  0.98088703834E+02  0.41800000000E+01 0.  1.
        -11    1    3    3    0    0  0.10526226451E+02  0.13893605991E+02  0.82218512520E+00  0.17450206850E+02  0.00000000000E+00 0. -1.
         11    1    3    3    0    0  0.14095191245E+02 -0.59194499646E+02 -0.47968725750E+02  0.77483300489E+02  0.00000000000E+00 0.  1.
</event>
<event>
 7    1  0.4274778E-006  0.8602092E+02  0.7561462E-02  0.1312784E+00
          2   -1    0    0  501    0  0.00000000000E+00  0.00000000000E+00  0.31080643290E+03  0.31080643290E+03  0.00000000000E+00 0. -1.
         -2   -1    0    0    0  501 -0.00000000000E+00 -0.00000000000E+00 -0.45157044184E+02  0.45157044184E+02  0.00000000000E+00 0.  1.
         23    2    1    2    0    0 -0.44187646710E+02 -0.14147882278E+02  0.12854027041E+03  0.16465689314E+03  0.91850860902E+02 0.  0.
          5    1    1    2  502    0  0.28778383547E+02  0.41956925776E+02  0.14869281204E+03  0.15721197071E+03  0.41800000000E+01 0.  1.
         -5    1    1    2    0  502  0.15409263163E+02 -0.27809043498E+02 -0.11583693729E+02  0.34094613239E+02  0.41800000000E+01 0.  1.
        -11    1    3    3    0    0 -0.58696420448E+02 -0.31251307828E+02  0.12549286953E+03  0.14202244300E+03  0.00000000000E+00 0. -1.
         11    1    3    3    0    0  0.14508773738E+02  0.17103425551E+02  0.30474008779E+01  0.22634450138E+02  0.00000000000E+00 0.  1.
</event>
<event>
 7    1  0.4274778E-006  0.3146126E+03  0.7561462E-02  0.1078156E+00
         -1   -1    0    0    0  501 -0.00000000000E+00  0.00000000000E+00  0.21554118562E+03  0.21554118562E+03  0.00000000000E+00 0. -1.
          1   -1    0    0  501    0  0.00000000000E+00 -0.00000000000E+00 -0.48570065394E+03  0.48570065394E+03  0.00000000000E+00 0.  1.
         23    2    1    2    0    0 -0.72592609102E+02 -0.29569970647E+03 -0.14976907806E+03  0.35074289901E+03  0.88779508699E+02 0.  0.
          5    1    1    2  502    0  0.32682225910E+01  0.21920593261E+03 -0.11361972190E+03  0.24695917836E+03  0.41800000000E+01 0.  1.
         -5    1    1    2    0  502  0.69324386511E+02  0.76493773852E+02 -0.67706683511E+01  0.10353976218E+03  0.41800000000E+01 0.  1.
        -11    1    3    3    0    0 -0.73821082689E+02 -0.24400302425E+03 -0.86879702245E+02  0.26932343150E+03  0.00000000000E+00 0. -1.
         11    1    3    3    0    0  0.12284735863E+01 -0.51696682213E+02 -0.62889375818E+02  0.81419467512E+02  0.00000000000E+00 0.  1.
</event>
<event>
 7    1  0.4274778E-006  0.1281295E+03  0.7561462E-02  0.1230258E+00
          2   -1    0    0  501    0  0.00000000000E+00  0.00000000000E+00  0.54362751980E+03  0.54362751980E+03  0.00000000000E+00 0. -1.
         -2   -1    0    0    0  501 -0.00000000000E+00 -0.00000000000E+00 -0.33613005418E+02  0.33613005418E+02  0.00000000000E+00 0.  1.
         23    2    1    2    0    0  0.28793635146E+02  0.64685343378E+02  0.31133575611E+03  0.33202014424E+03  0.91072257465E+02 0.  0.
          5    1    1    2  502    0  0.37046985719E+02  0.13609983847E+02  0.39780196482E+02  0.56192946562E+02  0.41800000000E+01 0. -1.
         -5    1    1    2    0  502 -0.65840620864E+02 -0.78295327225E+02  0.15889856179E+03  0.18902743441E+03  0.41800000000E+01 0. -1.
        -11    1    3    3    0    0  0.31879999978E+02 -0.14441747863E+02  0.11844734995E+03  0.12350981010E+03  0.00000000000E+00 0. -1.
         11    1    3    3    0    0 -0.30863648322E+01  0.79127091241E+02  0.19288840615E+03  0.20851033414E+03  0.00000000000E+00 0.  1.
</event>
<event>
 7    1  0.4274778E-006  0.9117981E+02  0.7561462E-02  0.1300020E+00
          4   -1    0    0  501    0  0.00000000000E+00  0.00000000000E+00  0.91189353483E+02  0.91189353483E+02  0.00000000000E+00 0.  1.
         -4   -1    0    0    0  501 -0.00000000000E+00 -0.00000000000E+00 -0.18177805722E+03  0.18177805722E+03  0.00000000000E+00 0. -1.
         23    2    1    2    0    0  0.31664013422E+02 -0.44009822448E+02 -0.85707816393E+02  0.13654168755E+03  0.91423894195E+02 0.  0.
          5    1    1    2  502    0 -0.15244016575E+01  0.45392192681E+02  0.53666044706E+02  0.70429338426E+02  0.41800000000E+01 0. -1.
         -5    1    1    2    0  502 -0.30139611764E+02 -0.13823702332E+01 -0.58546932050E+02  0.65996384728E+02  0.41800000000E+01 0. -1.
        -11    1    3    3    0    0  0.35704300954E+02 -0.70748939847E+02 -0.63684244001E+02  0.10166559167E+03  0.00000000000E+00 0.  1.
         11    1    3    3    0    0 -0.40402875323E+01  0.26739117399E+02 -0.22023572392E+02  0.34876095876E+02  0.00000000000E+00 0. -1.
</event>
<event>
 7    1  0.4274778E-006  0.9694423E+02  0.7561462E-02  0.1286856E+00
          1   -1    0    0  501    0  0.00000000000E+00  0.00000000000E+00  0.93541450650E+02  0.93541450650E+02  0.00000000000E+00 0. -1.
         -1   -1    0    0    0  501 -0.00000000000E+00 -0.00000000000E+00 -0.18984332511E+03  0.18984332511E+03  0.00000000000E+00 0.  1.
         23    2    1    2    0    0 -0.17383467521E+02 -0.59847145469E+01  0.38172279086E+02  0.98807889675E+02  0.89262950994E+02 0.  0.
          5    1    1    2  502    0  0.57262988103E+02  0.33907489287E+02 -0.38799058576E+02  0.77146658921E+02  0.41800000000E+01 0.  1.
         -5    1    1    2    0  502 -0.39879520582E+02 -0.27922774740E+02 -0.95675094969E+02  0.10743022716E+03  0.41800000000E+01 0.  1.
        -11    1    3    3    0    0  0.10652113651E+02 -0.35840745944E+02  0.43664169910E+02  0.57485531475E+02  0.00000000000E+00 0. -1.
         11    1    3    3    0    0 -0.28035581172E+02  0.29856031397E+02 -0.54918908244E+01  0.41322358200E+02  0.00000000000E+00 0.  1.
</event>
<event>
 7    1  0.4274778E-006  0.1304272E+03  0.7561462E-02  0.1226823E+00
          2   -1    0    0  501    0  0.00000000000E+00  0.00000000000E+00  0.94150888755E+02  0.94150888755E+02  0.00000000000E+00 0. -1.
         -2   -1    0    0    0  501 -0.00000000000E+00 -0.00000000000E+00 -0.20900030318E+03  0.20900030318E+03  0.00000000000E+00 0.  1.
         23    2    1    2    0    0 -0.58781731485E+02  0.50327113778E+02 -0.69201863447E+01  0.12076288611E+03  0.92453638897E+02 0.  0.
          5    1    1    2  502    0  0.77427983374E+02 -0.79949194520E+02 -0.87583033021E+02  0.14168707205E+03  0.41800000000E+01 0.  1.
         -5    1    1    2    0  502 -0.18646251889E+02  0.29622080742E+02 -0.20346195060E+02  0.40701233770E+02  0.41800000000E+01 0.  1.
        -11    1    3    3    0    0  0.21295387420E+02  0.38498791002E+01 -0.17149334705E+02  0.27611859323E+02  0.00000000000E+00 0.  1.
         11    1    3    3    0    0 -0.80077118905E+02  0.46477234678E+02  0.10229148360E+02  0.93151026788E+02  0.00000000000E+00 0. -1.
</event>
<event>
 7    1  0.4274778E-006  0.1407662E+03  0.7561462E-02  0.1212302E+00
          2   -1    0    0  501    0  0.00000000000E+00  0.00000000000E+00  0.10888762239E+04  0.10888762239E+04  0.00000000000E+00 0. -1.
         -2   -1    0    0    0  501 -0.00000000000E+00 -0.00000000000E+00 -0.24638102858E+02  0.24638102858E+02  0.00000000000E+00 0.  1.
         23    2    1    2    0    0  0.11664648803E+03  0.24071244514E+02  0.56125876209E+03  0.58170498058E+03  0.95830362774E+02 0.  0.
          5    1    1    2  502    0 -0.12066482395E+03  0.16110212278E+02  0.44256492371E+03  0.45902148400E+03  0.41800000000E+01 0. -1.
         -5    1    1    2    0  502  0.40183359257E+01 -0.40181456791E+02  0.60414435228E+02  0.72787862157E+02  0.41800000000E+01 0. -1.
        -11    1    3    3    0    0  0.14471431026E+02  0.37811227443E+01  0.49917546132E+01  0.15768221816E+02  0.00000000000E+00 0.  1.
         11    1    3    3    0    0  0.10217505700E+03  0.20290121769E+02  0.55626700747E+03  0.56593675876E+03  0.00000000000E+00 0. -1.
</event>
<event>
 7    1  0.4274778E-006  0.8637013E+02  0.7561462E-02  0.1311888E+00
          1   -1    0    0  501    0  0.00000000000E+00  0.00000000000E+00  0.43212710846E+03  0.43212710846E+03  0.00000000000E+00 0. -1.
         -1   -1    0    0    0  501 -0.00000000000E+00 -0.00000000000E+00 -0.34280875946E+02  0.34280875946E+02  0.00000000000E+00 0.  1.
         23    2    1    2    0    0  0.51936841955E+02  0.17345978316E+02  0.18224344415E+03  0.21120126677E+03  0.91624143285E+02 0.  0.
          5    1    1    2  502    0 -0.27172365872E+02  0.35011497389E+02  0.18356546153E+03  0.18888592717E+03  0.41800000000E+01 0. -1.
         -5    1    1    2    0  502 -0.24764476083E+02 -0.52357475705E+02  0.32037326838E+02  0.66320790472E+02  0.41800000000E+01 0. -1.
        -11    1    3    3    0    0  0.29382029421E+01 -0.12461123359E+02 -0.61988338949E+01  0.14224562332E+02  0.00000000000E+00 0.  1.
         11    1    3    3    0    0  0.48998639013E+02  0.29807101674E+02  0.18844227805E+03  0.19697670444E+03  0.00000000000E+00 0. -1.
</event>
<event>
 7    1  0.4274778E-006  0.1505738E+03  0.7561462E-02  0.1199770E+00
         -1   -1    0    0    0  501 -0.00000000000E+00  0.00000000000E+00  0.90973697565E+02  0.90973697565E+02  0.00000000000E+00 0.  1.
          1   -1    0    0  501    0  0.00000000000E+00 -0.00000000000E+00 -0.30392153036E+03  0.30392153036E+03  0.00000000000E+00 0. -1.
         23    2    1    2    0    0 -0.11210172588E+03 -0.34070716764E+02 -0.15273601544E+03  0.21323509174E+03  0.91724060363E+02 0.  0.
          5    1    1    2  502    0 -0.21696735609E+02 -0.11270457023E+01 -0.34338628698E+02  0.40848897035E+02  0.41800000000E+01 0.  1.
         -5    1    1    2    0  502  0.13379846149E+03  0.35197762466E+02 -0.25873188655E+02  0.14081123915E+03  0.41800000000E+01 0.  1.
        -11    1    3    3    0    0 -0.67072552079E+02  0.20239647076E+02 -0.11101203977E+03  0.13127087845E+03  0.00000000000E+00 0. -1.
         11    1    3    3    0    0 -0.45029173803E+02 -0.54310363841E+02 -0.41723975677E+02  0.81964213289E+02  0.00000000000E+00 0.  1.
</event>
<event>
 7    1  0.4274778E-006  0.1052523E+03  0.7561462E-02  0.1269623E+00
          2   -1    0    0  501    0  0.00000000000E+00  0.00000000000E+00  0.73089562968E+02  0.73089562968E+02  0.00000000000E+00 0. -1.
         -2   -1    0    0    0  501 -0.00000000000E+00 -0.00000000000E+00 -0.26328305203E+03  0.26328305203E+03  0.00000000000E+00 0.  1.
         23    2    1    2    0    0  0.39466476489E+02 -0.52402526343E+02 -0.31272804294E+02  0.12374905763E+03  0.10016093770E+03 0.  0.
          5    1    1    2  502    0 -0.31623703034E+02 -0.22444621319E+02 -0.26118971872E+01  0.39091099072E+02  0.41800000000E+01 0. -1.
         -5    1    1    2    0  502 -0.78427734550E+01  0.74847147662E+02 -0.15630878758E+03  0.17353245830E+03  0.41800000000E+01 0. -1.
        -11    1    3    3    0    0 -0.11267080687E+02  0.10441436357E+02  0.22119008284E+02  0.26929931821E+02  0.00000000000E+00 0. -1.
         11    1    3    3    0    0  0.50733557176E+02 -0.62843962700E+02 -0.53391812578E+02  0.96819125807E+02  0.00000000000E+00 0.  1.
</event>
<event>
 6    1  0.4274778E-006  0.1604392E+03  0.7561462E-02  0.1188202E+00
         -2   -1    0    0    0  501 -0.00000000000E+00  0.00000000000E+00  0.17017397886E+03  0.17017397886E+03  0.00000000000E+00 0.  1.
          2   -1    0    0  501    0  0.00000000000E+00 -0.00000000000E+00 -0.21801700915E+03  0.21801700915E+03  0.00000000000E+00 0. -1.
          5    1    1    2  502    0 -0.52939957604E+02 -0.56194900508E+02 -0.27560476994E+02  0.82082630601E+02  0.41800000000E+01 0.  1.
         -5    1    1    2    0  502  0.59271873134E+02 -0.83625746529E+02  0.25251048540E+02  0.10564803964E+03  0.41800000000E+01 0.  1.
        -11    1    1    2    0    0 -0.70235312227E+01  0.20829240974E+02 -0.74764715146E+02  0.77929133841E+02  0.00000000000E+00 0. -1.
         11    1    1    2    0    0  0.69161569271E+00  0.11899140606E+03  0.29231113318E+02  0.12253118393E+03  0.00000000000E+00 0.  1.
</event>
<event>
 7    1  0.4274778E-006  0.1078447E+03  0.7561462E-02  0.1264614E+00
         -2   -1    0    0    0  501 -0.00000000000E+00  0.00000000000E+00  0.71915026161E+02  0.71915026161E+02  0.00000000000E+00 0.  1.
          2   -1    0    0  501    0  0.00000000000E+00 -0.00000000000E+00 -0.40768127483E+03  0.40768127483E+03  0.00000000000E+00 0. -1.
         23    2    1    2    0    0 -0.13665005506E+01  0.19839260060E+02 -0.34011386094E+03  0.35286379761E+03  0.91869242413E+02 0.  0.
          5    1    1    2  502    0 -0.33654116115E+02  0.39883368341E+02 -0.15483462009E+02  0.54593887913E+02  0.41800000000E+01 0. -1.
         -5    1    1    2    0  502  0.35020616665E+02 -0.59722628401E+02  0.19831074273E+02  0.72138615467E+02  0.41800000000E+01 0. -1.
        -11    1    3    3    0    0  0.44437211825E+02  0.99235701064E+00 -0.16440635175E+03  0.17030883437E+03  0.00000000000E+00 0.  1.
         11    1    3    3    0    0 -0.45803712375E+02  0.18846903049E+02 -0.17570750919E+03  0.18255496325E+03  0.00000000000E+00 0. -1.
</event>
<event>
 7    1  0.4274778E-006  0.1005385E+03  0.7561462E-02  0.1279168E+00
          1   -1    0    0  501    0  0.00000000000E+00  0.00000000000E+00  0.26150677018E+03  0.26150677018E+03  0.00000000000E+00 0. -1.
         -1   -1    0    0    0  501 -0.00000000000E+00 -0.00000000000E+00 -0.54532565642E+02  0.54532565642E+02  0.00000000000E+00 0.  1.
         23    2    1    2    0    0  0.48416303831E+02 -0.10588862137E+02  0.95962350385E+02  0.14161020287E+03  0.91588287398E+02 0.  0.
          5    1    1    2  502    0 -0.74447050170E+02  0.39316678112E+02  0.39749565292E+02  0.93196914099E+02  0.41800000000E+01 0. -1.
         -5    1    1    2    0  502  0.26030746338E+02 -0.28727815975E+02  0.71262288864E+02  0.81232218853E+02  0.41800000000E+01 0. -1.
        -11    1    3    3    0    0  0.48880014217E+02 -0.30668990212E+02  0.17034212527E+02  0.60166495219E+02  0.00000000000E+00 0.  1.
         11    1    3    3    0    0 -0.46371038603E+00  0.20080128075E+02  0.78928137858E+02  0.81443707655E+02  0.00000000000E+00 0. -1.
</event>
<event>
 7    1  0.4274778E-006  0.1185439E+03  0.7561462E-02  0.1245519E+00
         -2   -1    0    0    0  501 -0.00000000000E+00  0.00000000000E+00  0.37850847337E+03  0.37850847337E+03  0.00000000000E+00 0.  1.
          2   -1    0    0  501    0  0.00000000000E+00 -0.00000000000E+00 -0.60348371592E+02  0.60348371592E+02  0.00000000000E+00 0. -1.
         23    2    1    2    0    0  0.44547857613E+02  0.83170452891E+02  0.94046701669E+02  0.16540140101E+03  0.98035735879E+02 0.  0.
          5    1    1    2  502    0  0.68569403102E+00 -0.69810816467E+02  0.21386297697E+03  0.22500859004E+03  0.41800000000E+01 0.  1.
         -5    1    1    2    0  502 -0.45233551644E+02 -0.13359636424E+02  0.10250423140E+02  0.48446853915E+02  0.41800000000E+01 0.  1.
        -11    1    3    3    0    0  0.64560850733E+02  0.52678328351E+02  0.98090789277E+02  0.12870474998E+03  0.00000000000E+00 0.  1.
         11    1    3    3    0    0 -0.20012993120E+02  0.30492124540E+02 -0.40440876082E+01  0.36696651035E+02  0.00000000000E+00 0. -1.
</event>
<event>
 7    1  0.4274778E-006  0.1120043E+03  0.7561462E-02  0.1256903E+00
         -4   -1    0    0    0  501 -0.00000000000E+00  0.00000000000E+00  0.27007952921E+03  0.27007952921E+03  0.00000000000E+00 0.  1.
          4   -1    0    0  501    0  0.00000000000E+00 -0.00000000000E+00 -0.97796919355E+02  0.97796919355E+02  0.00000000000E+00 0. -1.
         23    2    1    2    0    0 -0.87905483115E+02 -0.18845157695E+02 -0.94055174687E+01  0.12967047744E+03  0.92970183558E+02 0.  0.
          5    1    1    2  502    0 -0.17420683396E+02  0.12914136654E+02  0.10606611476E+03  0.10834088903E+03  0.41800000000E+01 0.  1.
         -5    1    1    2    0  502  0.10532616651E+03  0.59310210404E+01  0.75622012555E+02  0.12986508209E+03  0.41800000000E+01 0.  1.
        -11    1    3    3    0    0 -0.32861395313E+02 -0.24535992141E+02  0.38669419852E+02  0.56366747680E+02  0.00000000000E+00 0.  1.
         11    1    3    3    0    0 -0.55044087801E+02  0.56908344459E+01 -0.48074937321E+02  0.73303729762E+02  0.00000000000E+00 0. -1.
</event>
<event>
 7    1  0.4274778E-006  0.1006409E+03  0.7561462E-02  0.1278954E+00
         -2   -1    0    0    0  501 -0.00000000000E+00  0.00000000000E+00  0.31735734526E+02  0.31735734526E+02  0.00000000000E+00 0.  1.
          2   -1    0    0  501    0  0.00000000000E+00 -0.00000000000E+00 -0.45252661560E+03  0.45252661560E+03  0.00000000000E+00 0. -1.
         23    2    1    2    0    0  0.45135640446E+02  0.79289736827E+01 -0.23035055384E+03  0.25185098992E+03  0.90925512414E+02 0.  0.
          5    1    1    2  502    0  0.18030082081E+02 -0.36184880561E+02 -0.14242918685E+02  0.43066954544E+02  0.41800000000E+01 0.  1.
         -5    1    1    2    0  502 -0.63165722527E+02  0.28255906878E+02 -0.17619740855E+03  0.18934440566E+03  0.41800000000E+01 0.  1.
        -11    1    3    3    0    0  0.54353050925E+02 -0.23016406503E+02 -0.88541781838E+02  0.10641266957E+03  0.00000000000E+00 0.  1.
         11    1    3    3    0    0 -0.92174104792E+01  0.30945380186E+02 -0.14180877201E+03  0.14543832036E+03  0.00000000000E+00 0. -1.
</event>
<event>
 7    1  0.4274778E-006  0.1225152E+03  0.7561462E-02  0.1239005E+00
         -4   -1    0    0    0  501 -0.00000000000E+00  0.00000000000E+00  0.63379139590E+02  0.63379139590E+02  0.00000000000E+00 0.  1.
          4   -1    0    0  501    0  0.00000000000E+00 -0.00000000000E+00 -0.23979063393E+03  0.23979063393E+03  0.00000000000E+00 0. -1.
         23    2    1    2    0    0 -0.25578935964E+02  0.56893543354E+02 -0.91317287669E+02  0.13952466306E+03  0.85071307353E+02 0.  0.
          5    1    1    2  502    0  0.61965071967E+02 -0.76120642600E+02 -0.56116480590E+02  0.11313953406E+03  0.41800000000E+01 0.  1.
         -5    1    1    2    0  502 -0.36386136003E+02  0.19227099246E+02 -0.28977726083E+02  0.50505576401E+02  0.41800000000E+01 0.  1.
        -11    1    3    3    0    0 -0.24703829694E+02 -0.17973650302E+02 -0.24216445904E+02  0.38984196272E+02  0.00000000000E+00 0. -1.
         11    1    3    3    0    0 -0.87510627021E+00  0.74867193655E+02 -0.67100841765E+02  0.10054046679E+03  0.00000000000E+00 0.  1.
</event>
<event>
 7    1  0.4274778E-006  0.8159812E+02  0.7561462E-02  0.1324576E+00
         -1   -1    0    0    0  501 -0.00000000000E+00  0.00000000000E+00  0.41839072190E+02  0.41839072190E+02  0.00000000000E+00 0.  1.
          1   -1    0    0  501    0  0.00000000000E+00 -0.00000000000E+00 -0.40847733302E+03  0.40847733302E+03  0.00000000000E+00 0. -1.
         23    2    1    2    0    0  0.66361450879E+02 -0.66639512181E+01 -0.21550181386E+03  0.24325140569E+03  0.91005297552E+02 0.  0.
          5    1    1    2  502    0 -0.44548152530E+02 -0.22920737085E+00  0.86688873354E+01  0.45576446082E+02  0.41800000000E+01 0. -1.
         -5    1    1    2    0  502 -0.21813298349E+02  0.68931585890E+01 -0.15980533431E+03  0.16148855344E+03  0.41800000000E+01 0. -1.
        -11    1    3    3    0    0  0.31288300271E+02  0.30780991125E+02 -0.36632967740E+02  0.57169935053E+02  0.00000000000E+00 0.  1.
         11    1    3    3    0    0  0.35073150608E+02 -0.37444942343E+02 -0.17886884612E+03  0.18608147063E+03  0.00000000000E+00 0. -1.
</event>
<event>
 7    1  0.4274778E-006  0.1092218E+03  0.7561462E-02  0.1262018E+00
          2   -1    0    0  501    0  0.00000000000E+00  0.00000000000E+00  0.28967281959E+03  0.28967281959E+03  0.00000000000E+00 0. -1.
         -2   -1    0    0    0  501 -0.00000000000E+00 -0.00000000000E+00 -0.58608589558E+02  0.58608589558E+02  0.00000000000E+00 0.  1.
         23    2    1    2    0    0 -0.28236590878E+02 -0.65964265567E+02  0.11252743823E+03  0.16160813085E+03  0.91138214848E+02 0.  0.
          5    1    1    2  502    0 -0.18761342948E+01  0.72956980714E+02  0.10047402819E+02  0.73787963912E+02  0.41800000000E+01 0.  1.
         -5    1    1    2    0  502  0.30112725173E+02 -0.69927151469E+01  0.10848938898E+03  0.11288531439E+03  0.41800000000E+01 0.  1.
        -11    1    3    3    0    0 -0.48196765352E+02 -0.32192162979E+01  0.33693926284E+02  0.58894585595E+02  0.00000000000E+00 0.  1.
         11    1    3    3    0    0  0.19960174475E+02 -0.62745049269E+02  0.78833511946E+02  0.10271354525E+03  0.00000000000E+00 0. -1.
</event>
<event>
 7    1  0.4274778E-006  0.1320156E+03  0.7561462E-02  0.1224495E+00
         -2   -1    0    0    0  501 -0.00000000000E+00  0.00000000000E+00  0.25562909723E+02  0.25562909723E+02  0.00000000000E+00 0.  1.
          2   -1    0    0  501    0  0.00000000000E+00 -0.00000000000E+00 -0.81737272669E+03  0.81737272669E+03  0.00000000000E+00 0. -1.
         23    2    1    2    0    0  0.44321454071E+01 -0.92491818574E+02 -0.41231166624E+03  0.43276935018E+03  0.93348914950E+02 0.  0.
          5    1    1    2  502    0 -0.34815622679E+02  0.10468963985E+03 -0.20764478089E+03  0.23517201301E+03  0.41800000000E+01 0.  1.
         -5    1    1    2    0  502  0.30383477272E+02 -0.12197821272E+02 -0.17185336984E+03  0.17499427323E+03  0.41800000000E+01 0.  1.
        -11    1    3    3    0    0 -0.36104266145E+02 -0.52157590344E+02 -0.30118412440E+03  0.30779182747E+03  0.00000000000E+00 0. -1.
         11    1    3    3    0    0  0.40536411552E+02 -0.40334228231E+02 -0.11112754183E+03  0.12497752271E+03  0.00000000000E+00 0.  1.
</event>
<event>
 7    1  0.4274778E-006  0.1135030E+03  0.7561462E-02  0.1254217E+00
          4   -1    0    0  501    0  0.00000000000E+00  0.00000000000E+00  0.46358265482E+03  0.46358265482E+03  0.00000000000E+00 0. -1.
         -4   -1    0    0    0  501 -0.00000000000E+00 -0.00000000000E+00 -0.53476388494E+02  0.53476388494E+02  0.00000000000E+00 0.  1.
         23    2    1    2    0    0  0.95255917245E+02 -0.36196006792E+02  0.18234473500E+03  0.22546701092E+03  0.84864185345E+02 0.  0.
          5    1    1    2  502    0 -0.38405177521E+02 -0.15275809917E+02  0.20824381568E+03  0.21234704425E+03  0.41800000000E+01 0. -1.
         -5    1    1    2    0  502 -0.56850739724E+02  0.51471816709E+02  0.19517715643E+02  0.79244988146E+02  0.41800000000E+01 0.  1.
        -11    1    3    3    0    0  0.19631228936E+02  0.78505577721E+01  0.10972801882E+03  0.11174638482E+03  0.00000000000E+00 0. -1.
         11    1    3    3    0    0  0.75624688309E+02 -0.44046564564E+02  0.72616716178E+02  0.11372062610E+03  0.00000000000E+00 0.  1.
</event>
<event>
 7    1  0.4274778E-006  0.1286353E+03  0.7561462E-02  0.1229495E+00
         -1   -1    0    0    0  501 -0.00000000000E+00  0.00000000000E+00  0.46012923356E+03  0.46012923356E+03  0.00000000000E+00 0.  1.
          1   -1    0    0  501    0  0.00000000000E+00 -0.00000000000E+00 -0.42958074646E+02  0.42958074646E+02  0.00000000000E+00 0. -1.
         23    2    1    2    0    0  0.46152371405E+02  0.56623016521E+02  0.10073408072E+03  0.15506573764E+03  0.92530106364E+02 0.  0.
          5    1    1    2  502    0  0.25708327879E+02  0.24659104002E+02  0.90588243578E+02  0.97430445996E+02  0.41800000000E+01 0. -1.
         -5    1    1    2    0  502 -0.71860699284E+02 -0.81282120523E+02  0.22584883461E+03  0.25059112457E+03  0.41800000000E+01 0. -1.
        -11    1    3    3    0    0  0.19024779237E+02  0.76736084875E+02  0.89632942451E+02  0.11951750215E+03  0.00000000000E+00 0.  1.
         11    1    3    3    0    0  0.27127592169E+02 -0.20113068355E+02  0.11101138270E+02  0.35548235489E+02  0.00000000000E+00 0. -1.
</event>
<event>
 7    1  0.4274778E-006  0.9567370E+02  0.7561462E-02  0.1289666E+00
          2   -1    0    0  501    0  0.00000000000E+00  0.00000000000E+00  0.21846632077E+03  0.21846632077E+03  0.00000000000E+00 0. -1.
         -2   -1    0    0    0  501 -0.00000000000E+00 -0.00000000000E+00 -0.93291887014E+02  0.93291887014E+02  0.00000000000E+00 0.  1.
         23    2    1    2    0    0  0.98176895512E+01 -0.35824654996E+02  0.14998391518E+03  0.17892674621E+03  0.90220910897E+02 0.  0.
          5    1    1    2  502    0  0.11718105535E+01 -0.34226160433E+02 -0.47101253986E+02  0.58384961462E+02  0.41800000000E+01 0.  1.
         -5    1    1    2    0  502 -0.10989500105E+02  0.70050815429E+02  0.22291772561E+02  0.74446500111E+02  0.41800000000E+01 0.  1.
        -11    1    3    3    0    0 -0.32536269410E+02 -0.38812815751E+01  0.19643066847E+02  0.38203707267E+02  0.00000000000E+00 0.  1.
         11    1    3    3    0    0  0.42353958962E+02 -0.31943373421E+02  0.13034084833E+03  0.14072303894E+03  0.00000000000E+00 0. -1.
</event>
<event>
 7    1  0.4274778E-006  0.1075956E+03  0.7561462E-02  0.1265088E+00
          1   -1    0    0  501    0  0.00000000000E+00  0.00000000000E+00  0.27230569409E+03  0.27230569409E+03  0.00000000000E+00 0. -1.
         -1   -1    0    0    0  501 -0.00000000000E+00 -0.00000000000E+00 -0.13504990710E+03  0.13504990710E+03  0.00000000000E+00 0.  1.
         23    2    1    2    0    0  0.24940051684E+02 -0.41424202876E+02  0.22505398070E+03  0.24706130696E+03  0.89733073084E+02 0.  0.
          5    1    1    2  502    0 -0.34540726596E+02 -0.39109521024E+02 -0.41592633186E+02  0.66858327558E+02  0.41800000000E+01 0.  1.
         -5    1    1    2    0  502  0.96006749126E+01  0.80533723901E+02 -0.46205560527E+02  0.93435966671E+02  0.41800000000E+01 0.  1.
        -11    1    3    3    0    0 -0.21341916652E+02 -0.24160878352E+02  0.17027467676E+03  0.17329942584E+03  0.00000000000E+00 0. -1.
         11    1    3    3    0    0  0.46281968335E+02 -0.17263324525E+02  0.54779303941E+02  0.73761881124E+02  0.00000000000E+00 0.  1.
</event>
<event>
 7    1  0.4274778E-006  0.6312553E+02  0.7561462E-02  0.1385164E+00
          1   -1    0    0  501    0  0.00000000000E+00  0.00000000000E+00  0.55904375304E+03  0.55904375304E+03  0.00000000000E+00 0. -1.
         -1   -1    0    0    0  501 -0.00000000000E+00 -0.00000000000E+00 -0.25005958445E+02  0.25005958445E+02  0.00000000000E+00 0.  1.
         23    2    1    2    0    0 -0.24177323476E+02  0.99233443256E+01  0.32805054188E+03  0.34165504067E+03  0.91804101505E+02 0.  0.
          5    1    1    2  502    0  0.29989168843E+02 -0.74874232709E+01  0.22226672424E+03  0.22444460533E+03  0.41800000000E+01 0. -1.
         -5    1    1    2    0  502 -0.58118453672E+01 -0.24359210548E+01 -0.16279471526E+02  0.17950065491E+02  0.41800000000E+01 0. -1.
        -11    1    3    3    0    0 -0.46401552135E+02  0.31847708889E+02  0.26937584331E+03  0.27519216115E+03  0.00000000000E+00 0. -1.
         11    1    3    3    0    0  0.22224228659E+02 -0.21924364563E+02  0.58674698573E+02  0.66462879516E+02  0.00000000000E+00 0.  1.
</event>
<event>
 7    1  0.4274778E-006  0.9926350E+02  0.7561462E-02  0.1281852E+00
          2   -1    0    0  501    0  0.00000000000E+00  0.00000000000E+00  0.11891961851E+03  0.11891961851E+03  0.00000000000E+00 0. -1.
         -2   -1    0    0    0  501 -0.00000000000E+00 -0.00000000000E+00 -0.99182442237E+02  0.99182442237E+02  0.00000000000E+00 0.  1.
         23    2    1    2    0    0  0.21817905595E+02 -0.99956579220E+00  0.17228228850E+02  0.95978848597E+02  0.91859171412E+02 0.  0.
          5    1    1    2  502    0  0.40359842481E+02  0.83527725570E+01  0.32424060553E+02  0.52606822725E+02  0.41800000000E+01 0. -1.
         -5    1    1    2    0  502 -0.62177748076E+02 -0.73532067648E+01 -0.29915113127E+02  0.69516389427E+02  0.41800000000E+01 0.  1.
        -11    1    3    3    0    0 -0.31473284660E+02  0.19755548261E+02  0.85924257790E+01  0.38140255834E+02  0.00000000000E+00 0.  1.
         11    1    3    3    0    0  0.53291190255E+02 -0.20755114053E+02  0.86358030705E+01  0.57838592763E+02  0.00000000000E+00 0. -1.
</event>
<event>
 7    1  0.4274778E-006  0.8394744E+02  0.7561462E-02  0.1318208E+00
         -1   -1    0    0    0  501 -0.00000000000E+00  0.00000000000E+00  0.33314721564E+03  0.33314721564E+03  0.00000000000E+00 0.  1.
          1   -1    0    0  501    0  0.00000000000E+00 -0.00000000000E+00 -0.36482233856E+02  0.36482233856E+02  0.00000000000E+00 0. -1.
         23    2    1    2    0    0 -0.68222957396E+01 -0.19301032142E+02  0.11474826168E+03  0.14790763075E+03  0.91051799074E+02 0.  0.
          5    1    1    2  502    0 -0.23937681115E+02 -0.15280331231E+02  0.17177565541E+03  0.17415754159E+03  0.41800000000E+01 0. -1.
         -5    1    1    2    0  502  0.30759976854E+02  0.34581363373E+02  0.10141064696E+02  0.47564277162E+02  0.41800000000E+01 0. -1.
        -11    1    3    3    0    0 -0.24293919453E+02 -0.51018883953E+02  0.61562055303E+02  0.83564392508E+02  0.00000000000E+00 0.  1.
         11    1    3    3    0    0  0.17471623714E+02  0.31717851810E+02  0.53186206377E+02  0.64343238242E+02  0.00000000000E+00 0. -1.
</event>
<event>
 7    1  0.4274778E-006  0.1240632E+03  0.7561462E-02  0.1236541E+00
          1   -1    0    0  501    0  0.00000000000E+00  0.00000000000E+00  0.17887742230E+02  0.17887742230E+02  0.00000000000E+00 0. -1.
         -1   -1    0    0    0  501 -0.00000000000E+00 -0.00000000000E+00 -0.95391715511E+03  0.95391715511E+03  0.00000000000E+00 0.  1.
         23    2    1    2    0    0  0.47843043159E+02  0.52054179343E+02 -0.47763670869E+03  0.49141917048E+03  0.91418713946E+02 0.  0.
          5    1    1    2  502    0 -0.31031080970E+02  0.35316095014E+02 -0.23873568546E+03  0.24335643502E+03  0.41800000000E+01 0.  1.
         -5    1    1    2    0  502 -0.16811962189E+02 -0.87370274357E+02 -0.21965701872E+03  0.23702929183E+03  0.41800000000E+01 0.  1.
        -11    1    3    3    0    0  0.72103110261E+02  0.49509063126E+02 -0.41672201909E+03  0.42580188708E+03  0.00000000000E+00 0.  1.
         11    1    3    3    0    0 -0.24260067102E+02  0.25451162171E+01 -0.60914689601E+02  0.65617283406E+02  0.00000000000E+00 0. -1.
</event>
<event>
 7    1  0.4274778E-006  0.1636970E+03  0.7561462E-02  0.1184585E+00
          1   -1    0    0  501    0  0.00000000000E+00  0.00000000000E+00  0.19799331381E+03  0.19799331381E+03  0.00000000000E+00 0. -1.
         -1   -1    0    0    0  501 -0.00000000000E+00 -0.00000000000E+00 -0.15753347235E+03  0.15753347235E+03  0.00000000000E+00 0.  1.
         23    2    1    2    0    0  0.40270426879E+02  0.11725254099E+03  0.82191514419E+02  0.17453309969E+03  0.91304393075E+02 0.  0.
          5    1    1    2  502    0 -0.61719890735E+02 -0.61689230430E+01 -0.69327726968E+01  0.62553467219E+02  0.41800000000E+01 0. -1.
         -5    1    1    2    0  502  0.21449463856E+02 -0.11108361795E+03 -0.34798900260E+02  0.11844021925E+03  0.41800000000E+01 0. -1.
        -11    1    3    3    0    0 -0.21292246102E+02  0.73407180091E+02  0.27456134338E+02  0.81214611652E+02  0.00000000000E+00 0.  1.
         11    1    3    3    0    0  0.61562672982E+02  0.43845360903E+02  0.54735380081E+02  0.93318488040E+02  0.00000000000E+00 0. -1.
</event>
<event>
 7    1  0.4274778E-006  0.1066724E+03  0.7561462E-02  0.1266859E+00
         -2   -1    0    0    0  501 -0.00000000000E+00  0.00000000000E+00  0.11009678061E+03  0.11009678061E+03  0.00000000000E+00 0.  1.
          2   -1    0    0  501    0  0.00000000000E+00 -0.00000000000E+00 -0.14207105728E+03  0.14207105728E+03  0.00000000000E+00 0. -1.
         23    2    1    2    0    0 -0.26158015001E+02  0.34734307276E+02 -0.57693603643E+02  0.11725757933E+03  0.92358400581E+02 0.  0.
          5    1    1    2  502    0  0.59141387402E+01 -0.78692652527E+02 -0.18678055561E+01  0.79047275072E+02  0.41800000000E+01 0. -1.
         -5    1    1    2    0  502  0.20243876261E+02  0.43958345251E+02  0.27587132528E+02  0.55862983490E+02  0.41800000000E+01 0. -1.
        -11    1    3    3    0    0 -0.24930730482E+02 -0.19403655312E+02  0.75372613317E+01  0.32478507820E+02  0.00000000000E+00 0.  1.
         11    1    3    3    0    0 -0.12272845190E+01  0.54137962588E+02 -0.65230864975E+02  0.84779071508E+02  0.00000000000E+00 0. -1.
</event>
<event>
 7    1  0.4274778E-006  0.1376527E+03  0.7561462E-02  0.1216523E+00
          3   -1    0    0  501    0  0.00000000000E+00  0.00000000000E+00  0.40124614860E+03  0.40124614860E+03  0.00000000000E+00 0. -1.
         -3   -1    0    0    0  501 -0.00000000000E+00 -0.00000000000E+00 -0.57167738359E+02  0.57167738359E+02  0.00000000000E+00 0.  1.
         23    2    1    2    0    0  0.55688265180E+02 -0.10194629472E+03  0.14185652872E+03  0.19376941704E+03  0.62682392700E+02 0.  0.
          5    1    1    2  502    0 -0.27461540535E+02 -0.11155045865E+02 -0.14131546920E+01  0.29967326591E+02  0.41800000000E+01 0. -1.
         -5    1    1    2    0  502 -0.28226724645E+02  0.11310134058E+03  0.20363503621E+03  0.23467714332E+03  0.41800000000E+01 0. -1.
        -11    1    3    3    0    0  0.67112259481E+02 -0.85289507222E+02  0.10128680044E+03  0.14844989511E+03  0.00000000000E+00 0.  1.
         11    1    3    3    0    0 -0.11423994301E+02 -0.16656787497E+02  0.40569728275E+02  0.45319521929E+02  0.00000000000E+00 0. -1.
</event>
<event>
 7    1  0.4274778E-006  0.1265430E+03  0.7561462E-02  0.1232677E+00
         -1   -1    0    0    0  501 -0.00000000000E+00  0.00000000000E+00  0.10705584651E+03  0.10705584651E+03  0.00000000000E+00 0.  1.
          1   -1    0    0  501    0  0.00000000000E+00 -0.00000000000E+00 -0.36699811674E+03  0.36699811674E+03  0.00000000000E+00 0. -1.
         23    2    1    2    0    0 -0.98014430915E+02 -0.64174934518E+02 -0.26376289407E+03  0.30262189532E+03  0.91015912630E+02 0.  0.
          5    1    1    2  502    0  0.24437429539E+02  0.29844299667E+02  0.60820077736E+02  0.72141696964E+02  0.41800000000E+01 0. -1.
         -5    1    1    2    0  502  0.73577001376E+02  0.34330634851E+02 -0.56999453902E+02  0.99290370963E+02  0.41800000000E+01 0. -1.
        -11    1    3    3    0    0 -0.75333003312E+02 -0.12246654947E+02 -0.21401702225E+03  0.22721867828E+03  0.00000000000E+00 0. -1.
         11    1    3    3    0    0 -0.22681427603E+02 -0.51928279571E+02 -0.49745871815E+02  0.75403217040E+02  0.00000000000E+00 0.  1.
</event>
<event>
 7    1  0.4274778E-006  0.9966434E+02  0.7561462E-02  0.1281003E+00
         -1   -1    0    0    0  501 -0.00000000000E+00  0.00000000000E+00  0.23367273969E+03  0.23367273969E+03  0.00000000000E+00 0.  1.
          1   -1    0    0  501    0  0.00000000000E+00 -0.00000000000E+00 -0.86305084158E+02  0.86305084158E+02  0.00000000000E+00 0. -1.
         23    2    1    2    0    0 -0.57159632383E+02  0.70997609799E+02  0.18008571289E+02  0.11826737384E+03  0.73177721368E+02 0.  0.
          5    1    1    2  502    0  0.20925635764E+02 -0.37412625261E+02  0.14376534174E+03  0.15007842165E+03  0.41800000000E+01 0. -1.
         -5    1    1    2    0  502  0.36233996619E+02 -0.33584984538E+02 -0.14406257489E+02  0.51632028357E+02  0.41800000000E+01 0. -1.
        -11    1    3    3    0    0 -0.68386718858E+02  0.60535785791E+02 -0.40213973079E+01  0.91419343214E+02  0.00000000000E+00 0. -1.
         11    1    3    3    0    0  0.11227086475E+02  0.10461824008E+02  0.22029968597E+02  0.26848030629E+02  0.00000000000E+00 0.  1.
</event>
<event>
 7    1  0.4274778E-006  0.9167265E+02  0.7561462E-02  0.1298851E+00
          2   -1    0    0  501    0  0.00000000000E+00  0.00000000000E+00  0.11455013387E+03  0.11455013387E+03  0.00000000000E+00 0. -1.
         -2   -1    0    0    0  501 -0.00000000000E+00 -0.00000000000E+00 -0.11846245315E+03  0.11846245315E+03  0.00000000000E+00 0.  1.
         23    2    1    2    0    0  0.22516685168E+02 -0.18842197112E+02  0.24351611438E+02  0.10146052413E+03  0.94017059481E+02 0.  0.
          5    1    1    2  502    0 -0.54564151917E+02  0.98702621594E+01 -0.62477711838E+02  0.83639737123E+02  0.41800000000E+01 0. -1.
         -5    1    1    2    0  502  0.32047466749E+02  0.89719349525E+01  0.34213781123E+02  0.47912325769E+02  0.41800000000E+01 0. -1.
        -11    1    3    3    0    0 -0.34636139861E+02 -0.23662467093E+01 -0.50976505415E+01  0.35089134344E+02  0.00000000000E+00 0. -1.
         11    1    3    3    0    0  0.57152825029E+02 -0.16475950403E+02  0.29449261979E+02  0.66371389782E+02  0.00000000000E+00 0.  1.
</event>
<event>
 7    1  0.4274778E-006  0.1825160E+03  0.7561462E-02  0.1165390E+00
          2   -1    0    0  501    0  0.00000000000E+00  0.00000000000E+00  0.86739072527E+03  0.86739072527E+03  0.00000000000E+00 0.  1.
         -2   -1    0    0    0  501 -0.00000000000E+00 -0.00000000000E+00 -0.44062363429E+02  0.44062363429E+02  0.00000000000E+00 0. -1.
         23    2    1    2    0    0  0.10617191566E+03 -0.10405974994E+03  0.53643844006E+03  0.56496464863E+03  0.96529513629E+02 0.  0.
          5    1    1    2  502    0 -0.46232839786E+02  0.12022217324E+03  0.22123924439E+03  0.25603734508E+03  0.41800000000E+01 0.  1.
         -5    1    1    2    0  502 -0.59939075871E+02 -0.16162423305E+02  0.65650677393E+02  0.90451094993E+02  0.41800000000E+01 0.  1.
        -11    1    3    3    0    0 -0.12895123210E+02 -0.32637717908E+02  0.70067423749E+02  0.78364205500E+02  0.00000000000E+00 0. -1.
         11    1    3    3    0    0  0.11906703887E+03 -0.71422032028E+02  0.46637101631E+03  0.48660044313E+03  0.00000000000E+00 0.  1.
</event>
<event>
 7    1  0.4274778E-006  0.1346351E+03  0.7561462E-02  0.1220736E+00
         -4   -1    0    0    0  501 -0.00000000000E+00  0.00000000000E+00  0.15591856867E+03  0.15591856867E+03  0.00000000000E+00 0.  1.
          4   -1    0    0  501    0  0.00000000000E+00 -0.00000000000E+00 -0.20195974249E+03  0.20195974249E+03  0.00000000000E+00 0. -1.
         23    2    1    2    0    0  0.52573077110E+02 -0.10103971976E+03 -0.10324889417E+03  0.17928663950E+03  0.92251891840E+02 0.  0.
          5    1    1    2  502    0 -0.62558318031E+02  0.15108277053E+02 -0.14554180394E+02  0.66114293140E+02  0.41800000000E+01 0.  1.
         -5    1    1    2    0  502  0.99852409216E+01  0.85931442706E+02  0.71761900744E+02  0.11247737853E+03  0.41800000000E+01 0.  1.
        -11    1    3    3    0    0  0.58167586213E+01 -0.44138217572E+02 -0.95331903709E+02  0.10521496470E+03  0.00000000000E+00 0. -1.
         11    1    3    3    0    0  0.46756318489E+02 -0.56901502186E+02 -0.79169904653E+01  0.74071674800E+02  0.00000000000E+00 0.  1.
</event>
<event>
 7    1  0.4274778E-006  0.1112877E+03  0.7561462E-02  0.1258204E+00
          3   -1    0    0  501    0  0.00000000000E+00  0.00000000000E+00  0.60487557979E+03  0.60487557979E+03  0.00000000000E+00 0. -1.
         -3   -1    0    0    0  501 -0.00000000000E+00 -0.00000000000E+00 -0.33503421549E+02  0.33503421549E+02  0.00000000000E+00 0.  1.
         23    2    1    2    0    0 -0.17705782336E+02  0.90625146105E+02  0.27288245339E+03  0.30182277144E+03  0.90031884125E+02 0.  0.
          5    1    1    2  502    0 -0.74843132015E+01 -0.98800817382E+02  0.11824116795E+03  0.15432453680E+03  0.41800000000E+01 0. -1.
         -5    1    1    2    0  502  0.25190095538E+02  0.81756712769E+01  0.18024853690E+03  0.18223169310E+03  0.41800000000E+01 0. -1.
        -11    1    3    3    0    0 -0.23747514425E+02  0.48132590204E+02  0.45315484633E+02  0.70243745833E+02  0.00000000000E+00 0.  1.
         11    1    3    3    0    0  0.60417320884E+01  0.42492555901E+02  0.22756696876E+03  0.23157902561E+03  0.00000000000E+00 0. -1.
</event>
<event>
 7    1  0.4274778E-006  0.1770869E+03  0.7561462E-02  0.1170652E+00
          2   -1    0    0  501    0  0.00000000000E+00  0.00000000000E+00  0.10580022012E+03  0.10580022012E+03  0.00000000000E+00 0. -1.
         -2   -1    0    0    0  501 -0.00000000000E+00 -0.00000000000E+00 -0.35502232380E+03  0.35502232380E+03  0.00000000000E+00 0.  1.
         23    2    1    2    0    0 -0.15617553166E+03  0.17062423155E+01 -0.76929840091E+02  0.19676658922E+03  0.91679781750E+02 0.  0.
          5    1    1    2  502    0  0.12742637525E+03 -0.53156785386E+02 -0.14020377575E+03  0.19681894237E+03  0.41800000000E+01 0. -1.
         -5    1    1    2    0  502  0.28749156414E+02  0.51450543071E+02 -0.32088487843E+02  0.67237012343E+02  0.41800000000E+01 0. -1.
        -11    1    3    3    0    0 -0.79376739624E+02  0.86333384134E+01  0.10110219015E+02  0.80482407109E+02  0.00000000000E+00 0. -1.
         11    1    3    3    0    0 -0.76798792041E+02 -0.69270960979E+01 -0.87040059106E+02  0.11628418211E+03  0.00000000000E+00 0.  1.
</event>
<event>
 7    1  0.4274778E-006  0.1143310E+03  0.7561462E-02  0.1252753E+00
         -1   -1    0    0    0  501 -0.00000000000E+00  0.00000000000E+00  0.65170586557E+02  0.65170586557E+02  0.00000000000E+00 0.  1.
          1   -1    0    0  501    0  0.00000000000E+00 -0.00000000000E+00 -0.31879232608E+03  0.31879232608E+03  0.00000000000E+00 0. -1.
         23    2    1    2    0    0 -0.77695516914E+02 -0.41813247983E+02 -0.17399471977E+03  0.21144226780E+03  0.81539739089E+02 0.  0.
          5    1    1    2  502    0 -0.18199079419E+01 -0.12112791684E+02 -0.75142162595E+02  0.76248598588E+02  0.41800000000E+01 0. -1.
         -5    1    1    2    0  502  0.79515424855E+02  0.53926039666E+02 -0.44848571558E+01  0.96272046243E+02  0.41800000000E+01 0. -1.
        -11    1    3    3    0    0 -0.53892424301E+02 -0.66274568994E+02 -0.11450763381E+03  0.14285905674E+03  0.00000000000E+00 0. -1.
         11    1    3    3    0    0 -0.23803092613E+02  0.24461321011E+02 -0.59487085958E+02  0.68583211061E+02  0.00000000000E+00 0.  1.
</event>
<event>
 7    1  0.4274778E-006  0.2283323E+03  0.7561462E-02  0.1127819E+00
          3   -1    0    0  501    0  0.00000000000E+00  0.00000000000E+00  0.36504370621E+03  0.36504370621E+03  0.00000000000E+00 0. -1.
         -3   -1    0    0    0  501 -0.00000000000E+00 -0.00000000000E+00 -0.16143224992E+03  0.16143224992E+03  0.00000000000E+00 0.  1.
         23    2    1    2    0    0 -0.16177212825E+03  0.14091554052E+03  0.59430682365E+02  0.23931320134E+03  0.87814527789E+02 0.  0.
          5    1    1    2  502    0  0.15094402658E+02 -0.49648359940E+02  0.93605953641E+02  0.10710904534E+03  0.41800000000E+01 0. -1.
         -5    1    1    2    0  502  0.14667772559E+03 -0.91267180584E+02  0.50574820282E+02  0.18005370944E+03  0.41800000000E+01 0. -1.
        -11    1    3    3    0    0  0.29723926699E+01  0.36784628718E+02  0.10523162812E+02  0.38375525843E+02  0.00000000000E+00 0.  1.
         11    1    3    3    0    0 -0.16474452092E+03  0.10413091181E+03  0.48907519553E+02  0.20093767550E+03  0.00000000000E+00 0. -1.
</event>
<event>
 7    1  0.4274778E-006  0.1385464E+03  0.7561462E-02  0.1215298E+00
         -1   -1    0    0    0  501 -0.00000000000E+00  0.00000000000E+00  0.40782640330E+02  0.40782640330E+02  0.00000000000E+00 0.  1.
          1   -1    0    0  501    0  0.00000000000E+00 -0.00000000000E+00 -0.48092374694E+03  0.48092374694E+03  0.00000000000E+00 0. -1.
         23    2    1    2    0    0 -0.45993158320E+02  0.76661192948E+02 -0.22149232682E+03  0.25441189515E+03  0.87602810682E+02 0.  0.
          5    1    1    2  502    0  0.88236010944E+02 -0.62410475733E+02 -0.14163426114E+03  0.17820885903E+03  0.41800000000E+01 0. -1.
         -5    1    1    2    0  502 -0.42242852624E+02 -0.14250717216E+02 -0.77014518645E+02  0.89085633079E+02  0.41800000000E+01 0. -1.
        -11    1    3    3    0    0 -0.68640949014E+02  0.35742237046E+02 -0.12199493595E+03  0.14447093752E+03  0.00000000000E+00 0.  1.
         11    1    3    3    0    0  0.22647790695E+02  0.40918955903E+02 -0.99497390869E+02  0.10994095763E+03  0.00000000000E+00 0. -1.
</event>
<event>
 7    1  0.4274778E-006  0.1034831E+03  0.7561462E-02  0.1273137E+00
          1   -1    0    0  501    0  0.00000000000E+00  0.00000000000E+00  0.93580575667E+02  0.93580575667E+02  0.00000000000E+00 0. -1.
         -1   -1    0    0    0  501 -0.00000000000E+00 -0.00000000000E+00 -0.14905386744E+03  0.14905386744E+03  0.00000000000E+00 0.  1.
         23    2    1    2    0    0  0.11217074637E+02  0.42843910631E+02 -0.12137693298E+02  0.10304080911E+03  0.92242405115E+02 0.  0.
          5    1    1    2  502    0  0.31246856650E+02 -0.63118333161E+02 -0.56683726653E+02  0.90503078947E+02  0.41800000000E+01 0. -1.
         -5    1    1    2    0  502 -0.42463931288E+02  0.20274422530E+02  0.13348128180E+02  0.49090555051E+02  0.41800000000E+01 0. -1.
        -11    1    3    3    0    0 -0.24065202014E+02  0.47826250217E+02 -0.31872517028E+02  0.62308438429E+02  0.00000000000E+00 0.  1.
         11    1    3    3    0    0  0.35282276651E+02 -0.49823395857E+01  0.19734823730E+02  0.40732370678E+02  0.00000000000E+00 0. -1.
</event>
<event>
 7    1  0.4274778E-006  0.1958975E+03  0.7561462E-02  0.1153247E+00
         -2   -1    0    0    0  501 -0.00000000000E+00  0.00000000000E+00  0.16872415453E+03  0.16872415453E+03  0.00000000000E+00 0.  1.
          2   -1    0    0  501    0  0.00000000000E+00 -0.00000000000E+00 -0.25217318357E+03  0.25217318357E+03  0.00000000000E+00 0. -1.
         23    2    1    2    0    0  0.10931195013E+03  0.13277318811E+03 -0.74215382679E+02  0.20803591221E+03  0.90516273803E+02 0.  0.
          5    1    1    2  502    0 -0.12029270156E+03 -0.67388160684E+02  0.21592938930E+02  0.13962530451E+03  0.41800000000E+01 0. -1.
         -5    1    1    2    0  502  0.10980751429E+02 -0.65385027427E+02 -0.30826585297E+02  0.73236121379E+02  0.41800000000E+01 0. -1.
        -11    1    3    3    0    0  0.20203320333E+02  0.82847788472E+02 -0.61428612604E+02  0.10509712010E+03  0.00000000000E+00 0. -1.
         11    1    3    3    0    0  0.89108629794E+02  0.49925399639E+02 -0.12786770075E+02  0.10293879211E+03  0.00000000000E+00 0.  1.
</event>
<event>
 7    1  0.4274778E-006  0.9979343E+02  0.7561462E-02  0.1280731E+00
         -1   -1    0    0    0  501 -0.00000000000E+00  0.00000000000E+00  0.31650748296E+02  0.31650748296E+02  0.00000000000E+00 0. -1.
          1   -1    0    0  501    0  0.00000000000E+00 -0.00000000000E+00 -0.39032928808E+03  0.39032928808E+03  0.00000000000E+00 0.  1.
         23    2    1    2    0    0  0.70754195394E+01 -0.20491990993E+02 -0.18685092579E+03  0.20834445565E+03  0.89577678437E+02 0.  0.
          5    1    1    2  502    0  0.41615201562E+02  0.48433939733E+02 -0.56771726353E+02  0.85546319805E+02  0.41800000000E+01 0.  1.
         -5    1    1    2    0  502 -0.48690621101E+02 -0.27941948741E+02 -0.11505588764E+03  0.12808926092E+03  0.41800000000E+01 0.  1.
        -11    1    3    3    0    0 -0.25354916689E+02 -0.35451511063E+02 -0.47400224540E+02  0.64393033189E+02  0.00000000000E+00 0. -1.
         11    1    3    3    0    0  0.32430336228E+02  0.14959520070E+02 -0.13945070125E+03  0.14395142246E+03  0.00000000000E+00 0.  1.
</event>
<event>
 6    1  0.4274778E-006  0.3878122E+03  0.7561462E-02  0.1048084E+00
          2   -1    0    0  501    0  0.00000000000E+00  0.00000000000E+00  0.63628225943E+03  0.63628225943E+03  0.00000000000E+00 0. -1.
         -2   -1    0    0    0  501 -0.00000000000E+00 -0.00000000000E+00 -0.25470452328E+03  0.25470452328E+03  0.00000000000E+00 0.  1.
          5    1    1    2  502    0 -0.11061400854E+03  0.32031235931E+03  0.23111210741E+03  0.41020207825E+03  0.41800000000E+01 0. -1.
         -5    1    1    2    0  502  0.93793591124E+02 -0.43167931328E+02 -0.19999892456E+02  0.10525291506E+03  0.41800000000E+01 0.  1.
        -11    1    1    2    0    0 -0.77494590945E+02 -0.18911148078E+03  0.88730167850E+02  0.22280396423E+03  0.00000000000E+00 0.  1.
         11    1    1    2    0    0  0.94315008363E+02 -0.88032947201E+02  0.81735353349E+02  0.15272782517E+03  0.00000000000E+00 0. -1.
</event>
<event>
 7    1  0.4274778E-006  0.8036060E+02  0.7561462E-02  0.1328031E+00
          2   -1    0    0  501    0  0.00000000000E+00  0.00000000000E+00  0.33474374185E+03  0.33474374185E+03  0.00000000000E+00 0. -1.
         -2   -1    0    0    0  501 -0.00000000000E+00 -0.00000000000E+00 -0.37662713516E+02  0.37662713516E+02  0.00000000000E+00 0.  1.
         23    2    1    2    0    0  0.35468585762E+01 -0.28765462182E+02  0.13267016942E+03  0.16379357618E+03  0.91580181935E+02 0.  0.
          5    1    1    2  502    0  0.20513497264E+02  0.52528017454E+02  0.16511759697E+03  0.17453162870E+03  0.41800000000E+01 0. -1.
         -5    1    1    2    0  502 -0.24060355840E+02 -0.23762555272E+02 -0.70673805243E+00  0.34081250489E+02  0.41800000000E+01 0. -1.
        -11    1    3    3    0    0 -0.20300729482E+02 -0.39142429225E+02  0.20460676983E+02  0.48609553441E+02  0.00000000000E+00 0.  1.
         11    1    3    3    0    0  0.23847588058E+02  0.10376967043E+02  0.11220949244E+03  0.11518402274E+03  0.00000000000E+00 0. -1.
</event>
<event>
 6    1  0.4274778E-006  0.8231748E+02  0.7561462E-02  0.1322600E+00
          1   -1    0    0  501    0  0.00000000000E+00  0.00000000000E+00  0.11886953406E+03  0.11886953406E+03  0.00000000000E+00 0. -1.
         -1   -1    0    0    0  501 -0.00000000000E+00 -0.00000000000E+00 -0.13537869510E+03  0.13537869510E+03  0.00000000000E+00 0.  1.
          5    1    1    2  502    0 -0.31814824344E+02  0.35394989335E+02 -0.28779859326E+02  0.55774017435E+02  0.41800000000E+01 0.  1.
         -5    1    1    2    0  502  0.56518542664E+02 -0.57799628354E+02 -0.71015517673E+02  0.10768388391E+03  0.41800000000E+01 0.  1.
        -11    1    1    2    0    0 -0.20505343641E+02  0.99960974733E+01  0.57697937932E+02  0.62043880634E+02  0.00000000000E+00 0.  1.
         11    1    1    2    0    0 -0.41983746794E+01  0.12408541545E+02  0.25588278028E+02  0.28746447184E+02  0.00000000000E+00 0. -1.
</event>
<event>
 7    1  0.4274778E-006  0.1348764E+03  0.7561462E-02  0.1220394E+00
          2   -1    0    0  501    0  0.00000000000E+00  0.00000000000E+00  0.91152814645E+03  0.91152814645E+03  0.00000000000E+00 0. -1.
         -2   -1    0    0    0  501 -0.00000000000E+00 -0.00000000000E+00 -0.30651915615E+02  0.30651915615E+02  0.00000000000E+00 0.  1.
         23    2    1    2    0    0 -0.78655871545E+02  0.34542459503E+02  0.46727228249E+03  0.48417206442E+03  0.93269900493E+02 0.  0.
          5    1    1    2  502    0  0.33266957178E+02  0.58809507250E+02  0.63502140002E+02  0.92818332067E+02  0.41800000000E+01 0. -1.
         -5    1    1    2    0  502  0.45388914366E+02 -0.93351966753E+02  0.35010180834E+03  0.36518966559E+03  0.41800000000E+01 0.  1.
        -11    1    3    3    0    0  0.35991460830E+01  0.12508943242E+02  0.47186332600E+01  0.13845324604E+02  0.00000000000E+00 0.  1.
         11    1    3    3    0    0 -0.82255017628E+02  0.22033516261E+02  0.46255364923E+03  0.47032673981E+03  0.00000000000E+00 0. -1.
</event>
<event>
 7    1  0.4274778E-006  0.1253637E+03  0.7561462E-02  0.1234502E+00
         -4   -1    0    0    0  501 -0.00000000000E+00  0.00000000000E+00  0.19113065671E+03  0.19113065671E+03  0.00000000000E+00 0.  1.
          4   -1    0    0  501    0  0.00000000000E+00 -0.00000000000E+00 -0.10996748535E+03  0.10996748535E+03  0.00000000000E+00 0. -1.
         23    2    1    2    0    0  0.87139775770E+02  0.26498294958E+02  0.62305189452E+01  0.12917398235E+03  0.91387078912E+02 0.  0.
          5    1    1    2  502    0 -0.66438788692E+02 -0.55363934349E+02 -0.25111341574E+01  0.86620182777E+02  0.41800000000E+01 0. -1.
         -5    1    1    2    0  502 -0.20700987078E+02  0.28865639391E+02  0.77443786570E+02  0.85303976940E+02  0.41800000000E+01 0. -1.
        -11    1    3    3    0    0  0.43492226071E+02 -0.32993919161E+02  0.90386885598E+01  0.55334169562E+02  0.00000000000E+00 0.  1.
         11    1    3    3    0    0  0.43647549699E+02  0.59492214119E+02 -0.28081696146E+01  0.73839812785E+02  0.00000000000E+00 0. -1.
</event>
<event>
 7    1  0.4274778E-006  0.8178289E+02  0.7561462E-02  0.1324067E+00
          2   -1    0    0  501    0  0.00000000000E+00  0.00000000000E+00  0.66216692655E+03  0.66216692655E+03  0.00000000000E+00 0.  1.
         -2   -1    0    0    0  501 -0.00000000000E+00 -0.00000000000E+00 -0.18799186022E+02  0.18799186022E+02  0.00000000000E+00 0. -1.
         23    2    1    2    0    0 -0.23531966021E+02 -0.15300714354E+02  0.28684850873E+03  0.30209499017E+03  0.90506634239E+02 0.  0.
          5    1    1    2  502    0  0.22021169767E+02 -0.28177348297E+02  0.31970936257E+03  0.32173038990E+03  0.41800000000E+01 0.  1.
         -5    1    1    2    0  502  0.15107962536E+01  0.43478062651E+02  0.36809869227E+02  0.57140732492E+02  0.41800000000E+01 0.  1.
        -11    1    3    3    0    0 -0.32162842720E+02 -0.43651344336E+02  0.24428967034E+03  0.25023455267E+03  0.00000000000E+00 0.  1.
         11    1    3    3    0    0  0.86308766993E+01  0.28350629981E+02  0.42558838392E+02  0.51860437505E+02  0.00000000000E+00 0. -1.
</event>
<event>
 7    1  0.4274778E-006  0.1750095E+03  0.7561462E-02  0.1172722E+00
          4   -1    0    0  501    0  0.00000000000E+00  0.00000000000E+00  0.34511870737E+02  0.34511870737E+02  0.00000000000E+00 0. -1.
         -4   -1    0    0    0  501 -0.00000000000E+00 -0.00000000000E+00 -0.10223131779E+04  0.10223131779E+04  0.00000000000E+00 0.  1.
         23    2    1    2    0    0  0.13857270659E+03  0.38760387777E+02 -0.32255113639E+03  0.36479012551E+03  0.91256985545E+02 0.  0.
          5    1    1    2  502    0 -0.21532601116E+02 -0.64720124604E+02 -0.29610584289E+03  0.30388894359E+03  0.41800000000E+01 0.  1.
         -5    1    1    2    0  502 -0.11704010548E+03  0.25959736827E+02 -0.36914432788E+03  0.38814597954E+03  0.41800000000E+01 0.  1.
        -11    1    3    3    0    0  0.12784836775E+03  0.57461339735E+02 -0.30905752361E+03  0.33935757484E+03  0.00000000000E+00 0.  1.
         11    1    3    3    0    0  0.10724338844E+02 -0.18700951958E+02 -0.13493612776E+02  0.25432550669E+02  0.00000000000E+00 0. -1.
</event>
<event>
 7    1  0.4274778E-006  0.7573510E+02  0.7561462E-02  0.1341610E+00
         -2   -1    0    0    0  501 -0.00000000000E+00  0.00000000000E+00  0.23042491160E+03  0.23042491160E+03  0.00000000000E+00 0.  1.
          2   -1    0    0  501    0  0.00000000000E+00 -0.00000000000E+00 -0.46947205832E+02  0.46947205832E+02  0.00000000000E+00 0. -1.
         23    2    1    2    0    0  0.78939701680E+00  0.30720757833E+01  0.90466793135E+02  0.12873675655E+03  0.91536064093E+02 0.  0.
          5    1    1    2  502    0 -0.23651603916E+02 -0.28461827510E+02 -0.11198035952E+02  0.38888846758E+02  0.41800000000E+01 0. -1.
         -5    1    1    2    0  502  0.22862206899E+02  0.25389751727E+02  0.10420894859E+03  0.10974651412E+03  0.41800000000E+01 0.  1.
        -11    1    3    3    0    0  0.32333322723E+02  0.25436925523E+02  0.77868920728E+02  0.88068437898E+02  0.00000000000E+00 0.  1.
         11    1    3    3    0    0 -0.31543925706E+02 -0.22364849740E+02  0.12597872407E+02  0.40668318652E+02  0.00000000000E+00 0. -1.
</event>
<event>
 6    1  0.4274778E-006  0.5535157E+02  0.7561462E-02  0.1418444E+00
          1   -1    0    0  501    0  0.00000000000E+00  0.00000000000E+00  0.68470335879E+02  0.68470335879E+02  0.00000000000E+00 0. -1.
         -1   -1    0    0    0  501 -0.00000000000E+00 -0.00000000000E+00 -0.12639603467E+03  0.12639603467E+03  0.00000000000E+00 0.  1.
          5    1    1    2  502    0  0.13364257781E+02 -0.83875259810E+01 -0.68763598785E+02  0.70674315674E+02  0.41800000000E+01 0. -1.
         -5    1    1    2    0  502 -0.52556718099E+02  0.11381655422E+00  0.37064892080E+02  0.64447654701E+02  0.41800000000E+01 0. -1.
        -11    1    1    2    0    0  0.11845473968E+02 -0.27699768020E+01 -0.27659939686E+02  0.30216887471E+02  0.00000000000E+00 0.  1.
         11    1    1    2    0    0  0.27346986350E+02  0.11043686229E+02  0.14329475949E+01  0.29527512708E+02  0.00000000000E+00 0. -1.
</event>
<event>
 7    1  0.4274778E-006  0.1355549E+03  0.7561462E-02  0.1219438E+00
          4   -1    0    0  501    0  0.00000000000E+00  0.00000000000E+00  0.19904710778E+03  0.19904710778E+03  0.00000000000E+00 0.  1.
         -4   -1    0    0    0  501 -0.00000000000E+00 -0.00000000000E+00 -0.94178184578E+02  0.94178184578E+02  0.00000000000E+00 0. -1.
         23    2    1    2    0    0  0.56611939243E+02  0.60692049107E+02  0.51112636281E+02  0.13377200991E+03  0.91618843903E+02 0.  0.
          5    1    1    2  502    0 -0.94247452058E+02 -0.23916581415E+02  0.34048004860E+02  0.10310831257E+03  0.41800000000E+01 0.  1.
         -5    1    1    2    0  502  0.37635512814E+02 -0.36775467693E+02  0.19708282061E+02  0.56344969879E+02  0.41800000000E+01 0.  1.
        -11    1    3    3    0    0 -0.10826993340E+02  0.51867819760E+02  0.89129504766E+01  0.53730207497E+02  0.00000000000E+00 0. -1.
         11    1    3    3    0    0  0.67438932584E+02  0.88242293472E+01  0.42199685805E+02  0.80041802414E+02  0.00000000000E+00 0.  1.
</event>
<event>
 7    1  0.4274778E-006  0.1155204E+03  0.7561462E-02  0.1250675E+00
          3   -1    0    0  501    0  0.00000000000E+00  0.00000000000E+00  0.29204118557E+03  0.29204118557E+03  0.00000000000E+00 0. -1.
         -3   -1    0    0    0  501 -0.00000000000E+00 -0.00000000000E+00 -0.10263983367E+03  0.10263983367E+03  0.00000000000E+00 0.  1.
         23    2    1    2    0    0  0.76297057543E+02  0.38941573835E+02  0.19857492030E+03  0.24279508387E+03  0.11036197995E+03 0.  0.
          5    1    1    2  502    0 -0.66662660187E+02 -0.60311202238E+02  0.39052839880E+02  0.98101723131E+02  0.41800000000E+01 0.  1.
         -5    1    1    2    0  502 -0.96343973552E+01  0.21369628402E+02 -0.48226408276E+02  0.53784212235E+02  0.41800000000E+01 0.  1.
        -11    1    3    3    0    0  0.44835895106E+02 -0.21022918372E+02  0.15389638072E+03  0.16166730215E+03  0.00000000000E+00 0. -1.
         11    1    3    3    0    0  0.31461162436E+02  0.59964492207E+02  0.44678539577E+02  0.81127781717E+02  0.00000000000E+00 0.  1.
</event>
<event>
 7    1  0.4274778E-006  0.1056314E+03  0.7561462E-02  0.1268881E+00
          2   -1    0    0  501    0  0.00000000000E+00  0.00000000000E+00  0.62659244737E+02  0.62659244737E+02  0.00000000000E+00 0.  1.
         -2   -1    0    0    0  501 -0.00000000000E+00 -0.00000000000E+00 -0.37208577257E+03  0.37208577257E+03  0.00000000000E+00 0. -1.
         23    2    1    2    0    0 -0.63993446213E+02  0.22122430411E+02 -0.21291352401E+02  0.11341169046E+03  0.88455224613E+02 0.  0.
          5    1    1    2  502    0  0.89544486814E+02 -0.51001666459E+02 -0.19944949080E+03  0.22453720600E+03  0.41800000000E+01 0.  1.
         -5    1    1    2    0  502 -0.25551040602E+02  0.28879236049E+02 -0.88685684641E+02  0.96796120846E+02  0.41800000000E+01 0.  1.
        -11    1    3    3    0    0 -0.43125735102E+02  0.72845493708E+01  0.32063686924E+02  0.54230745033E+02  0.00000000000E+00 0.  1.
         11    1    3    3    0    0 -0.20867711110E+02  0.14837881040E+02 -0.53355039325E+02  0.59180945431E+02  0.00000000000E+00 0. -1.
</event>
<event>
 7    1  0.4274778E-006  0.8974298E+02  0.7561462E-02  0.1303475E+00
          1   -1    0    0  501    0  0.00000000000E+00  0.00000000000E+00  0.11782054095E+03  0.11782054095E+03  0.00000000000E+00 0. -1.
         -1   -1    0    0    0  501 -0.00000000000E+00 -0.00000000000E+00 -0.53016888064E+03  0.53016888064E+03  0.00000000000E+00 0.  1.
         23    2    1    2    0    0 -0.23403017725E+02 -0.25307029874E+02  0.89295995899E+02  0.13211965432E+03  0.91069650132E+02 0.  0.
          5    1    1    2  502    0  0.40115780840E+02  0.49832418008E+02 -0.15231420668E+03  0.16525627284E+03  0.41800000000E+01 0. -1.
         -5    1    1    2    0  502 -0.16712763115E+02 -0.24525388133E+02 -0.34933012891E+03  0.35061349443E+03  0.41800000000E+01 0.  1.
        -11    1    3    3    0    0 -0.36312074434E+02  0.17776076017E+02  0.11122704400E+02  0.41931732393E+02  0.00000000000E+00 0.  1.
         11    1    3    3    0    0  0.12909056709E+02 -0.43083105891E+02  0.78173291499E+02  0.90187921930E+02  0.00000000000E+00 0. -1.
</event>
<event>
 7    1  0.4274778E-006  0.1756167E+03  0.7561462E-02  0.1172114E+00
         -1   -1    0    0    0  501 -0.00000000000E+00  0.00000000000E+00  0.31615326372E+02  0.31615326372E+02  0.00000000000E+00 0.  1.
          1   -1    0    0  501    0  0.00000000000E+00 -0.00000000000E+00 -0.12165209134E+04  0.12165209134E+04  0.00000000000E+00 0. -1.
         23    2    1    2    0    0  0.54966752227E+02  0.15302817094E+03 -0.50615828932E+03  0.53906354025E+03  0.89187003670E+02 0.  0.
          5    1    1    2  502    0 -0.28156976640E+02 -0.10614160814E+02 -0.24710441672E+02  0.39160618878E+02  0.41800000000E+01 0.  1.
         -5    1    1    2    0  502 -0.26809775587E+02 -0.14241401012E+03 -0.65403685607E+03  0.66991208068E+03  0.41800000000E+01 0.  1.
        -11    1    3    3    0    0  0.54070229635E+02  0.52563946865E+02 -0.13593850725E+03  0.15545364581E+03  0.00000000000E+00 0.  1.
         11    1    3    3    0    0  0.89652259160E+00  0.10046422407E+03 -0.37021978207E+03  0.38360989444E+03  0.00000000000E+00 0. -1.
</event>
<event>
 7    1  0.4274778E-006  0.1121001E+03  0.7561462E-02  0.1256729E+00
         -2   -1    0    0    0  501 -0.00000000000E+00  0.00000000000E+00  0.22952370554E+03  0.22952370554E+03  0.00000000000E+00 0.  1.
          2   -1    0    0  501    0  0.00000000000E+00 -0.00000000000E+00 -0.59058713244E+02  0.59058713244E+02  0.00000000000E+00 0. -1.
         23    2    1    2    0    0 -0.41054380904E+02 -0.13668242651E+02  0.76899522222E+02  0.12649093152E+03  0.90631871823E+02 0.  0.
          5    1    1    2  502    0 -0.39538801474E+02 -0.18540097688E+02  0.19882081251E+02  0.48164526357E+02  0.41800000000E+01 0. -1.
         -5    1    1    2    0  502  0.80593182378E+02  0.32208340339E+02  0.73683388823E+02  0.11392696091E+03  0.41800000000E+01 0. -1.
        -11    1    3    3    0    0  0.75138802048E+01  0.28281574973E+02  0.42746741763E+01  0.29573277093E+02  0.00000000000E+00 0. -1.
         11    1    3    3    0    0 -0.48568261109E+02 -0.41949817624E+02  0.72624848045E+02  0.96917654426E+02  0.00000000000E+00 0.  1.
</event>
<event>
 7    1  0.4274778E-006  0.2612616E+03  0.7561462E-02  0.1106388E+00
          1   -1    0    0  501    0  0.00000000000E+00  0.00000000000E+00  0.52552253053E+03  0.52552253053E+03  0.00000000000E+00 0. -1.
         -1   -1    0    0    0  501 -0.00000000000E+00 -0.00000000000E+00 -0.16972091725E+03  0.16972091725E+03  0.00000000000E+00 0.  1.
         23    2    1    2    0    0 -0.23206907641E+03  0.73052190773E+02  0.33141525136E+03  0.42059321771E+03  0.88712497082E+02 0.  0.
          5    1    1    2  502    0  0.24277447114E+03 -0.54142208723E+02  0.11491502174E+02  0.24903885164E+03  0.41800000000E+01 0.  1.
         -5    1    1    2    0  502 -0.10705394725E+02 -0.18909982050E+02  0.12894859741E+02  0.25611378430E+02  0.41800000000E+01 0.  1.
        -11    1    3    3    0    0 -0.91690217626E+02  0.62255201306E+02  0.97686535948E+02  0.14773444217E+03  0.00000000000E+00 0.  1.
         11    1    3    3    0    0 -0.14037885879E+03  0.10796989467E+02  0.23372871542E+03  0.27285877554E+03  0.00000000000E+00 0. -1.
</event>
<event>
 7    1  0.4274778E-006  0.1255472E+03  0.7561462E-02  0.1234217E+00
          2   -1    0    0  501    0  0.00000000000E+00  0.00000000000E+00  0.63187169104E+03  0.63187169104E+03  0.00000000000E+00 0. -1.
         -2   -1    0    0    0  501 -0.00000000000E+00 -0.00000000000E+00 -0.35788599803E+02  0.35788599803E+02  0.00000000000E+00 0.  1.
         23    2    1    2    0    0  0.10258905169E+03  0.75825438663E+01  0.29507431143E+03  0.32584743281E+03  0.92334672297E+02 0.  0.
          5    1    1    2  502    0 -0.88199261102E+01  0.23840339735E+02  0.87218591172E+00  0.25775686286E+02  0.41800000000E+01 0. -1.
         -5    1    1    2    0  502 -0.93769125583E+02 -0.31422883601E+02  0.30013659390E+03  0.31603717175E+03  0.41800000000E+01 0. -1.
        -11    1    3    3    0    0  0.18350388579E+02 -0.29155593805E+02  0.31386502630E+02  0.46603626023E+02  0.00000000000E+00 0.  1.
         11    1    3    3    0    0  0.84238663115E+02  0.36738137671E+02  0.26368780880E+03  0.27924380679E+03  0.00000000000E+00 0. -1.
</event>
<event>
 7    1  0.4274778E-006  0.2117819E+03  0.7561462E-02  0.1140163E+00
         -1   -1    0    0    0  501 -0.00000000000E+00  0.00000000000E+00  0.33158771040E+02  0.33158771040E+02  0.00000000000E+00 0.  1.
          1   -1    0    0  501    0  0.00000000000E+00 -0.00000000000E+00 -0.15538832194E+04  0.15538832194E+04  0.00000000000E+00 0. -1.
         23    2    1    2    0    0  0.69105350606E+02 -0.18322252841E+03 -0.84531257968E+03  0.87277745918E+03  0.94027078482E+02 0.  0.
          5    1    1    2  502    0 -0.56596131668E+02  0.60325741107E+02 -0.12363627061E+03  0.14881437084E+03  0.41800000000E+01 0. -1.
         -5    1    1    2    0  502 -0.12509218938E+02  0.12289678730E+03 -0.55177559809E+03  0.56545016043E+03  0.41800000000E+01 0. -1.
        -11    1    3    3    0    0  0.79185822358E+01  0.10972306212E+02 -0.59011944566E+02  0.60543414586E+02  0.00000000000E+00 0. -1.
         11    1    3    3    0    0  0.61186768370E+02 -0.19419483462E+03 -0.78630063511E+03  0.81223404459E+03  0.00000000000E+00 0.  1.
</event>
<event>
 7    1  0.4274778E-006  0.1401407E+03  0.7561462E-02  0.1213140E+00
         -2   -1    0    0    0  501 -0.00000000000E+00  0.00000000000E+00  0.60401815056E+02  0.60401815056E+02  0.00000000000E+00 0.  1.
          2   -1    0    0  501    0  0.00000000000E+00 -0.00000000000E+00 -0.48432722327E+03  0.48432722327E+03  0.00000000000E+00 0. -1.
         23    2    1    2    0    0 -0.55263978183E+02 -0.11502332372E+03 -0.24636580880E+03  0.29281736518E+03  0.93602485640E+02 0.  0.
          5    1    1    2  502    0  0.63381467774E+02  0.10692961846E+03 -0.68143486455E+02  0.14181735052E+03  0.41800000000E+01 0. -1.
         -5    1    1    2    0  502 -0.81174895904E+01  0.80937052563E+01 -0.10941611295E+03  0.11009432263E+03  0.41800000000E+01 0. -1.
        -11    1    3    3    0    0 -0.37979370479E+02 -0.12868607146E+02 -0.22126029468E+02  0.45799506677E+02  0.00000000000E+00 0.  1.
         11    1    3    3    0    0 -0.17284607705E+02 -0.10215471657E+03 -0.22423977934E+03  0.24701785850E+03  0.00000000000E+00 0. -1.
</event>
<event>
 7    1  0.4274778E-006  0.1844902E+03  0.7561462E-02  0.1163527E+00
          1   -1    0    0  501    0  0.00000000000E+00  0.00000000000E+00  0.35748860658E+03  0.35748860658E+03  0.00000000000E+00 0. -1.
         -1   -1    0    0    0  501 -0.00000000000E+00 -0.00000000000E+00 -0.14363710710E+03  0.14363710710E+03  0.00000000000E+00 0.  1.
         23    2    1    2    0    0  0.54974639593E+02  0.15935097502E+03  0.22107525060E+03  0.29109059042E+03  0.86281638624E+02 0.  0.
          5    1    1    2  502    0 -0.74604023717E+02 -0.73122900203E+02  0.37216995753E+02  0.11097430361E+03  0.41800000000E+01 0.  1.
         -5    1    1    2    0  502  0.19629384124E+02 -0.86228074812E+02 -0.44440746880E+02  0.99060819652E+02  0.41800000000E+01 0.  1.
        -11    1    3    3    0    0  0.11239215780E+01  0.79964779885E+02  0.15559869436E+03  0.17494737182E+03  0.00000000000E+00 0. -1.
         11    1    3    3    0    0  0.53850718015E+02  0.79386195131E+02  0.65476556248E+02  0.11614321860E+03  0.00000000000E+00 0.  1.
</event>
<event>
 7    1  0.4274778E-006  0.1204532E+03  0.7561462E-02  0.1242351E+00
         -1   -1    0    0    0  501 -0.00000000000E+00  0.00000000000E+00  0.68263668256E+03  0.68263668256E+03  0.00000000000E+00 0.  1.
          1   -1    0    0  501    0  0.00000000000E+00 -0.00000000000E+00 -0.57804357568E+02  0.57804357568E+02  0.00000000000E+00 0. -1.
         23    2    1    2    0    0 -0.42357865070E+02  0.84197988772E+02  0.43097678014E+02  0.13799087374E+03  0.91107526245E+02 0.  0.
          5    1    1    2  502    0  0.20175199130E+02  0.24255360824E+02  0.49781934542E+02  0.59085316242E+02  0.41800000000E+01 0. -1.
         -5    1    1    2    0  502  0.22182665940E+02 -0.10845334960E+03  0.53195271243E+03  0.54336485015E+03  0.41800000000E+01 0. -1.
        -11    1    3    3    0    0 -0.20749947032E+02  0.68559023111E+02 -0.15784527315E+02  0.73348832672E+02  0.00000000000E+00 0. -1.
         11    1    3    3    0    0 -0.21607918039E+02  0.15638965661E+02  0.58882205329E+02  0.64642041068E+02  0.00000000000E+00 0.  1.
</event>
<event>
 7    1  0.4274778E-006  0.2033958E+03  0.7561462E-02  0.1146905E+00
          2   -1    0    0  501    0  0.00000000000E+00  0.00000000000E+00  0.22190958106E+03  0.22190958106E+03  0.00000000000E+00 0. -1.
         -2   -1    0    0    0  501 -0.00000000000E+00 -0.00000000000E+00 -0.22216237232E+03  0.22216237232E+03  0.00000000000E+00 0.  1.
         23    2    1    2    0    0  0.15201467498E+03 -0.10194098040E+03  0.62334088222E+02  0.21371378439E+03  0.91036356409E+02 0.  0.
          5    1    1    2  502    0 -0.66252706447E+02  0.10993426111E+03 -0.88001055697E+01  0.12872403480E+03  0.41800000000E+01 0. -1.
         -5    1    1    2    0  502 -0.85761968537E+02 -0.79932807074E+01 -0.53786773918E+02  0.10163413419E+03  0.41800000000E+01 0. -1.
        -11    1    3    3    0    0  0.81187023040E+02 -0.19596050385E+02 -0.86423047665E+01  0.83964440881E+02  0.00000000000E+00 0.  1.
         11    1    3    3    0    0  0.70827651944E+02 -0.82344930018E+02  0.70976392989E+02  0.12974934351E+03  0.00000000000E+00 0. -1.
</event>
<event>
 7    1  0.4274778E-006  0.1272719E+03  0.7561462E-02  0.1231561E+00
         -1   -1    0    0    0  501 -0.00000000000E+00  0.00000000000E+00  0.75023551334E+02  0.75023551334E+02  0.00000000000E+00 0.  1.
          1   -1    0    0  501    0  0.00000000000E+00 -0.00000000000E+00 -0.24582054467E+03  0.24582054467E+03  0.00000000000E+00 0. -1.
         23    2    1    2    0    0 -0.43416617617E+02 -0.68104555852E+02 -0.11791009088E+03  0.16283267277E+03  0.78028562571E+02 0.  0.
          5    1    1    2  502    0 -0.84858682729E+01  0.91129842359E+02 -0.27367911406E+02  0.95619731768E+02  0.41800000000E+01 0. -1.
         -5    1    1    2    0  502  0.51902485890E+02 -0.23025286507E+02 -0.25518991058E+02  0.62391691474E+02  0.41800000000E+01 0. -1.
        -11    1    3    3    0    0  0.15956652692E+02 -0.33903195227E+02 -0.69432773733E+02  0.78898361707E+02  0.00000000000E+00 0. -1.
         11    1    3    3    0    0 -0.59373270309E+02 -0.34201360625E+02 -0.48477317143E+02  0.83934311060E+02  0.00000000000E+00 0.  1.
</event>
<event>
 7    1  0.4274778E-006  0.1099096E+03  0.7561462E-02  0.1260737E+00
          1   -1    0    0  501    0  0.00000000000E+00  0.00000000000E+00  0.68724649058E+02  0.68724649058E+02  0.00000000000E+00 0. -1.
         -1   -1    0    0    0  501 -0.00000000000E+00 -0.00000000000E+00 -0.22022212743E+03  0.22022212743E+03  0.00000000000E+00 0.  1.
         23    2    1    2    0    0 -0.59122334153E+02  0.91138510077E+01 -0.38706580895E+02  0.11020745336E+03  0.84077171074E+02 0.  0.
          5    1    1    2  502    0  0.59307479921E+02  0.37707774853E+02 -0.11131140911E+03  0.13170784205E+03  0.41800000000E+01 0. -1.
         -5    1    1    2    0  502 -0.18514576846E+00 -0.46821625860E+02 -0.14794883728E+01  0.47031481084E+02  0.41800000000E+01 0. -1.
        -11    1    3    3    0    0  0.17288157117E+01  0.35885384313E+02 -0.72080015528E+01  0.36642937893E+02  0.00000000000E+00 0.  1.
         11    1    3    3    0    0 -0.60851149864E+02 -0.26771533306E+02 -0.31498579342E+02  0.73564515467E+02  0.00000000000E+00 0. -1.
</event>
<event>
 7    1  0.4274778E-006  0.7718879E+02  0.7561462E-02  0.1337224E+00
          1   -1    0    0  501    0  0.00000000000E+00  0.00000000000E+00  0.10663267374E+03  0.10663267374E+03  0.00000000000E+00 0. -1.
         -1   -1    0    0    0  501 -0.00000000000E+00 -0.00000000000E+00 -0.22593807569E+03  0.22593807569E+03  0.00000000000E+00 0.  1.
         23    2    1    2    0    0 -0.21278454506E+01  0.99868545555E+01  0.59215792211E+02  0.10771743601E+03  0.89399502140E+02 0.  0.
          5    1    1    2  502    0 -0.14351075816E+02 -0.34499611663E+02  0.58793174717E+01  0.38055424789E+02  0.41800000000E+01 0. -1.
         -5    1    1    2    0  502  0.16478921267E+02  0.24512757107E+02 -0.18440051163E+03  0.18679788863E+03  0.41800000000E+01 0.  1.
        -11    1    3    3    0    0 -0.28652575717E+01 -0.38424332245E+02  0.12683037325E+02  0.40564743870E+02  0.00000000000E+00 0.  1.
         11    1    3    3    0    0  0.73741212114E+00  0.48411186801E+02  0.46532754886E+02  0.67152692138E+02  0.00000000000E+00 0. -1.
</event>
<event>
 7    1  0.4274778E-006  0.9496179E+02  0.7561462E-02  0.1291262E+00
         -1   -1    0    0    0  501 -0.00000000000E+00  0.00000000000E+00  0.33157228349E+03  0.33157228349E+03  0.00000000000E+00 0.  1.
          1   -1    0    0  501    0  0.00000000000E+00 -0.00000000000E+00 -0.37600899199E+02  0.37600899199E+02  0.00000000000E+00 0. -1.
         23    2    1    2    0    0 -0.14629546824E+02  0.12255463492E+02  0.92909550727E+02  0.13160678305E+03  0.91235632864E+02 0.  0.
          5    1    1    2  502    0 -0.28951050923E+02  0.43669911771E+02  0.11144436179E+03  0.12321746109E+03  0.41800000000E+01 0. -1.
         -5    1    1    2    0  502  0.43580597747E+02 -0.55925375263E+02  0.89617471776E+02  0.11434893854E+03  0.41800000000E+01 0. -1.
        -11    1    3    3    0    0 -0.16216231439E+02 -0.24591701365E+02 -0.22571572017E+01  0.29543403608E+02  0.00000000000E+00 0. -1.
         11    1    3    3    0    0  0.15866846149E+01  0.36847164857E+02  0.95166707928E+02  0.10206337945E+03  0.00000000000E+00 0.  1.
</event>
<event>
 7    1  0.4274778E-006  0.8962090E+02  0.7561462E-02  0.1303772E+00
          4   -1    0    0  501    0  0.00000000000E+00  0.00000000000E+00  0.48378767917E+02  0.48378767917E+02  0.00000000000E+00 0.  1.
         -4   -1    0    0    0  501 -0.00000000000E+00 -0.00000000000E+00 -0.26936588134E+03  0.26936588134E+03  0.00000000000E+00 0. -1.
         23    2    1    2    0    0 -0.19907201027E+02 -0.14900098897E+02 -0.55257577482E+02  0.10862693003E+03  0.90155978494E+02 0.  0.
          5    1    1    2  502    0  0.10159741098E+01  0.47970307783E+02 -0.16382289718E+03  0.17075595648E+03  0.41800000000E+01 0.  1.
         -5    1    1    2    0  502  0.18891226917E+02 -0.33070208887E+02 -0.19066387639E+01  0.38361762754E+02  0.41800000000E+01 0.  1.
        -11    1    3    3    0    0 -0.52691621174E+02  0.72656436082E+01 -0.24792921634E+02  0.58684627306E+02  0.00000000000E+00 0. -1.
         11    1    3    3    0    0  0.32784420147E+02 -0.22165742505E+02 -0.30464655848E+02  0.49942302721E+02  0.00000000000E+00 0.  1.
</event>
<event>
 7    1  0.4274778E-006  0.1326576E+03  0.7561462E-02  0.1223565E+00
         -2   -1    0    0    0  501 -0.00000000000E+00  0.00000000000E+00  0.29914768073E+02  0.29914768073E+02  0.00000000000E+00 0.  1.
          2   -1    0    0  501    0  0.00000000000E+00 -0.00000000000E+00 -0.78586334297E+03  0.78586334297E+03  0.00000000000E+00 0. -1.
         23    2    1    2    0    0  0.30412402914E+02 -0.78983214622E+02 -0.52495677189E+03  0.53979088471E+03  0.92904921363E+02 0.  0.
          5    1    1    2  502    0  0.15172095686E+02 -0.24370715891E+02 -0.16099062739E+02  0.33177952041E+02  0.41800000000E+01 0.  1.
         -5    1    1    2    0  502 -0.45584498600E+02  0.10335393051E+03 -0.21489274027E+03  0.24280927430E+03  0.41800000000E+01 0.  1.
        -11    1    3    3    0    0 -0.29452740713E+02 -0.46808929902E+02 -0.18422168584E+03  0.19234388315E+03  0.00000000000E+00 0.  1.
         11    1    3    3    0    0  0.59865143627E+02 -0.32174284720E+02 -0.34073508606E+03  0.34744700155E+03  0.00000000000E+00 0. -1.
</event>
<event>
 7    1  0.4274778E-006  0.9001070E+02  0.7561462E-02  0.1302826E+00
         -1   -1    0    0    0  501 -0.00000000000E+00  0.00000000000E+00  0.43735407035E+02  0.43735407035E+02  0.00000000000E+00 0.  1.
          1   -1    0    0  501    0  0.00000000000E+00 -0.00000000000E+00 -0.30258942601E+03  0.30258942601E+03  0.00000000000E+00 0. -1.
         23    2    1    2    0    0  0.20338131264E+02 -0.15263764837E+02 -0.19159043419E+03  0.21485038966E+03  0.93846541567E+02 0.  0.
          5    1    1    2  502    0 -0.35701480187E+02 -0.29064929781E+02  0.36211325703E+01  0.46367562280E+02  0.41800000000E+01 0. -1.
         -5    1    1    2    0  502  0.15363348923E+02  0.44328694618E+02 -0.70884717353E+02  0.85106881102E+02  0.41800000000E+01 0.  1.
        -11    1    3    3    0    0 -0.29175072372E+02  0.10339300083E+02 -0.12104995216E+03  0.12494469533E+03  0.00000000000E+00 0.  1.
         11    1    3    3    0    0  0.49513203636E+02 -0.25603064919E+02 -0.70540482031E+02  0.89905694329E+02  0.00000000000E+00 0. -1.
</event>
<event>
 7    1  0.4274778E-006  0.1380148E+03  0.7561462E-02  0.1216025E+00
         -1   -1    0    0    0  501 -0.00000000000E+00  0.00000000000E+00  0.69183694867E+02  0.69183694867E+02  0.00000000000E+00 0.  1.
          1   -1    0    0  501    0  0.00000000000E+00 -0.00000000000E+00 -0.39447739835E+03  0.39447739835E+03  0.00000000000E+00 0. -1.
         23    2    1    2    0    0  0.77563294436E+01  0.98165761881E+02 -0.25735363032E+03  0.29057191953E+03  0.92219693825E+02 0.  0.
          5    1    1    2  502    0  0.45025135287E+02 -0.96082427502E+02 -0.46586047743E+02  0.11596045846E+03  0.41800000000E+01 0.  1.
         -5    1    1    2    0  502 -0.52781464731E+02 -0.20833343799E+01 -0.21354025416E+02  0.57128715221E+02  0.41800000000E+01 0.  1.
        -11    1    3    3    0    0 -0.23676462502E+02  0.72507788721E+02 -0.88140322690E+02  0.11656187535E+03  0.00000000000E+00 0.  1.
         11    1    3    3    0    0  0.31432791945E+02  0.25657973161E+02 -0.16921330763E+03  0.17401004418E+03  0.00000000000E+00 0. -1.
</event>
<event>
 7    1  0.4274778E-006  0.8914532E+02  0.7561462E-02  0.1304935E+00
         -3   -1    0    0    0  501 -0.00000000000E+00  0.00000000000E+00  0.12722106312E+03  0.12722106312E+03  0.00000000000E+00 0.  1.
          3   -1    0    0  501    0  0.00000000000E+00 -0.00000000000E+00 -0.14839805812E+03  0.14839805812E+03  0.00000000000E+00 0. -1.
         23    2    1    2    0    0  0.35478956348E+02 -0.54184358843E-01 -0.85572904655E+02  0.13052207458E+03  0.91948521799E+02 0.  0.
          5    1    1    2  502    0  0.42121292094E+02  0.15182204481E+02  0.44929340116E+02  0.63567449090E+02  0.41800000000E+01 0. -1.
         -5    1    1    2    0  502 -0.77600248441E+02 -0.15128020122E+02  0.19466569539E+02  0.81529597574E+02  0.41800000000E+01 0. -1.
        -11    1    3    3    0    0  0.11978220989E+02  0.19962604809E+02 -0.95342028097E+02  0.98143189730E+02  0.00000000000E+00 0. -1.
         11    1    3    3    0    0  0.23500735359E+02 -0.20016789168E+02  0.97691234415E+01  0.32378884845E+02  0.00000000000E+00 0.  1.
</event>
<event>
 7    1  0.4274778E-006  0.2389883E+03  0.7561462E-02  0.1120469E+00
          2   -1    0    0  501    0  0.00000000000E+00  0.00000000000E+00  0.10921017377E+04  0.10921017377E+04  0.00000000000E+00 0. -1.
         -2   -1    0    0    0  501 -0.00000000000E+00 -0.00000000000E+00 -0.58796326135E+02  0.58796326135E+02  0.00000000000E+00 0.  1.
         23    2    1    2    0    0 -0.18996459067E+03  0.11281295034E+03  0.36864570920E+03  0.43939659847E+03  0.91413370799E+02 0.  0.
          5    1    1    2  502    0  0.25202648887E+02  0.25792557939E+02  0.13347442834E+03  0.13832326260E+03  0.41800000000E+01 0. -1.
         -5    1    1    2    0  502  0.16476194178E+03 -0.13860550828E+03  0.53118527403E+03  0.57317820277E+03  0.41800000000E+01 0. -1.
        -11    1    3    3    0    0 -0.14063206100E+03  0.10687752185E+03  0.33700351025E+03  0.38048856380E+03  0.00000000000E+00 0. -1.
         11    1    3    3    0    0 -0.49332529663E+02  0.59354284924E+01  0.31642198949E+02  0.58908034670E+02  0.00000000000E+00 0.  1.
</event>
<event>
 7    1  0.4274778E-006  0.1236763E+03  0.7561462E-02  0.1237153E+00
         -1   -1    0    0    0  501 -0.00000000000E+00  0.00000000000E+00  0.99073927081E+02  0.99073927081E+02  0.00000000000E+00 0.  1.
          1   -1    0    0  501    0  0.00000000000E+00 -0.00000000000E+00 -0.23418738403E+03  0.23418738403E+03  0.00000000000E+00 0. -1.
         23    2    1    2    0    0  0.96580064171E+02 -0.19461659197E+02 -0.10134225954E+03  0.17050638739E+03  0.95371429670E+02 0.  0.
          5    1    1    2  502    0  0.62152079022E+01 -0.24184096377E+02  0.25771732422E+02  0.36126914052E+02  0.41800000000E+01 0. -1.
         -5    1    1    2    0  502 -0.10279527207E+03  0.43645755574E+02 -0.59542929825E+02  0.12662800967E+03  0.41800000000E+01 0. -1.
        -11    1    3    3    0    0  0.14118864508E+02 -0.23834599401E+02  0.12068747150E+02  0.30217298380E+02  0.00000000000E+00 0.  1.
         11    1    3    3    0    0  0.82461199664E+02  0.43729402039E+01 -0.11341100669E+03  0.14028908901E+03  0.00000000000E+00 0. -1.
</event>
<event>
 7    1  0.4274778E-006  0.1124791E+03  0.7561462E-02  0.1256047E+00
         -2   -1    0    0    0  501 -0.00000000000E+00  0.00000000000E+00  0.11675689209E+03  0.11675689209E+03  0.00000000000E+00 0.  1.
          2   -1    0    0  501    0  0.00000000000E+00 -0.00000000000E+00 -0.18348478661E+03  0.18348478661E+03  0.00000000000E+00 0. -1.
         23    2    1    2    0    0 -0.15618334285E+02 -0.32715912619E+01 -0.11080693929E+03  0.14989835216E+03  0.99683010142E+02 0.  0.
          5    1    1    2  502    0 -0.46961737761E+00  0.64108618618E+02 -0.12692101536E+02  0.65488146737E+02  0.41800000000E+01 0. -1.
         -5    1    1    2    0  502  0.16087951663E+02 -0.60837027356E+02  0.56771146303E+02  0.84855179799E+02  0.41800000000E+01 0.  1.
        -11    1    3    3    0    0  0.15706004498E+02  0.40717994794E+02 -0.30977046209E+02  0.53518324611E+02  0.00000000000E+00 0.  1.
         11    1    3    3    0    0 -0.31324338783E+02 -0.43989586055E+02 -0.79829893078E+02  0.96380027549E+02  0.00000000000E+00 0. -1.
</event>
<event>
 7    1  0.4274778E-006  0.2338249E+03  0.7561462E-02  0.1123976E+00
         -2   -1    0    0    0  501 -0.00000000000E+00  0.00000000000E+00  0.11284415161E+03  0.11284415161E+03  0.00000000000E+00 0.  1.
          2   -1    0    0  501    0  0.00000000000E+00 -0.00000000000E+00 -0.70514262799E+03  0.70514262799E+03  0.00000000000E+00 0. -1.
         23    2    1    2    0    0 -0.16084333223E+03  0.15685602914E+03 -0.47979427144E+03  0.53731078073E+03  0.89587615092E+02 0.  0.
          5    1    1    2  502    0  0.59248925067E+02 -0.44292223764E+02  0.22684807679E+02  0.77487477097E+02  0.41800000000E+01 0.  1.
         -5    1    1    2    0  502  0.10159440716E+03 -0.11256380538E+03 -0.13518901262E+03  0.20318852177E+03  0.41800000000E+01 0.  1.
        -11    1    3    3    0    0 -0.98385643303E+02  0.14951362693E+03 -0.35494782656E+03  0.39751983476E+03  0.00000000000E+00 0. -1.
         11    1    3    3    0    0 -0.62457688926E+02  0.73424022173E+01 -0.12484644488E+03  0.13979094597E+03  0.00000000000E+00 0.  1.
</event>
<event>
 7    1  0.4274778E-006  0.1569992E+03  0.7561462E-02  0.1192127E+00
          2   -1    0    0  501    0  0.00000000000E+00  0.00000000000E+00  0.96719547523E+02  0.96719547523E+02  0.00000000000E+00 0. -1.
         -2   -1    0    0    0  501 -0.00000000000E+00 -0.00000000000E+00 -0.27020465612E+03  0.27020465612E+03  0.00000000000E+00 0.  1.
         23    2    1    2    0    0  0.36885231335E+02  0.11395335148E+03 -0.75878409782E+02  0.16812738112E+03  0.90351516907E+02 0.  0.
          5    1    1    2  502    0 -0.65780226441E+02 -0.23794890559E+02 -0.72344780077E+02  0.10071978262E+03  0.41800000000E+01 0. -1.
         -5    1    1    2    0  502  0.28894995106E+02 -0.90158460916E+02 -0.25261918733E+02  0.98077039897E+02  0.41800000000E+01 0. -1.
        -11    1    3    3    0    0  0.63056833003E+02  0.10302970213E+03 -0.68324940112E+02  0.13877889303E+03  0.00000000000E+00 0.  1.
         11    1    3    3    0    0 -0.26171601668E+02  0.10923649340E+02 -0.75534696708E+01  0.29348488084E+02  0.00000000000E+00 0. -1.
</event>
<event>
 7    1  0.4274778E-006  0.1638623E+03  0.7561462E-02  0.1184404E+00
         -2   -1    0    0    0  501 -0.00000000000E+00  0.00000000000E+00  0.29090126880E+02  0.29090126880E+02  0.00000000000E+00 0.  1.
          2   -1    0    0  501    0  0.00000000000E+00 -0.00000000000E+00 -0.10243781117E+04  0.10243781117E+04  0.00000000000E+00 0. -1.
         23    2    1    2    0    0  0.66074951237E+02  0.86162312327E+02 -0.39396789228E+03  0.41861685106E+03  0.90771827134E+02 0.  0.
          5    1    1    2  502    0  0.40689610172E+02 -0.69693191828E+02 -0.38051643829E+03  0.38900259327E+03  0.41800000000E+01 0. -1.
         -5    1    1    2    0  502 -0.10676456141E+03 -0.16469120499E+02 -0.22080365428E+03  0.24584879428E+03  0.41800000000E+01 0.  1.
        -11    1    3    3    0    0  0.66833856126E+02  0.16107420465E+02 -0.23602076491E+03  0.24582923908E+03  0.00000000000E+00 0. -1.
         11    1    3    3    0    0 -0.75890488831E+00  0.70054891862E+02 -0.15794712737E+03  0.17278761198E+03  0.00000000000E+00 0.  1.
</event>
<event>
 7    1  0.4274778E-006  0.1063087E+03  0.7561462E-02  0.1267562E+00
          1   -1    0    0  501    0  0.00000000000E+00  0.00000000000E+00  0.38525102410E+03  0.38525102410E+03  0.00000000000E+00 0. -1.
         -1   -1    0    0    0  501 -0.00000000000E+00 -0.00000000000E+00 -0.35539326827E+02  0.35539326827E+02  0.00000000000E+00 0.  1.
         23    2    1    2    0    0 -0.69750366739E+01  0.10153664029E+02  0.22824314741E+03  0.24599586906E+03  0.90924612868E+02 0.  0.
          5    1    1    2  502    0 -0.56814446824E+02 -0.15249189598E+02  0.75928222551E+02  0.96140452106E+02  0.41800000000E+01 0.  1.
         -5    1    1    2    0  502  0.63789483498E+02  0.50955255694E+01  0.45540327306E+02  0.78654029756E+02  0.41800000000E+01 0.  1.
        -11    1    3    3    0    0  0.26346991358E+02 -0.28277270571E+02  0.72524039369E+02  0.82179707172E+02  0.00000000000E+00 0.  1.
         11    1    3    3    0    0 -0.33322028032E+02  0.38430934600E+02  0.15571910805E+03  0.16381616189E+03  0.00000000000E+00 0. -1.
</event>
<event>
 7    1  0.4274778E-006  0.1437921E+03  0.7561462E-02  0.1208316E+00
         -4   -1    0    0    0  501 -0.00000000000E+00  0.00000000000E+00  0.22848958037E+03  0.22848958037E+03  0.00000000000E+00 0.  1.
          4   -1    0    0  501    0  0.00000000000E+00 -0.00000000000E+00 -0.10228054810E+03  0.10228054810E+03  0.00000000000E+00 0. -1.
         23    2    1    2    0    0 -0.99195450711E+02  0.29066247352E+02  0.16823840410E+02  0.13506998590E+03  0.85301086200E+02 0.  0.
          5    1    1    2  502    0  0.78558560549E+02  0.38985290709E+02  0.79522618306E+02  0.11845935822E+03  0.41800000000E+01 0.  1.
         -5    1    1    2    0  502  0.20636890162E+02 -0.68051538061E+02  0.29862573561E+02  0.77240784355E+02  0.41800000000E+01 0.  1.
        -11    1    3    3    0    0 -0.11263497229E+02  0.38499618984E+02  0.23312615573E+02  0.46395744165E+02  0.00000000000E+00 0.  1.
         11    1    3    3    0    0 -0.87931953481E+02 -0.94333716322E+01 -0.64887751635E+01  0.88674241731E+02  0.00000000000E+00 0. -1.
</event>
<event>
 7    1  0.4274778E-006  0.6547577E+02  0.7561462E-02  0.1376191E+00
          1   -1    0    0  501    0  0.00000000000E+00  0.00000000000E+00  0.24703072571E+03  0.24703072571E+03  0.00000000000E+00 0. -1.
         -1   -1    0    0    0  501 -0.00000000000E+00 -0.00000000000E+00 -0.50630363143E+02  0.50630363143E+02  0.00000000000E+00 0.  1.
         23    2    1    2    0    0  0.16214620841E+01  0.62791350363E+01  0.12239650144E+03  0.15217616000E+03  0.90192147284E+02 0.  0.
          5    1    1    2  502    0 -0.12079406149E+02  0.13903190883E+02  0.10507594707E+03  0.10675972004E+03  0.41800000000E+01 0. -1.
         -5    1    1    2    0  502  0.10457944065E+02 -0.20182325920E+02 -0.31072085938E+02  0.38725208820E+02  0.41800000000E+01 0. -1.
        -11    1    3    3    0    0  0.30128380585E+02  0.36553772535E+02  0.51407407161E+02  0.69904356905E+02  0.00000000000E+00 0. -1.
         11    1    3    3    0    0 -0.28506918501E+02 -0.30274637499E+02  0.70989094277E+02  0.82271803095E+02  0.00000000000E+00 0.  1.
</event>
<event>
 7    1  0.4274778E-006  0.1115387E+03  0.7561462E-02  0.1257747E+00
         -3   -1    0    0    0  501 -0.00000000000E+00  0.00000000000E+00  0.90831392403E+02  0.90831392403E+02  0.00000000000E+00 0.  1.
          3   -1    0    0  501    0  0.00000000000E+00 -0.00000000000E+00 -0.20846901814E+03  0.20846901814E+03  0.00000000000E+00 0. -1.
         23    2    1    2    0    0  0.57396170333E+02  0.36913876862E+02 -0.78883997524E+02  0.13802189140E+03  0.90390280266E+02 0.  0.
          5    1    1    2  502    0 -0.87266478566E+02 -0.62487178072E+02 -0.22113452519E+01  0.10743578618E+03  0.41800000000E+01 0. -1.
         -5    1    1    2    0  502  0.29870308233E+02  0.25573301210E+02 -0.36542282961E+02  0.53842732961E+02  0.41800000000E+01 0.  1.
        -11    1    3    3    0    0  0.49949436285E+02  0.13776350682E+02  0.36891882413E+01  0.51945588197E+02  0.00000000000E+00 0.  1.
         11    1    3    3    0    0  0.74467340483E+01  0.23137526180E+02 -0.82573185765E+02  0.86076303203E+02  0.00000000000E+00 0. -1.
</event>
<event>
 7    1  0.4274778E-006  0.1484377E+03  0.7561462E-02  0.1202406E+00
         -2   -1    0    0    0  501 -0.00000000000E+00  0.00000000000E+00  0.54301385189E+02  0.54301385189E+02  0.00000000000E+00 0.  1.
          2   -1    0    0  501    0  0.00000000000E+00 -0.00000000000E+00 -0.85500511925E+03  0.85500511925E+03  0.00000000000E+00 0. -1.
         23    2    1    2    0    0 -0.10448061671E+03 -0.61785511804E+02 -0.68183397899E+03  0.69832899552E+03  0.89622331719E+02 0.  0.
          5    1    1    2  502    0 -0.23587208100E+02 -0.39625411170E+01 -0.39956543698E+02  0.46755276732E+02  0.41800000000E+01 0.  1.
         -5    1    1    2    0  502  0.12806782481E+03  0.65748052921E+02 -0.78913211375E+02  0.16422223219E+03  0.41800000000E+01 0.  1.
        -11    1    3    3    0    0 -0.17852387362E+01 -0.16062641369E+02 -0.14882049020E+02  0.21969772601E+02  0.00000000000E+00 0.  1.
         11    1    3    3    0    0 -0.10269537798E+03 -0.45722870435E+02 -0.66695192997E+03  0.67635922292E+03  0.00000000000E+00 0. -1.
</event>
<event>
 7    1  0.4274778E-006  0.1182036E+03  0.7561462E-02  0.1246090E+00
          1   -1    0    0  501    0  0.00000000000E+00  0.00000000000E+00  0.49491891471E+02  0.49491891471E+02  0.00000000000E+00 0. -1.
         -1   -1    0    0    0  501 -0.00000000000E+00 -0.00000000000E+00 -0.46941761402E+03  0.46941761402E+03  0.00000000000E+00 0.  1.
         23    2    1    2    0    0  0.25022847611E+01 -0.86307733610E+02 -0.84945387707E+02  0.15105903007E+03  0.90265305425E+02 0.  0.
          5    1    1    2  502    0 -0.85633299159E+01  0.11661664804E+03 -0.29341603989E+03  0.31588481775E+03  0.41800000000E+01 0. -1.
         -5    1    1    2    0  502  0.60610451548E+01 -0.30308914431E+02 -0.41564294957E+02  0.51965657675E+02  0.41800000000E+01 0. -1.
        -11    1    3    3    0    0 -0.63002843224E+01 -0.13785068168E+02  0.18815041623E+02  0.24160452774E+02  0.00000000000E+00 0. -1.
         11    1    3    3    0    0  0.88025690834E+01 -0.72522665443E+02 -0.10376042933E+03  0.12689857730E+03  0.00000000000E+00 0.  1.
</event>
<event>
 7    1  0.4274778E-006  0.1256355E+03  0.7561462E-02  0.1234079E+00
          1   -1    0    0  501    0  0.00000000000E+00  0.00000000000E+00  0.17793539441E+03  0.17793539441E+03  0.00000000000E+00 0. -1.
         -1   -1    0    0    0  501 -0.00000000000E+00 -0.00000000000E+00 -0.95915298631E+02  0.95915298631E+02  0.00000000000E+00 0.  1.
         23    2    1    2    0    0  0.66321052220E+02  0.16476402093E+02  0.68827496812E+02  0.13069934100E+03  0.87607874231E+02 0.  0.
          5    1    1    2  502    0 -0.56139592534E+02 -0.67556845826E+02  0.20755935826E+02  0.90354095313E+02  0.41800000000E+01 0. -1.
         -5    1    1    2    0  502 -0.10181459686E+02  0.51080443732E+02 -0.75633368610E+01  0.52797256725E+02  0.41800000000E+01 0. -1.
        -11    1    3    3    0    0  0.20690722704E+02  0.50228907144E+02  0.35124348797E+02  0.64689790518E+02  0.00000000000E+00 0. -1.
         11    1    3    3    0    0  0.45630329516E+02 -0.33752505050E+02  0.33703148015E+02  0.66009550483E+02  0.00000000000E+00 0.  1.
</event>
<event>
 7    1  0.4274778E-006  0.1202182E+03  0.7561462E-02  0.1242737E+00
         -1   -1    0    0    0  501 -0.00000000000E+00  0.00000000000E+00  0.11146617946E+03  0.11146617946E+03  0.00000000000E+00 0.  1.
          1   -1    0    0  501    0  0.00000000000E+00 -0.00000000000E+00 -0.18059227388E+03  0.18059227388E+03  0.00000000000E+00 0. -1.
         23    2    1    2    0    0  0.91541661468E+02  0.46883706490E+01 -0.18143641957E+02  0.12881340209E+03  0.88667041294E+02 0.  0.
          5    1    1    2  502    0 -0.10619420796E+03  0.16218925166E+02 -0.72438883057E+02  0.12963459229E+03  0.41800000000E+01 0. -1.
         -5    1    1    2    0  502  0.14652546495E+02 -0.20907295815E+02  0.21456430595E+02  0.33610458952E+02  0.41800000000E+01 0. -1.
        -11    1    3    3    0    0  0.83337977690E+02 -0.15949456076E+02 -0.43297017023E+02  0.95258781001E+02  0.00000000000E+00 0. -1.
         11    1    3    3    0    0  0.82036837781E+01  0.20637826725E+02  0.25153375067E+02  0.33554621093E+02  0.00000000000E+00 0.  1.
</event>
<event>
 7    1  0.4274778E-006  0.1881960E+03  0.7561462E-02  0.1160099E+00
         -1   -1    0    0    0  501 -0.00000000000E+00  0.00000000000E+00  0.34384925947E+03  0.34384925947E+03  0.00000000000E+00 0.  1.
          1   -1    0    0  501    0  0.00000000000E+00 -0.00000000000E+00 -0.10670316523E+03  0.10670316523E+03  0.00000000000E+00 0. -1.
         23    2    1    2    0    0  0.15338960720E+03  0.33389701575E+02  0.90052529246E+02  0.20303856625E+03  0.92043237626E+02 0.  0.
          5    1    1    2  502    0 -0.79471761346E+02  0.41284909288E+02  0.42565174896E+02  0.99244501612E+02  0.41800000000E+01 0. -1.
         -5    1    1    2    0  502 -0.73917845855E+02 -0.74674610863E+02  0.10452839009E+03  0.14826935684E+03  0.41800000000E+01 0.  1.
        -11    1    3    3    0    0  0.16549341524E+03  0.26339586509E+02  0.86515363616E+02  0.18859149622E+03  0.00000000000E+00 0.  1.
         11    1    3    3    0    0 -0.12103808044E+02  0.70501150660E+01  0.35371656299E+01  0.14447070025E+02  0.00000000000E+00 0. -1.
</event>
<event>
 7    1  0.4274778E-006  0.5148665E+02  0.7561462E-02  0.1437484E+00
          4   -1    0    0  501    0  0.00000000000E+00  0.00000000000E+00  0.81041995302E+02  0.81041995302E+02  0.00000000000E+00 0. -1.
         -4   -1    0    0    0  501 -0.00000000000E+00 -0.00000000000E+00 -0.17974329866E+03  0.17974329866E+03  0.00000000000E+00 0.  1.
         23    2    1    2    0    0  0.80278620473E+01  0.65224443577E+01  0.18398793716E+02  0.89121003814E+02  0.86585500294E+02 0.  0.
          5    1    1    2  502    0  0.15975146205E+02 -0.30378718490E+02  0.13174094064E+02  0.37001364674E+02  0.41800000000E+01 0.  1.
         -5    1    1    2    0  502 -0.24003008252E+02  0.23856274132E+02 -0.13027419114E+03  0.13466292547E+03  0.41800000000E+01 0.  1.
        -11    1    3    3    0    0  0.51522358380E+01  0.19930022228E+02 -0.31357037159E+02  0.37510199940E+02  0.00000000000E+00 0.  1.
         11    1    3    3    0    0  0.28756262093E+01 -0.13407577871E+02  0.49755830875E+02  0.51610803874E+02  0.00000000000E+00 0. -1.
</event>
<event>
 7    1  0.4274778E-006  0.9365574E+02  0.7561462E-02  0.1294233E+00
          1   -1    0    0  501    0  0.00000000000E+00  0.00000000000E+00  0.10400480056E+03  0.10400480056E+03  0.00000000000E+00 0. -1.
         -1   -1    0    0    0  501 -0.00000000000E+00 -0.00000000000E+00 -0.14886783018E+03  0.14886783018E+03  0.00000000000E+00 0.  1.
         23    2    1    2    0    0  0.56433340667E+02 -0.40606123507E+01 -0.16620470097E+02  0.11271249121E+03  0.96055479470E+02 0.  0.
          5    1    1    2  502    0 -0.68373304160E+02 -0.27452655772E+02 -0.58892486492E+02  0.94415858816E+02  0.41800000000E+01 0.  1.
         -5    1    1    2    0  502  0.11939963494E+02  0.31513268123E+02  0.30649926968E+02  0.45744280726E+02  0.41800000000E+01 0.  1.
        -11    1    3    3    0    0  0.49797607372E+02 -0.26322707951E+02 -0.47769340057E+02  0.73855240189E+02  0.00000000000E+00 0.  1.
         11    1    3    3    0    0  0.66357332946E+01  0.22262095600E+02  0.31148869960E+02  0.38857251018E+02  0.00000000000E+00 0. -1.
</event>
<event>
 7    1  0.4274778E-006  0.9159546E+02  0.7561462E-02  0.1299033E+00
         -1   -1    0    0    0  501 -0.00000000000E+00  0.00000000000E+00  0.39607305511E+02  0.39607305511E+02  0.00000000000E+00 0.  1.
          1   -1    0    0  501    0  0.00000000000E+00 -0.00000000000E+00 -0.36783280637E+03  0.36783280637E+03  0.00000000000E+00 0. -1.
         23    2    1    2    0    0 -0.39066169344E+02 -0.32786722356E+02 -0.15739897056E+03  0.18965492847E+03  0.92700707715E+02 0.  0.
          5    1    1    2  502    0 -0.14519410644E+02  0.17159521968E+02 -0.15892326425E+03  0.16055945566E+03  0.41800000000E+01 0. -1.
         -5    1    1    2    0  502  0.53585579989E+02  0.15627200387E+02 -0.11903266051E+02  0.57225727757E+02  0.41800000000E+01 0. -1.
        -11    1    3    3    0    0 -0.30961656553E+02 -0.64539919675E+02 -0.92612956774E+02  0.11705206180E+03  0.00000000000E+00 0.  1.
         11    1    3    3    0    0 -0.81045127918E+01  0.31753197319E+02 -0.64786013784E+02  0.72602866677E+02  0.00000000000E+00 0. -1.
</event>
<event>
 7    1  0.4274778E-006  0.1875921E+03  0.7561462E-02  0.1160651E+00
          2   -1    0    0  501    0  0.00000000000E+00  0.00000000000E+00  0.39826050595E+03  0.39826050595E+03  0.00000000000E+00 0. -1.
         -2   -1    0    0    0  501 -0.00000000000E+00 -0.00000000000E+00 -0.11208747087E+03  0.11208747087E+03  0.00000000000E+00 0.  1.
         23    2    1    2    0    0 -0.85744663564E+02 -0.13844228244E+03  0.23176652620E+03  0.29791457151E+03  0.92298192575E+02 0.  0.
          5    1    1    2  502    0  0.15074661034E+02 -0.21491887569E+02 -0.62589777726E+01  0.27309226268E+02  0.41800000000E+01 0.  1.
         -5    1    1    2    0  502  0.70670002530E+02  0.15993417001E+03  0.60665486647E+02  0.18512417904E+03  0.41800000000E+01 0.  1.
        -11    1    3    3    0    0 -0.79664035080E+01 -0.68921334427E+02  0.15034444610E+03  0.16558099649E+03  0.00000000000E+00 0. -1.
         11    1    3    3    0    0 -0.77778260056E+02 -0.69520948014E+02  0.81422080098E+02  0.13233357502E+03  0.00000000000E+00 0.  1.
</event>
<event>
 7    1  0.4274778E-006  0.1024261E+03  0.7561462E-02  0.1275275E+00
         -1   -1    0    0    0  501 -0.00000000000E+00  0.00000000000E+00  0.11755538215E+03  0.11755538215E+03  0.00000000000E+00 0.  1.
          1   -1    0    0  501    0  0.00000000000E+00 -0.00000000000E+00 -0.14786477583E+03  0.14786477583E+03  0.00000000000E+00 0. -1.
         23    2    1    2    0    0  0.15935109622E+02  0.35254825886E+02 -0.78093713991E+02  0.12605625217E+03  0.91075353853E+02 0.  0.
          5    1    1    2  502    0 -0.59578544548E+02 -0.37852070482E+02 -0.47738670485E+01  0.70870617444E+02  0.41800000000E+01 0.  1.
         -5    1    1    2    0  502  0.43643434927E+02  0.25972445960E+01  0.52558187368E+02  0.68493288365E+02  0.41800000000E+01 0.  1.
        -11    1    3    3    0    0  0.42685564472E+02  0.44743796356E+02 -0.26723654046E+02  0.67366300271E+02  0.00000000000E+00 0.  1.
         11    1    3    3    0    0 -0.26750454850E+02 -0.94889704696E+01 -0.51370059944E+02  0.58689951899E+02  0.00000000000E+00 0. -1.
</event>
<event>
 7    1  0.4274778E-006  0.1076968E+03  0.7561462E-02  0.1264896E+00
         -1   -1    0    0    0  501 -0.00000000000E+00  0.00000000000E+00  0.34326417829E+03  0.34326417829E+03  0.00000000000E+00 0.  1.
          1   -1    0    0  501    0  0.00000000000E+00 -0.00000000000E+00 -0.50973066546E+02  0.50973066546E+02  0.00000000000E+00 0. -1.
         23    2    1    2    0    0  0.13593656437E+02  0.76492656586E+02  0.13603549401E+03  0.17953758195E+03  0.87705038039E+02 0.  0.
          5    1    1    2  502    0 -0.81898748770E+00  0.24159813924E+02  0.90397270553E+02  0.93666996710E+02  0.41800000000E+01 0.  1.
         -5    1    1    2    0  502 -0.12774668950E+02 -0.10065247051E+03  0.65858347185E+02  0.12103266617E+03  0.41800000000E+01 0.  1.
        -11    1    3    3    0    0 -0.86169525919E+01  0.62441052780E+02  0.13945029646E+03  0.15303438217E+03  0.00000000000E+00 0.  1.
         11    1    3    3    0    0  0.22210609029E+02  0.14051603807E+02 -0.34148024514E+01  0.26503199784E+02  0.00000000000E+00 0. -1.
</event>
<event>
 7    1  0.4274778E-006  0.1294796E+03  0.7561462E-02  0.1228230E+00
         -2   -1    0    0    0  501 -0.00000000000E+00  0.00000000000E+00  0.78836168771E+02  0.78836168771E+02  0.00000000000E+00 0.  1.
          2   -1    0    0  501    0  0.00000000000E+00 -0.00000000000E+00 -0.26183695431E+03  0.26183695431E+03  0.00000000000E+00 0. -1.
         23    2    1    2    0    0  0.85751150805E+02  0.37926211210E+02 -0.88684184503E+02  0.15809293323E+03  0.91306262630E+02 0.  0.
          5    1    1    2  502    0 -0.11564641613E+03 -0.20194971932E+02 -0.54306878238E+02  0.12941653635E+03  0.41800000000E+01 0.  1.
         -5    1    1    2    0  502  0.29895265329E+02 -0.17731239278E+02 -0.40009722797E+02  0.53163653503E+02  0.41800000000E+01 0.  1.
        -11    1    3    3    0    0  0.59630400428E+01  0.24938586668E+02  0.12545843960E+02  0.28546263367E+02  0.00000000000E+00 0.  1.
         11    1    3    3    0    0  0.79788110763E+02  0.12987624541E+02 -0.10123002846E+03  0.12954666986E+03  0.00000000000E+00 0. -1.
</event>
<event>
 7    1  0.4274778E-006  0.1679089E+03  0.7561462E-02  0.1180046E+00
         -2   -1    0    0    0  501 -0.00000000000E+00  0.00000000000E+00  0.40821678971E+03  0.40821678971E+03  0.00000000000E+00 0.  1.
          2   -1    0    0  501    0  0.00000000000E+00 -0.00000000000E+00 -0.98283329442E+02  0.98283329442E+02  0.00000000000E+00 0. -1.
         23    2    1    2    0    0  0.13384701007E+03  0.95310373060E+02  0.99370829339E+02  0.21157144660E+03  0.88819063131E+02 0.  0.
          5    1    1    2  502    0 -0.34561054383E+02 -0.48141314740E+02  0.23634228912E+01  0.59456798036E+02  0.41800000000E+01 0.  1.
         -5    1    1    2    0  502 -0.99285955690E+02 -0.47169058320E+02  0.20819920804E+03  0.23547187452E+03  0.41800000000E+01 0.  1.
        -11    1    3    3    0    0  0.63590837887E+02  0.61401465799E+02  0.41759973706E+01  0.88495048559E+02  0.00000000000E+00 0. -1.
         11    1    3    3    0    0  0.70256172186E+02  0.33908907261E+02  0.95194831968E+02  0.12307639804E+03  0.00000000000E+00 0.  1.
</event>
<event>
 7    1  0.4274778E-006  0.8835670E+02  0.7561462E-02  0.1306881E+00
          1   -1    0    0  501    0  0.00000000000E+00  0.00000000000E+00  0.39143921074E+03  0.39143921074E+03  0.00000000000E+00 0. -1.
         -1   -1    0    0    0  501 -0.00000000000E+00 -0.00000000000E+00 -0.36170074824E+02  0.36170074824E+02  0.00000000000E+00 0.  1.
         23    2    1    2    0    0 -0.12176009238E+02 -0.27596329618E+02  0.15049620558E+03  0.18576428855E+03  0.10463962153E+03 0.  0.
          5    1    1    2  502    0  0.11629151545E+02  0.67823705566E+02  0.59563462779E+02  0.91107467864E+02  0.41800000000E+01 0. -1.
         -5    1    1    2    0  502  0.54685769225E+00 -0.40227375948E+02  0.14520946755E+03  0.15073752915E+03  0.41800000000E+01 0. -1.
        -11    1    3    3    0    0  0.22648019968E+02  0.38693385753E+00 -0.56563955948E+01  0.23346891386E+02  0.00000000000E+00 0.  1.
         11    1    3    3    0    0 -0.34824029205E+02 -0.27983263475E+02  0.15615260118E+03  0.16241739716E+03  0.00000000000E+00 0. -1.
</event>
<event>
 7    1  0.4274778E-006  0.1352555E+03  0.7561462E-02  0.1219859E+00
          2   -1    0    0  501    0  0.00000000000E+00  0.00000000000E+00  0.14023098663E+03  0.14023098663E+03  0.00000000000E+00 0. -1.
         -2   -1    0    0    0  501 -0.00000000000E+00 -0.00000000000E+00 -0.19289380385E+03  0.19289380385E+03  0.00000000000E+00 0.  1.
         23    2    1    2    0    0  0.98271961064E+02 -0.24054837677E+02  0.51247578286E+02  0.14160209475E+03  0.84786941280E+02 0.  0.
          5    1    1    2  502    0 -0.73826485055E+02 -0.43941600119E+02 -0.39568343102E+02  0.94680200108E+02  0.41800000000E+01 0. -1.
         -5    1    1    2    0  502 -0.24445476009E+02  0.67996437796E+02 -0.64342052408E+02  0.96842495622E+02  0.41800000000E+01 0. -1.
        -11    1    3    3    0    0  0.24782101445E+02 -0.29378445524E+02  0.55826079062E+02  0.67777553194E+02  0.00000000000E+00 0. -1.
         11    1    3    3    0    0  0.73489859619E+02  0.53236078467E+01 -0.45785007768E+01  0.73824541561E+02  0.00000000000E+00 0.  1.
</event>
<event>
 7    1  0.4274778E-006  0.8406394E+02  0.7561462E-02  0.1317899E+00
         -1   -1    0    0    0  501 -0.00000000000E+00  0.00000000000E+00  0.74398809743E+02  0.74398809743E+02  0.00000000000E+00 0.  1.
          1   -1    0    0  501    0  0.00000000000E+00 -0.00000000000E+00 -0.18997897127E+03  0.18997897127E+03  0.00000000000E+00 0. -1.
         23    2    1    2    0    0  0.12433862115E+02  0.50245900098E+02 -0.52187013890E+02  0.11489457694E+03  0.88306443635E+02 0.  0.
          5    1    1    2  502    0 -0.30665149597E+02  0.17588212189E+01  0.28592701411E+02  0.42171789455E+02  0.41800000000E+01 0. -1.
         -5    1    1    2    0  502  0.18231287482E+02 -0.52004721317E+02 -0.91985849052E+02  0.10731141462E+03  0.41800000000E+01 0. -1.
        -11    1    3    3    0    0  0.38515005522E+02  0.28671837892E+02  0.51721997102E+01  0.48293183663E+02  0.00000000000E+00 0.  1.
         11    1    3    3    0    0 -0.26081143407E+02  0.21574062206E+02 -0.57359213600E+02  0.66601393276E+02  0.00000000000E+00 0. -1.
</event>
<event>
 7    1  0.4274778E-006  0.7467485E+02  0.7561462E-02  0.1344881E+00
          2   -1    0    0  501    0  0.00000000000E+00  0.00000000000E+00  0.61083101583E+03  0.61083101583E+03  0.00000000000E+00 0. -1.
         -2   -1    0    0    0  501 -0.00000000000E+00 -0.00000000000E+00 -0.29617523243E+02  0.29617523243E+02  0.00000000000E+00 0.  1.
         23    2    1    2    0    0 -0.47886528724E+02 -0.47801748023E+02  0.35836203429E+03  0.37608832662E+03  0.91874670356E+02 0.  0.
          5    1    1    2  502    0  0.23406687622E+02  0.11203624859E+02  0.21832411812E+03  0.21990063025E+03  0.41800000000E+01 0.  1.
         -5    1    1    2    0  502  0.24479841102E+02  0.36598123164E+02  0.45273401750E+01  0.44459582191E+02  0.41800000000E+01 0.  1.
        -11    1    3    3    0    0 -0.10736017302E+02  0.68636514946E+01  0.11290047557E+01  0.12792436480E+02  0.00000000000E+00 0.  1.
         11    1    3    3    0    0 -0.37150511422E+02 -0.54665399518E+02  0.35723302954E+03  0.36329589014E+03  0.00000000000E+00 0. -1.
</event>
<event>
 7    1  0.4274778E-006  0.1356455E+03  0.7561462E-02  0.1219311E+00
          1   -1    0    0  501    0  0.00000000000E+00  0.00000000000E+00  0.13997473052E+03  0.13997473052E+03  0.00000000000E+00 0. -1.
         -1   -1    0    0    0  501 -0.00000000000E+00 -0.00000000000E+00 -0.21061968122E+03  0.21061968122E+03  0.00000000000E+00 0.  1.
         23    2    1    2    0    0  0.45270187175E+02 -0.83946289624E+02  0.61505948223E+02  0.14514939181E+03  0.90493065417E+02 0.  0.
          5    1    1    2  502    0 -0.79201273027E+02  0.68027267893E+02 -0.51670465138E+02  0.11656697729E+03  0.41800000000E+01 0.  1.
         -5    1    1    2    0  502  0.33931085852E+02  0.15919021731E+02 -0.80480433794E+02  0.88878042640E+02  0.41800000000E+01 0.  1.
        -11    1    3    3    0    0  0.57623596509E+02 -0.15685987763E+02  0.14815299314E+02  0.61530660492E+02  0.00000000000E+00 0.  1.
         11    1    3    3    0    0 -0.12353409335E+02 -0.68260301861E+02  0.46690648909E+02  0.83618731321E+02  0.00000000000E+00 0. -1.
</event>
<event>
 7    1  0.7289284E-006  0.1752739E+03  0.7561462E-02  0.1172457E+00
         -1   -1    0    0    0  501 -0.00000000000E+00  0.00000000000E+00  0.64669327354E+02  0.64669327354E+02  0.00000000000E+00 0.  1.
          1   -1    0    0  501    0  0.00000000000E+00 -0.00000000000E+00 -0.63832131297E+03  0.63832131297E+03  0.00000000000E+00 0. -1.
         23    2    1    2    0    0  0.16677794601E+03  0.16296978927E+02 -0.33524801821E+03  0.38587132816E+03  0.91787653775E+02 0.  0.
          5    1    1    2  502    0 -0.72701350593E+01 -0.10810764672E+02  0.13279920078E+02  0.19067149075E+02  0.41800000000E+01 0. -1.
         -5    1    1    2    0  502 -0.15950781095E+03 -0.54862142552E+01 -0.25168388748E+03  0.29805216308E+03  0.41800000000E+01 0. -1.
        -11    1    3    3    0    0  0.10038081387E+03 -0.18769818548E+02 -0.11821458387E+03  0.15621556171E+03  0.00000000000E+00 0.  1.
         11    1    3    3    0    0  0.66397132143E+02  0.35066797475E+02 -0.21703343435E+03  0.22965576645E+03  0.00000000000E+00 0. -1.
</event>
<event>
 7    1  0.4274778E-006  0.1471530E+03  0.7561462E-02  0.1204016E+00
          2   -1    0    0  501    0  0.00000000000E+00  0.00000000000E+00  0.83295145449E+02  0.83295145449E+02  0.00000000000E+00 0. -1.
         -2   -1    0    0    0  501 -0.00000000000E+00 -0.00000000000E+00 -0.33970879760E+03  0.33970879760E+03  0.00000000000E+00 0.  1.
         23    2    1    2    0    0 -0.63144289638E+02 -0.81540822730E+02 -0.16828770093E+02  0.13371935681E+03  0.83435914312E+02 0.  0.
          5    1    1    2  502    0 -0.16089022836E+02 -0.24529261211E+02 -0.41609792485E+02  0.51082174406E+02  0.41800000000E+01 0. -1.
         -5    1    1    2    0  502  0.79233312474E+02  0.10607008394E+03 -0.19797508958E+03  0.23820241184E+03  0.41800000000E+01 0. -1.
        -11    1    3    3    0    0  0.17418436200E+02 -0.35196606893E+02 -0.10018021981E+02  0.40528555622E+02  0.00000000000E+00 0.  1.
         11    1    3    3    0    0 -0.80562725838E+02 -0.46344215838E+02 -0.68107481121E+01  0.93190801187E+02  0.00000000000E+00 0. -1.
</event>
<event>
 7    1  0.4274778E-006  0.1224974E+03  0.7561462E-02  0.1239033E+00
          1   -1    0    0  501    0  0.00000000000E+00  0.00000000000E+00  0.53115665916E+03  0.53115665916E+03  0.00000000000E+00 0. -1.
         -1   -1    0    0    0  501 -0.00000000000E+00 -0.00000000000E+00 -0.44052622262E+02  0.44052622262E+02  0.00000000000E+00 0.  1.
         23    2    1    2    0    0  0.11665419353E+02 -0.75756235009E+02  0.36684603979E+03  0.38551136299E+03  0.90376462262E+02 0.  0.
          5    1    1    2  502    0  0.20302519192E+02  0.10262585026E+03  0.87857962722E+02  0.13667754549E+03  0.41800000000E+01 0.  1.
         -5    1    1    2    0  502 -0.31967938545E+02 -0.26869615254E+02  0.32400034382E+02  0.53020372940E+02  0.41800000000E+01 0.  1.
        -11    1    3    3    0    0  0.22683177483E+02 -0.93816660495E+00  0.19194084466E+02  0.29729103179E+02  0.00000000000E+00 0.  1.
         11    1    3    3    0    0 -0.11017758130E+02 -0.74818068404E+02  0.34765195532E+03  0.35578225981E+03  0.00000000000E+00 0. -1.
</event>
<event>
 7    1  0.4274778E-006  0.1494337E+03  0.7561462E-02  0.1201171E+00
          1   -1    0    0  501    0  0.00000000000E+00  0.00000000000E+00  0.84583089875E+02  0.84583089875E+02  0.00000000000E+00 0. -1.
         -1   -1    0    0    0  501 -0.00000000000E+00 -0.00000000000E+00 -0.31441776945E+03  0.31441776945E+03  0.00000000000E+00 0.  1.
         23    2    1    2    0    0 -0.10520431284E+03  0.42467854872E+02 -0.47485533762E+02  0.15046831275E+03  0.86685472192E+02 0.  0.
          5    1    1    2  502    0  0.75449634339E+02  0.34447992590E+02 -0.11567542007E+03  0.14239939158E+03  0.41800000000E+01 0. -1.
         -5    1    1    2    0  502  0.29754678498E+02 -0.76915847462E+02 -0.66673725745E+02  0.10613315499E+03  0.41800000000E+01 0. -1.
        -11    1    3    3    0    0 -0.77625015595E+02  0.62085358621E+02 -0.99013591584E+01  0.99891299493E+02  0.00000000000E+00 0. -1.
         11    1    3    3    0    0 -0.27579297242E+02 -0.19617503749E+02 -0.37584174604E+02  0.50577013261E+02  0.00000000000E+00 0.  1.
</event>
<event>
 7    1  0.4274778E-006  0.1671446E+03  0.7561462E-02  0.1180859E+00
          3   -1    0    0  501    0  0.00000000000E+00  0.00000000000E+00  0.12434108398E+03  0.12434108398E+03  0.00000000000E+00 0. -1.
         -3   -1    0    0    0  501 -0.00000000000E+00 -0.00000000000E+00 -0.42923407676E+03  0.42923407676E+03  0.00000000000E+00 0.  1.
         23    2    1    2    0    0 -0.13905253443E+03 -0.75068414564E+02  0.55062496364E+01  0.18348524460E+03  0.93089430153E+02 0.  0.
          5    1    1    2  502    0  0.15256065635E+01  0.10800379530E+02 -0.14530600287E+03  0.14577476649E+03  0.41800000000E+01 0.  1.
         -5    1    1    2    0  502  0.13752692787E+03  0.64268035034E+02 -0.16509323955E+03  0.22431514964E+03  0.41800000000E+01 0.  1.
        -11    1    3    3    0    0 -0.48689817933E+02  0.63671605660E+01  0.32496281743E+02  0.58883337466E+02  0.00000000000E+00 0. -1.
         11    1    3    3    0    0 -0.90362716496E+02 -0.81435575130E+02 -0.26990032107E+02  0.12460190714E+03  0.00000000000E+00 0.  1.
</event>
<event>
 7    1  0.4274778E-006  0.1223144E+03  0.7561462E-02  0.1239327E+00
         -1   -1    0    0    0  501 -0.00000000000E+00  0.00000000000E+00  0.34844968296E+03  0.34844968296E+03  0.00000000000E+00 0.  1.
          1   -1    0    0  501    0  0.00000000000E+00 -0.00000000000E+00 -0.75182383296E+02  0.75182383296E+02  0.00000000000E+00 0. -1.
         23    2    1    2    0    0 -0.70272273201E+02 -0.71944665951E+02  0.41810736467E+02  0.14197012635E+03  0.91066743401E+02 0.  0.
          5    1    1    2  502    0  0.61185930324E+02  0.78143752877E+02  0.24461149214E+03  0.26401215630E+03  0.41800000000E+01 0.  1.
         -5    1    1    2    0  502  0.90863428770E+01 -0.61990869261E+01 -0.13154928948E+02  0.17649783603E+02  0.41800000000E+01 0.  1.
        -11    1    3    3    0    0 -0.67144489266E+02 -0.58956909966E+01  0.33680108108E+02  0.75349129347E+02  0.00000000000E+00 0.  1.
         11    1    3    3    0    0 -0.31277839353E+01 -0.66048974955E+02  0.81306283586E+01  0.66620997008E+02  0.00000000000E+00 0. -1.
</event>
<event>
 7    1  0.4274778E-006  0.1145625E+03  0.7561462E-02  0.1252347E+00
         -2   -1    0    0    0  501 -0.00000000000E+00  0.00000000000E+00  0.20851145979E+02  0.20851145979E+02  0.00000000000E+00 0.  1.
          2   -1    0    0  501    0  0.00000000000E+00 -0.00000000000E+00 -0.66055534728E+03  0.66055534728E+03  0.00000000000E+00 0. -1.
         23    2    1    2    0    0  0.18515239523E+02 -0.40279765203E+02 -0.30768673789E+03  0.32384776177E+03  0.90779791532E+02 0.  0.
          5    1    1    2  502    0 -0.40882177823E+02 -0.33203378949E+02 -0.99651765487E+02  0.11279079573E+03  0.41800000000E+01 0.  1.
         -5    1    1    2    0  502  0.22366938300E+02  0.73483144152E+02 -0.23236569792E+03  0.24476793576E+03  0.41800000000E+01 0.  1.
        -11    1    3    3    0    0  0.54137415410E+02 -0.31665065718E+02 -0.22112390533E+03  0.22984629134E+03  0.00000000000E+00 0.  1.
         11    1    3    3    0    0 -0.35622175888E+02 -0.86146994849E+01 -0.86562832558E+02  0.94001470428E+02  0.00000000000E+00 0. -1.
</event>
<event>
 7    1  0.4274778E-006  0.1198493E+03  0.7561462E-02  0.1243346E+00
          1   -1    0    0  501    0  0.00000000000E+00  0.00000000000E+00  0.54936113809E+02  0.54936113809E+02  0.00000000000E+00 0. -1.
         -1   -1    0    0    0  501 -0.00000000000E+00 -0.00000000000E+00 -0.41874571102E+03  0.41874571102E+03  0.00000000000E+00 0.  1.
         23    2    1    2    0    0 -0.58779077401E+02  0.39192684993E+02 -0.44569777530E+02  0.12360733590E+03  0.91111261223E+02 0.  0.
          5    1    1    2  502    0 -0.17546174851E+01  0.38811677478E+02 -0.14050955497E+03  0.14584180618E+03  0.41800000000E+01 0.  1.
         -5    1    1    2    0  502  0.60533694886E+02 -0.78004362471E+02 -0.17873026471E+03  0.20423268276E+03  0.41800000000E+01 0.  1.
        -11    1    3    3    0    0 -0.72202627688E+02  0.14429838424E+02 -0.56707334983E+02  0.92936330479E+02  0.00000000000E+00 0.  1.
         11    1    3    3    0    0  0.13423550287E+02  0.24762846569E+02  0.12137557453E+02  0.30671005419E+02  0.00000000000E+00 0. -1.
</event>
<event>
 7    1  0.4274778E-006  0.1204822E+03  0.7561462E-02  0.1242304E+00
          2   -1    0    0  501    0  0.00000000000E+00  0.00000000000E+00  0.77931878577E+02  0.77931878577E+02  0.00000000000E+00 0. -1.
         -2   -1    0    0    0  501 -0.00000000000E+00 -0.00000000000E+00 -0.26969652281E+03  0.26969652281E+03  0.00000000000E+00 0.  1.
         23    2    1    2    0    0 -0.71827094867E+02 -0.62514063675E+02 -0.78710346835E+02  0.15398872008E+03  0.91924248694E+02 0.  0.
          5    1    1    2  502    0  0.10037953201E+03  0.51614999233E+02 -0.11690255587E+03  0.16255410964E+03  0.41800000000E+01 0. -1.
         -5    1    1    2    0  502 -0.28552437141E+02  0.10899064443E+02  0.38482584784E+01  0.31085571665E+02  0.41800000000E+01 0. -1.
        -11    1    3    3    0    0 -0.41330776725E+02 -0.23147789270E+02 -0.91094058653E+02  0.10267512247E+03  0.00000000000E+00 0.  1.
         11    1    3    3    0    0 -0.30496318142E+02 -0.39366274406E+02  0.12383711818E+02  0.51313597605E+02  0.00000000000E+00 0. -1.
</event>
<event>
 7    1  0.4274778E-006  0.9347872E+02  0.7561462E-02  0.1294640E+00
         -1   -1    0    0    0  501 -0.00000000000E+00  0.00000000000E+00  0.31136014091E+03  0.31136014091E+03  0.00000000000E+00 0.  1.
          1   -1    0    0  501    0  0.00000000000E+00 -0.00000000000E+00 -0.44943560179E+02  0.44943560179E+02  0.00000000000E+00 0. -1.
         23    2    1    2    0    0  0.74713896102E+01  0.43328085203E+02  0.10049951553E+03  0.14390895128E+03  0.93147673118E+02 0.  0.
          5    1    1    2  502    0 -0.10070562298E+02 -0.72811494799E+02  0.41660031594E+02  0.84592911241E+02  0.41800000000E+01 0. -1.
         -5    1    1    2    0  502  0.25991726879E+01  0.29483409596E+02  0.12425703360E+03  0.12780183856E+03  0.41800000000E+01 0. -1.
        -11    1    3    3    0    0 -0.25315699260E+02  0.43870738217E+02  0.15760358586E+02  0.53046349577E+02  0.00000000000E+00 0. -1.
         11    1    3    3    0    0  0.32787088871E+02 -0.54265301372E+00  0.84739156945E+02  0.90862601705E+02  0.00000000000E+00 0.  1.
</event>
<event>
 7    1  0.4274778E-006  0.9806598E+02  0.7561462E-02  0.1284416E+00
         -1   -1    0    0    0  501 -0.00000000000E+00  0.00000000000E+00  0.34496034892E+03  0.34496034892E+03  0.00000000000E+00 0.  1.
          1   -1    0    0  501    0  0.00000000000E+00 -0.00000000000E+00 -0.72676296402E+02  0.72676296402E+02  0.00000000000E+00 0. -1.
         23    2    1    2    0    0 -0.72451873679E+02 -0.16426600790E+02  0.88844276982E+01  0.11672845351E+03  0.89596269957E+02 0.  0.
          5    1    1    2  502    0  0.62021264844E+02  0.23697880944E+02  0.41082825250E+02  0.78188859721E+02  0.41800000000E+01 0. -1.
         -5    1    1    2    0  502  0.10430608835E+02 -0.72712801538E+01  0.22231679957E+03  0.22271933209E+03  0.41800000000E+01 0. -1.
        -11    1    3    3    0    0 -0.90198220999E+02 -0.28689040573E+02  0.96686644231E+01  0.95143382283E+02  0.00000000000E+00 0.  1.
         11    1    3    3    0    0  0.17746347320E+02  0.12262439784E+02 -0.78423672486E+00  0.21585071227E+02  0.00000000000E+00 0. -1.
</event>
<event>
 7    1  0.4274778E-006  0.7183216E+02  0.7561462E-02  0.1353971E+00
         -2   -1    0    0    0  501 -0.00000000000E+00  0.00000000000E+00  0.37334994215E+02  0.37334994215E+02  0.00000000000E+00 0.  1.
          2   -1    0    0  501    0  0.00000000000E+00 -0.00000000000E+00 -0.37045602509E+03  0.37045602509E+03  0.00000000000E+00 0. -1.
         23    2    1    2    0    0  0.57389327238E+01 -0.16319192008E+01 -0.22310618919E+03  0.24109855498E+03  0.91195082370E+02 0.  0.
          5    1    1    2  502    0  0.35867087155E+02 -0.80287699836E+01 -0.11744874388E+03  0.12313646465E+03  0.41800000000E+01 0.  1.
         -5    1    1    2    0  502 -0.41606019878E+02  0.96606891844E+01  0.74339021964E+01  0.43555999673E+02  0.41800000000E+01 0.  1.
        -11    1    3    3    0    0 -0.18011790153E+02  0.23215198617E+02 -0.21063822077E+02  0.36153210533E+02  0.00000000000E+00 0.  1.
         11    1    3    3    0    0  0.23750722876E+02 -0.24847117818E+02 -0.20204236712E+03  0.20494534445E+03  0.00000000000E+00 0. -1.
</event>
<event>
 7    1  0.4274778E-006  0.1389998E+03  0.7561462E-02  0.1214681E+00
          2   -1    0    0  501    0  0.00000000000E+00  0.00000000000E+00  0.78880127556E+03  0.78880127556E+03  0.00000000000E+00 0. -1.
         -2   -1    0    0    0  501 -0.00000000000E+00 -0.00000000000E+00 -0.28505992969E+02  0.28505992969E+02  0.00000000000E+00 0.  1.
         23    2    1    2    0    0 -0.16882506023E+02  0.94977724881E+02  0.44051360438E+03  0.46063759160E+03  0.93962587878E+02 0.  0.
          5    1    1    2  502    0  0.26265681390E+02  0.23380956914E+02  0.11028855001E+03  0.11583432923E+03  0.41800000000E+01 0.  1.
         -5    1    1    2    0  502 -0.93831753679E+01 -0.11835868179E+03  0.20949312821E+03  0.24083534770E+03  0.41800000000E+01 0.  1.
        -11    1    3    3    0    0  0.31198255431E+02  0.40493791284E+02  0.98330614806E+02  0.11082413132E+03  0.00000000000E+00 0.  1.
         11    1    3    3    0    0 -0.48080761453E+02  0.54483933597E+02  0.34218298957E+03  0.34981346028E+03  0.00000000000E+00 0. -1.
</event>
<event>
 7    1  0.4274778E-006  0.1721530E+03  0.7561462E-02  0.1175621E+00
         -2   -1    0    0    0  501 -0.00000000000E+00  0.00000000000E+00  0.10244513046E+03  0.10244513046E+03  0.00000000000E+00 0.  1.
          2   -1    0    0  501    0  0.00000000000E+00 -0.00000000000E+00 -0.67267058318E+03  0.67267058318E+03  0.00000000000E+00 0. -1.
         23    2    1    2    0    0 -0.82536638668E+02  0.12802948033E+03 -0.54959238734E+03  0.57693160413E+03  0.87146078841E+02 0.  0.
          5    1    1    2  502    0 -0.71213131471E+01 -0.52363908295E+02  0.39667089525E+02  0.66209080829E+02  0.41800000000E+01 0.  1.
         -5    1    1    2    0  502  0.89657951815E+02 -0.75665572035E+02 -0.60300154900E+02  0.13197502868E+03  0.41800000000E+01 0.  1.
        -11    1    3    3    0    0 -0.43992123136E+02  0.41774862819E+01 -0.17596409149E+03  0.18142800165E+03  0.00000000000E+00 0.  1.
         11    1    3    3    0    0 -0.38544515532E+02  0.12385199405E+03 -0.37362829585E+03  0.39550360247E+03  0.00000000000E+00 0. -1.
</event>
<event>
 7    1  0.4274778E-006  0.9027070E+02  0.7561462E-02  0.1302197E+00
          3   -1    0    0  501    0  0.00000000000E+00  0.00000000000E+00  0.36893348066E+03  0.36893348066E+03  0.00000000000E+00 0. -1.
         -3   -1    0    0    0  501 -0.00000000000E+00 -0.00000000000E+00 -0.31651151258E+02  0.31651151258E+02  0.00000000000E+00 0.  1.
         23    2    1    2    0    0 -0.13243070061E+02  0.90808904809E-01  0.16364568703E+03  0.18617380211E+03  0.87780331273E+02 0.  0.
          5    1    1    2  502    0  0.15478799964E+02  0.57224500723E+02  0.48557094199E+02  0.76743081306E+02  0.41800000000E+01 0. -1.
         -5    1    1    2    0  502 -0.22357299028E+01 -0.57315309628E+02  0.12507954817E+03  0.13766774849E+03  0.41800000000E+01 0. -1.
        -11    1    3    3    0    0  0.25174009073E+02  0.61570272529E+00  0.88658270242E+01  0.26696679784E+02  0.00000000000E+00 0.  1.
         11    1    3    3    0    0 -0.38417079134E+02 -0.52489382048E+00  0.15477986001E+03  0.15947712233E+03  0.00000000000E+00 0. -1.
</event>
<event>
 7    1  0.4274778E-006  0.1181570E+03  0.7561462E-02  0.1246169E+00
         -2   -1    0    0    0  501 -0.00000000000E+00  0.00000000000E+00  0.72493646872E+02  0.72493646872E+02  0.00000000000E+00 0.  1.
          2   -1    0    0  501    0  0.00000000000E+00 -0.00000000000E+00 -0.23810828413E+03  0.23810828413E+03  0.00000000000E+00 0. -1.
         23    2    1    2    0    0 -0.64992389319E+02  0.79395905912E+01 -0.13776455639E+03  0.17717162244E+03  0.90131365420E+02 0.  0.
          5    1    1    2  502    0 -0.22363553898E+02  0.22840650754E+02  0.92957115362E+01  0.33551550229E+02  0.41800000000E+01 0. -1.
         -5    1    1    2    0  502  0.87355943217E+02 -0.30780241345E+02 -0.37145792403E+02  0.99878758332E+02  0.41800000000E+01 0.  1.
        -11    1    3    3    0    0 -0.47275299829E+02 -0.38938754777E+02 -0.78179391550E+02  0.99313633810E+02  0.00000000000E+00 0. -1.
         11    1    3    3    0    0 -0.17717089490E+02  0.46878345368E+02 -0.59585164839E+02  0.77857988629E+02  0.00000000000E+00 0.  1.
</event>
<event>
 7    1  0.4274778E-006  0.1348550E+03  0.7561462E-02  0.1220425E+00
         -2   -1    0    0    0  501 -0.00000000000E+00  0.00000000000E+00  0.11987372571E+03  0.11987372571E+03  0.00000000000E+00 0.  1.
          2   -1    0    0  501    0  0.00000000000E+00 -0.00000000000E+00 -0.27504057251E+03  0.27504057251E+03  0.00000000000E+00 0. -1.
         23    2    1    2    0    0 -0.10198474018E+03  0.28467411049E+02 -0.18226251317E+03  0.22880228879E+03  0.88992038554E+02 0.  0.
          5    1    1    2  502    0  0.10574705467E+03  0.19479234308E+02  0.42113399881E+02  0.11555470995E+03  0.41800000000E+01 0. -1.
         -5    1    1    2    0  502 -0.37623144904E+01 -0.47946645357E+02 -0.15017733514E+02  0.50557299485E+02  0.41800000000E+01 0. -1.
        -11    1    3    3    0    0 -0.87689149288E+02  0.39099671829E+02 -0.79922475907E+02  0.12492306991E+03  0.00000000000E+00 0.  1.
         11    1    3    3    0    0 -0.14295590893E+02 -0.10632260779E+02 -0.10234003726E+03  0.10387921888E+03  0.00000000000E+00 0. -1.
</event>
<event>
 7    1  0.4274778E-006  0.1017927E+03  0.7561462E-02  0.1276571E+00
         -1   -1    0    0    0  501 -0.00000000000E+00  0.00000000000E+00  0.11934038863E+03  0.11934038863E+03  0.00000000000E+00 0.  1.
          1   -1    0    0  501    0  0.00000000000E+00 -0.00000000000E+00 -0.13067818833E+03  0.13067818833E+03  0.00000000000E+00 0. -1.
         23    2    1    2    0    0  0.59972823569E+02 -0.24704982014E+01 -0.87869091240E+01  0.11124873739E+03  0.93253572962E+02 0.  0.
          5    1    1    2  502    0  0.22621469317E+02 -0.20126965057E+02  0.33869447076E+02  0.45622773280E+02  0.41800000000E+01 0. -1.
         -5    1    1    2    0  502 -0.82594292885E+02  0.22597463259E+02 -0.36420337654E+02  0.93147066287E+02  0.41800000000E+01 0. -1.
        -11    1    3    3    0    0  0.71166611329E+02 -0.12501810370E+02  0.23213813435E+02  0.75893761040E+02  0.00000000000E+00 0.  1.
         11    1    3    3    0    0 -0.11193787760E+02  0.10031312169E+02 -0.32000722559E+02  0.35354976348E+02  0.00000000000E+00 0. -1.
</event>
<event>
 7    1  0.4274778E-006  0.9298872E+02  0.7561462E-02  0.1295771E+00
          1   -1    0    0  501    0  0.00000000000E+00  0.00000000000E+00  0.52278982143E+03  0.52278982143E+03  0.00000000000E+00 0. -1.
         -1   -1    0    0    0  501 -0.00000000000E+00 -0.00000000000E+00 -0.42121718149E+02  0.42121718149E+02  0.00000000000E+00 0.  1.
         23    2    1    2    0    0 -0.29465182892E+02 -0.22083608054E+02  0.36342860976E+03  0.37653316424E+03  0.91329002180E+02 0.  0.
          5    1    1    2  502    0 -0.19171744960E+02 -0.24756542265E+02 -0.18575113791E+02  0.36646274601E+02  0.41800000000E+01 0. -1.
         -5    1    1    2    0  502  0.48636927853E+02  0.46840150319E+02  0.13581460731E+03  0.15173210073E+03  0.41800000000E+01 0.  1.
        -11    1    3    3    0    0 -0.85002994749E+00  0.28556032739E+02  0.48586362396E+02  0.56363145473E+02  0.00000000000E+00 0.  1.
         11    1    3    3    0    0 -0.28615152945E+02 -0.50639640793E+02  0.31484224736E+03  0.32017001877E+03  0.00000000000E+00 0. -1.
</event>
<event>
 7    1  0.4274778E-006  0.8100801E+02  0.7561462E-02  0.1326215E+00
         -2   -1    0    0    0  501 -0.00000000000E+00  0.00000000000E+00  0.30235730275E+02  0.30235730275E+02  0.00000000000E+00 0. -1.
          2   -1    0    0  501    0  0.00000000000E+00 -0.00000000000E+00 -0.47279715003E+03  0.47279715003E+03  0.00000000000E+00 0.  1.
         23    2    1    2    0    0  0.51263733176E+02  0.24703098454E+01 -0.23347478259E+03  0.25403961736E+03  0.85974300296E+02 0.  0.
          5    1    1    2  502    0 -0.59180509891E+02 -0.60539805132E-01 -0.24522276270E+02  0.64196190303E+02  0.41800000000E+01 0.  1.
         -5    1    1    2    0  502  0.79167767150E+01 -0.24097700402E+01 -0.18456436090E+03  0.18479707264E+03  0.41800000000E+01 0.  1.
        -11    1    3    3    0    0  0.59823876210E+01 -0.34466106124E+02 -0.13567409655E+03  0.14011124833E+03  0.00000000000E+00 0.  1.
         11    1    3    3    0    0  0.45281345555E+02  0.36936415969E+02 -0.97800686040E+02  0.11392836903E+03  0.00000000000E+00 0. -1.
</event>
<event>
 7    1  0.4274778E-006  0.1943120E+03  0.7561462E-02  0.1154629E+00
          3   -1    0    0  501    0  0.00000000000E+00  0.00000000000E+00  0.54362506889E+03  0.54362506889E+03  0.00000000000E+00 0. -1.
         -3   -1    0    0    0  501 -0.00000000000E+00 -0.00000000000E+00 -0.74862784160E+02  0.74862784160E+02  0.00000000000E+00 0.  1.
         23    2    1    2    0    0 -0.11665778321E+03  0.12276159330E+03  0.23777488841E+03  0.30594592975E+03  0.91578202659E+02 0.  0.
          5    1    1    2  502    0  0.52698825294E+01  0.23261534569E+02  0.45139805321E+02  0.51224457799E+02  0.41800000000E+01 0. -1.
         -5    1    1    2    0  502  0.11138790069E+03 -0.14602312787E+03  0.18584759101E+03  0.26131746550E+03  0.41800000000E+01 0. -1.
        -11    1    3    3    0    0 -0.78544368751E+01 -0.75824487103E+01  0.56617058495E+02  0.57660012311E+02  0.00000000000E+00 0. -1.
         11    1    3    3    0    0 -0.10880334634E+03  0.13034404201E+03  0.18115782991E+03  0.24828591744E+03  0.00000000000E+00 0.  1.
</event>
<event>
 7    1  0.4274778E-006  0.1001422E+03  0.7561462E-02  0.1279997E+00
          1   -1    0    0  501    0  0.00000000000E+00  0.00000000000E+00  0.13796777380E+03  0.13796777380E+03  0.00000000000E+00 0. -1.
         -1   -1    0    0    0  501 -0.00000000000E+00 -0.00000000000E+00 -0.12024079203E+03  0.12024079203E+03  0.00000000000E+00 0.  1.
         23    2    1    2    0    0  0.66896503272E+02  0.95111842118E+01  0.24515099735E+02  0.11588651869E+03  0.90901541922E+02 0.  0.
          5    1    1    2  502    0 -0.24633979653E+02  0.41479404779E+02  0.38599160565E+02  0.61925290235E+02  0.41800000000E+01 0. -1.
         -5    1    1    2    0  502 -0.42262523619E+02 -0.50990588991E+02 -0.45387278537E+02  0.80396756908E+02  0.41800000000E+01 0. -1.
        -11    1    3    3    0    0 -0.79386608367E+01  0.70627740248E+01 -0.24288058580E+02  0.26510656393E+02  0.00000000000E+00 0.  1.
         11    1    3    3    0    0  0.74835164109E+02  0.24484101870E+01  0.48803158316E+02  0.89375862296E+02  0.00000000000E+00 0. -1.
</event>
<event>
 7    1  0.4274778E-006  0.9117179E+02  0.7561462E-02  0.1300039E+00
          2   -1    0    0  501    0  0.00000000000E+00  0.00000000000E+00  0.57875049119E+02  0.57875049119E+02  0.00000000000E+00 0. -1.
         -2   -1    0    0    0  501 -0.00000000000E+00 -0.00000000000E+00 -0.22696710684E+03  0.22696710684E+03  0.00000000000E+00 0.  1.
         23    2    1    2    0    0 -0.82931177409E+01 -0.26151156495E+02 -0.58550189250E+02  0.11566837620E+03  0.95908236374E+02 0.  0.
          5    1    1    2  502    0  0.73225405025E+01  0.54393357638E+02 -0.43905969190E-01  0.55042994852E+02  0.41800000000E+01 0. -1.
         -5    1    1    2    0  502  0.97057723840E+00 -0.28242201143E+02 -0.11049796250E+03  0.11413078490E+03  0.41800000000E+01 0. -1.
        -11    1    3    3    0    0  0.27217090314E+02 -0.49321882286E+02 -0.25150608150E+02  0.61692553584E+02  0.00000000000E+00 0. -1.
         11    1    3    3    0    0 -0.35510208055E+02  0.23170725791E+02 -0.33399581100E+02  0.53975822619E+02  0.00000000000E+00 0.  1.
</event>
<event>
 7    1  0.4274778E-006  0.1025704E+03  0.7561462E-02  0.1274982E+00
          1   -1    0    0  501    0  0.00000000000E+00  0.00000000000E+00  0.18737628844E+03  0.18737628844E+03  0.00000000000E+00 0. -1.
         -1   -1    0    0    0  501 -0.00000000000E+00 -0.00000000000E+00 -0.76509313007E+02  0.76509313007E+02  0.00000000000E+00 0.  1.
         23    2    1    2    0    0  0.88055420255E+01  0.52855380521E+02  0.35133817224E+02  0.10814872555E+03  0.87123664442E+02 0.  0.
          5    1    1    2  502    0 -0.25244097481E+02  0.18768740824E+02 -0.18058595218E+02  0.36511852199E+02  0.41800000000E+01 0.  1.
         -5    1    1    2    0  502  0.16438555456E+02 -0.71624121345E+02  0.93791753424E+02  0.11922502369E+03  0.41800000000E+01 0.  1.
        -11    1    3    3    0    0  0.29594280158E+02  0.67947761787E+02  0.15256150811E+02  0.75666834792E+02  0.00000000000E+00 0.  1.
         11    1    3    3    0    0 -0.20788738132E+02 -0.15092381266E+02  0.19877666414E+02  0.32481890762E+02  0.00000000000E+00 0. -1.
</event>
<event>
 7    1  0.4274778E-006  0.9172264E+02  0.7561462E-02  0.1298733E+00
         -2   -1    0    0    0  501 -0.00000000000E+00  0.00000000000E+00  0.57449139272E+02  0.57449139272E+02  0.00000000000E+00 0.  1.
          2   -1    0    0  501    0  0.00000000000E+00 -0.00000000000E+00 -0.24466112922E+03  0.24466112922E+03  0.00000000000E+00 0. -1.
         23    2    1    2    0    0 -0.37949373094E+02 -0.20232967894E+01 -0.11563206926E+03  0.15305278187E+03  0.92790785899E+02 0.  0.
          5    1    1    2  502    0 -0.27525235610E+02  0.74637547507E+01 -0.77764508384E+02  0.82934536802E+02  0.41800000000E+01 0. -1.
         -5    1    1    2    0  502  0.65474608704E+02 -0.54404579613E+01  0.61845876997E+01  0.66122949819E+02  0.41800000000E+01 0. -1.
        -11    1    3    3    0    0  0.37405788373E+00  0.35294875136E+02 -0.13556573921E+02  0.37810697252E+02  0.00000000000E+00 0.  1.
         11    1    3    3    0    0 -0.38323430978E+02 -0.37318171926E+02 -0.10207549534E+03  0.11524208462E+03  0.00000000000E+00 0. -1.
</event>
<event>
 7    1  0.4274778E-006  0.2499774E+03  0.7561462E-02  0.1113319E+00
         -2   -1    0    0    0  501 -0.00000000000E+00  0.00000000000E+00  0.28653419341E+02  0.28653419341E+02  0.00000000000E+00 0.  1.
          2   -1    0    0  501    0  0.00000000000E+00 -0.00000000000E+00 -0.23156022841E+04  0.23156022841E+04  0.00000000000E+00 0. -1.
         23    2    1    2    0    0  0.94427881307E+02  0.20856479868E+03 -0.13512133893E+04  0.13728309476E+04  0.80444312540E+02 0.  0.
          5    1    1    2  502    0 -0.11164606652E+03 -0.21198971091E+03 -0.90048310540E+03  0.93182175184E+03  0.41800000000E+01 0. -1.
         -5    1    1    2    0  502  0.17218185217E+02  0.34249122243E+01 -0.35252370087E+02  0.39603003960E+02  0.41800000000E+01 0. -1.
        -11    1    3    3    0    0 -0.12627488899E+02  0.45448825905E+02 -0.23367069443E+03  0.23838423330E+03  0.00000000000E+00 0.  1.
         11    1    3    3    0    0  0.10705537021E+03  0.16311597278E+03 -0.11175426948E+04  0.11344467143E+04  0.00000000000E+00 0. -1.
</event>
<event>
 7    1  0.4274778E-006  0.9762629E+02  0.7561462E-02  0.1285368E+00
          3   -1    0    0  501    0  0.00000000000E+00  0.00000000000E+00  0.30392027543E+02  0.30392027543E+02  0.00000000000E+00 0. -1.
         -3   -1    0    0    0  501 -0.00000000000E+00 -0.00000000000E+00 -0.51758201323E+03  0.51758201323E+03  0.00000000000E+00 0.  1.
         23    2    1    2    0    0 -0.23155401819E+02 -0.58680513675E+02 -0.20741027297E+03  0.23507091500E+03  0.90883103105E+02 0.  0.
          5    1    1    2  502    0 -0.23530319353E+02  0.28324640160E+02 -0.24351203801E+03  0.24631594797E+03  0.41800000000E+01 0. -1.
         -5    1    1    2    0  502  0.46685721172E+02  0.30355873515E+02 -0.36267674711E+02  0.66587177798E+02  0.41800000000E+01 0. -1.
        -11    1    3    3    0    0  0.17002532521E+01  0.19878851409E+02 -0.86383589419E+02  0.88657679394E+02  0.00000000000E+00 0.  1.
         11    1    3    3    0    0 -0.24855655071E+02 -0.78559365084E+02 -0.12102668355E+03  0.14641323561E+03  0.00000000000E+00 0. -1.
</event>
<event>
 7    1  0.4274778E-006  0.1076796E+03  0.7561462E-02  0.1264928E+00
         -1   -1    0    0    0  501 -0.00000000000E+00  0.00000000000E+00  0.13380050478E+02  0.13380050478E+02  0.00000000000E+00 0.  1.
          1   -1    0    0  501    0  0.00000000000E+00 -0.00000000000E+00 -0.92637464850E+03  0.92637464850E+03  0.00000000000E+00 0. -1.
         23    2    1    2    0    0 -0.21183748306E+02  0.20771358771E+02 -0.47917965746E+03  0.48901946057E+03  0.92987569935E+02 0.  0.
          5    1    1    2  502    0  0.41985320528E+02  0.38125496039E+02 -0.25545750601E+03  0.26171039407E+03  0.41800000000E+01 0. -1.
         -5    1    1    2    0  502 -0.20801572223E+02 -0.58896854810E+02 -0.17835743456E+03  0.18902484433E+03  0.41800000000E+01 0.  1.
        -11    1    3    3    0    0 -0.32194931853E+02  0.52900447735E+02 -0.35074696690E+03  0.35617187676E+03  0.00000000000E+00 0. -1.
         11    1    3    3    0    0  0.11011183547E+02 -0.32129088964E+02 -0.12843269056E+03  0.13284758381E+03  0.00000000000E+00 0.  1.
</event>
<event>
 7    1  0.4274778E-006  0.2353245E+03  0.7561462E-02  0.1122947E+00
         -3   -1    0    0    0  501 -0.00000000000E+00  0.00000000000E+00  0.33494878749E+03  0.33494878749E+03  0.00000000000E+00 0.  1.
          3   -1    0    0  501    0  0.00000000000E+00 -0.00000000000E+00 -0.19115627323E+03  0.19115627323E+03  0.00000000000E+00 0. -1.
         23    2    1    2    0    0 -0.16467170574E+03 -0.15798590736E+03  0.78634040662E+02  0.25783399398E+03  0.90657258437E+02 0.  0.
          5    1    1    2  502    0  0.66865876009E+02  0.11987038251E+03  0.84802496286E+02  0.16139668446E+03  0.41800000000E+01 0. -1.
         -5    1    1    2    0  502  0.97805829727E+02  0.38115524850E+02 -0.19644022689E+02  0.10687438229E+03  0.41800000000E+01 0. -1.
        -11    1    3    3    0    0 -0.98333618839E+02 -0.98187061485E+02  0.93228653649E+02  0.16733732847E+03  0.00000000000E+00 0.  1.
         11    1    3    3    0    0 -0.66338086897E+02 -0.59798845872E+02 -0.14594612987E+02  0.90496665513E+02  0.00000000000E+00 0. -1.
</event>
<event>
 7    1  0.4274778E-006  0.1325096E+03  0.7561462E-02  0.1223779E+00
         -2   -1    0    0    0  501 -0.00000000000E+00  0.00000000000E+00  0.61157828524E+02  0.61157828524E+02  0.00000000000E+00 0.  1.
          2   -1    0    0  501    0  0.00000000000E+00 -0.00000000000E+00 -0.49014888735E+03  0.49014888735E+03  0.00000000000E+00 0. -1.
         23    2    1    2    0    0  0.10534673534E+01  0.10632778752E+03 -0.33408885690E+03  0.36169581401E+03  0.88892009604E+02 0.  0.
          5    1    1    2  502    0  0.35869926982E+02 -0.74994103078E+02 -0.28244437412E+00  0.83236526435E+02  0.41800000000E+01 0. -1.
         -5    1    1    2    0  502 -0.36923394336E+02 -0.31333684443E+02 -0.94619757552E+02  0.10637437544E+03  0.41800000000E+01 0. -1.
        -11    1    3    3    0    0 -0.38394929076E+02  0.68473900914E+02 -0.14531764705E+03  0.16516677701E+03  0.00000000000E+00 0.  1.
         11    1    3    3    0    0  0.39448396430E+02  0.37853886607E+02 -0.18877120986E+03  0.19652903700E+03  0.00000000000E+00 0. -1.
</event>
<event>
 7    1  0.4274778E-006  0.1217984E+03  0.7561462E-02  0.1240159E+00
         -2   -1    0    0    0  501 -0.00000000000E+00  0.00000000000E+00  0.33139898789E+03  0.33139898789E+03  0.00000000000E+00 0.  1.
          2   -1    0    0  501    0  0.00000000000E+00 -0.00000000000E+00 -0.57328996780E+02  0.57328996780E+02  0.00000000000E+00 0. -1.
         23    2    1    2    0    0  0.14824374113E+02  0.69089356148E+02  0.58130135926E+02  0.12936174595E+03  0.91445324708E+02 0.  0.
          5    1    1    2  502    0  0.51530719848E+02 -0.81656356642E+01  0.95557440821E+02  0.10895315319E+03  0.41800000000E+01 0. -1.
         -5    1    1    2    0  502 -0.66355093961E+02 -0.60923720483E+02  0.12038241437E+03  0.15041308554E+03  0.41800000000E+01 0. -1.
        -11    1    3    3    0    0 -0.14154359445E+02  0.70652606523E+02  0.67632740786E+02  0.98824715158E+02  0.00000000000E+00 0.  1.
         11    1    3    3    0    0  0.28978733557E+02 -0.15632503758E+01 -0.95026048595E+01  0.30537030789E+02  0.00000000000E+00 0. -1.
</event>
<event>
 7    1  0.4274778E-006  0.1075893E+03  0.7561462E-02  0.1265100E+00
         -1   -1    0    0    0  501 -0.00000000000E+00  0.00000000000E+00  0.43221207611E+02  0.43221207611E+02  0.00000000000E+00 0.  1.
          1   -1    0    0  501    0  0.00000000000E+00 -0.00000000000E+00 -0.61321778055E+03  0.61321778055E+03  0.00000000000E+00 0. -1.
         23    2    1    2    0    0 -0.53457358517E+02  0.67782428828E+02 -0.43483343296E+03  0.45305146205E+03  0.93398961504E+02 0.  0.
          5    1    1    2  502    0  0.12747058790E+02 -0.27742033792E+02 -0.14238349327E+03  0.14567992142E+03  0.41800000000E+01 0.  1.
         -5    1    1    2    0  502  0.40710299726E+02 -0.40040395036E+02  0.72203532892E+01  0.57707604699E+02  0.41800000000E+01 0.  1.
        -11    1    3    3    0    0 -0.79102519674E+02  0.62763738672E+02 -0.35152331137E+03  0.36573916108E+03  0.00000000000E+00 0. -1.
         11    1    3    3    0    0  0.25645161157E+02  0.50186901562E+01 -0.83310121589E+02  0.87312300971E+02  0.00000000000E+00 0.  1.
</event>
<event>
 7    1  0.4274778E-006  0.9994139E+02  0.7561462E-02  0.1280419E+00
          1   -1    0    0  501    0  0.00000000000E+00  0.00000000000E+00  0.45782461935E+02  0.45782461935E+02  0.00000000000E+00 0. -1.
         -1   -1    0    0    0  501 -0.00000000000E+00 -0.00000000000E+00 -0.33499962684E+03  0.33499962684E+03  0.00000000000E+00 0.  1.
         23    2    1    2    0    0  0.26899570431E+02 -0.52236902446E+02 -0.11310484235E+03  0.15692335732E+03  0.91542087828E+02 0.  0.
          5    1    1    2  502    0 -0.58998761258E+02 -0.13985689332E+02 -0.54407592024E+02  0.81572739355E+02  0.41800000000E+01 0.  1.
         -5    1    1    2    0  502  0.32099190827E+02  0.66222591778E+02 -0.12170473053E+03  0.14228599210E+03  0.41800000000E+01 0.  1.
        -11    1    3    3    0    0  0.25396827485E+02 -0.18009940531E+02  0.70981255590E+01  0.31933371114E+02  0.00000000000E+00 0. -1.
         11    1    3    3    0    0  0.15027429456E+01 -0.34226961915E+02 -0.12020296791E+03  0.12498998621E+03  0.00000000000E+00 0.  1.
</event>
<event>
 7    1  0.4274778E-006  0.9625599E+02  0.7561462E-02  0.1288372E+00
          2   -1    0    0  501    0  0.00000000000E+00  0.00000000000E+00  0.42894918217E+03  0.42894918217E+03  0.00000000000E+00 0.  1.
         -2   -1    0    0    0  501 -0.00000000000E+00 -0.00000000000E+00 -0.30897334955E+02  0.30897334955E+02  0.00000000000E+00 0. -1.
         23    2    1    2    0    0 -0.68596632542E+01 -0.33181303400E+02  0.21316443400E+03  0.23404520830E+03  0.90498783028E+02 0.  0.
          5    1    1    2  502    0  0.51992661093E+02  0.23793798134E+02  0.16632748940E+03  0.17593091760E+03  0.41800000000E+01 0. -1.
         -5    1    1    2    0  502 -0.45132997838E+02  0.93875052667E+01  0.18559923811E+02  0.49870391225E+02  0.41800000000E+01 0. -1.
        -11    1    3    3    0    0  0.23480677394E+02 -0.49249290824E+02  0.82229721566E+02  0.98684152559E+02  0.00000000000E+00 0. -1.
         11    1    3    3    0    0 -0.30340340649E+02  0.16067987423E+02  0.13093471244E+03  0.13536105574E+03  0.00000000000E+00 0.  1.
</event>
<event>
 7    1  0.4274778E-006  0.2428075E+03  0.7561462E-02  0.1117937E+00
          1   -1    0    0  501    0  0.00000000000E+00  0.00000000000E+00  0.47957472856E+03  0.47957472856E+03  0.00000000000E+00 0. -1.
         -1   -1    0    0    0  501 -0.00000000000E+00 -0.00000000000E+00 -0.14204777814E+03  0.14204777814E+03  0.00000000000E+00 0.  1.
         23    2    1    2    0    0 -0.29153899203E+01  0.22364318573E+03  0.25452329658E+03  0.35225168443E+03  0.96303513228E+02 0.  0.
          5    1    1    2  502    0  0.35274544878E+02 -0.19879458998E+03  0.32873384382E+02  0.20460135465E+03  0.41800000000E+01 0.  1.
         -5    1    1    2    0  502 -0.32359154958E+02 -0.24848595753E+02  0.50130269459E+02  0.64769467626E+02  0.41800000000E+01 0.  1.
        -11    1    3    3    0    0 -0.38588447361E+02  0.39985681458E+02  0.71180879003E+02  0.90303048271E+02  0.00000000000E+00 0.  1.
         11    1    3    3    0    0  0.35673057440E+02  0.18365750428E+03  0.18334241757E+03  0.26194863616E+03  0.00000000000E+00 0. -1.
</event>
<event>
 7    1  0.4274778E-006  0.1022919E+03  0.7561462E-02  0.1275549E+00
         -1   -1    0    0    0  501 -0.00000000000E+00  0.00000000000E+00  0.89226821546E+02  0.89226821546E+02  0.00000000000E+00 0.  1.
          1   -1    0    0  501    0  0.00000000000E+00 -0.00000000000E+00 -0.27018614943E+03  0.27018614943E+03  0.00000000000E+00 0. -1.
         23    2    1    2    0    0  0.22799079693E+01  0.56895585240E+02 -0.19367131642E+03  0.22137960151E+03  0.90873778175E+02 0.  0.
          5    1    1    2  502    0 -0.44060049696E+01  0.35274779223E+02  0.26746178031E+02  0.44682808420E+02  0.41800000000E+01 0. -1.
         -5    1    1    2    0  502  0.21260970003E+01 -0.92170364463E+02 -0.14034189499E+02  0.93350561051E+02  0.41800000000E+01 0. -1.
        -11    1    3    3    0    0 -0.24413381267E+02  0.25817138001E+02 -0.15862557770E+02  0.38912190100E+02  0.00000000000E+00 0.  1.
         11    1    3    3    0    0  0.26693289236E+02  0.31078447240E+02 -0.17780875865E+03  0.18246741141E+03  0.00000000000E+00 0. -1.
</event>
<event>
 7    1  0.4274778E-006  0.1539332E+03  0.7561462E-02  0.1195722E+00
         -2   -1    0    0    0  501 -0.00000000000E+00  0.00000000000E+00  0.16908473313E+03  0.16908473313E+03  0.00000000000E+00 0.  1.
          2   -1    0    0  501    0  0.00000000000E+00 -0.00000000000E+00 -0.17797772342E+03  0.17797772342E+03  0.00000000000E+00 0. -1.
         23    2    1    2    0    0  0.64868608940E+02  0.11738531547E+03 -0.17604697760E+02  0.16345270093E+03  0.91758440185E+02 0.  0.
          5    1    1    2  502    0  0.12729954356E+02  0.14122311842E+02  0.23067920304E+02  0.30184313423E+02  0.41800000000E+01 0. -1.
         -5    1    1    2    0  502 -0.77598563296E+02 -0.13150762731E+03 -0.14356212842E+02  0.15342544220E+03  0.41800000000E+01 0. -1.
        -11    1    3    3    0    0  0.77394823816E+01  0.31928180835E+02  0.34980519244E+02  0.47989009633E+02  0.00000000000E+00 0.  1.
         11    1    3    3    0    0  0.57129126558E+02  0.85457134631E+02 -0.52585217003E+02  0.11546369130E+03  0.00000000000E+00 0. -1.
</event>
<event>
 7    1  0.4274778E-006  0.1150320E+03  0.7561462E-02  0.1251525E+00
          1   -1    0    0  501    0  0.00000000000E+00  0.00000000000E+00  0.55574072890E+03  0.55574072890E+03  0.00000000000E+00 0.  1.
         -1   -1    0    0    0  501 -0.00000000000E+00 -0.00000000000E+00 -0.42953069518E+02  0.42953069518E+02  0.00000000000E+00 0. -1.
         23    2    1    2    0    0 -0.25879792925E+02  0.59033820743E+02  0.41158287773E+03  0.42535916747E+03  0.85878987168E+02 0.  0.
          5    1    1    2  502    0  0.49044875816E+02  0.10745085923E+02  0.83615132577E+02  0.97620794460E+02  0.41800000000E+01 0.  1.
         -5    1    1    2    0  502 -0.23165082891E+02 -0.69778906666E+02  0.17589649073E+02  0.75713836486E+02  0.41800000000E+01 0.  1.
        -11    1    3    3    0    0 -0.53330409310E+02  0.17259716319E+02  0.18386274376E+03  0.19221742613E+03  0.00000000000E+00 0. -1.
         11    1    3    3    0    0  0.27450616385E+02  0.41774104424E+02  0.22772013398E+03  0.23314174135E+03  0.00000000000E+00 0.  1.
</event>
<event>
 7    1  0.4274778E-006  0.1215566E+03  0.7561462E-02  0.1240551E+00
         -2   -1    0    0    0  501 -0.00000000000E+00  0.00000000000E+00  0.51247262997E+03  0.51247262997E+03  0.00000000000E+00 0.  1.
          2   -1    0    0  501    0  0.00000000000E+00 -0.00000000000E+00 -0.28892326861E+03  0.28892326861E+03  0.00000000000E+00 0. -1.
         23    2    1    2    0    0 -0.56168038163E+02 -0.72495810588E+02 -0.25305436223E+03  0.28422351914E+03  0.91301738895E+02 0.  0.
          5    1    1    2  502    0  0.66032024858E+02  0.16540998341E+02  0.44737043167E+02  0.81564136508E+02  0.41800000000E+01 0. -1.
         -5    1    1    2    0  502 -0.98639866949E+01  0.55954812247E+02  0.43186668043E+03  0.43560824293E+03  0.41800000000E+01 0.  1.
        -11    1    3    3    0    0 -0.72170839014E+02 -0.42000784342E+02 -0.11612961079E+03  0.14303420007E+03  0.00000000000E+00 0.  1.
         11    1    3    3    0    0  0.16002800851E+02 -0.30495026245E+02 -0.13692475144E+03  0.14118931906E+03  0.00000000000E+00 0. -1.
</event>
<event>
 7    1  0.4274778E-006  0.1350154E+03  0.7561462E-02  0.1220198E+00
         -1   -1    0    0    0  501 -0.00000000000E+00  0.00000000000E+00  0.79133443996E+03  0.79133443996E+03  0.00000000000E+00 0.  1.
          1   -1    0    0  501    0  0.00000000000E+00 -0.00000000000E+00 -0.34798300507E+02  0.34798300507E+02  0.00000000000E+00 0. -1.
         23    2    1    2    0    0 -0.72154772446E+01 -0.12565837652E+03  0.32678583577E+03  0.36118657949E+03  0.88457176295E+02 0.  0.
          5    1    1    2  502    0 -0.52039015268E+01  0.54478806779E+02  0.36091151150E+03  0.36506110791E+03  0.41800000000E+01 0.  1.
         -5    1    1    2    0  502  0.12419378771E+02  0.71179569740E+02  0.68838792185E+02  0.99885053071E+02  0.41800000000E+01 0.  1.
        -11    1    3    3    0    0  0.19802054106E+02 -0.10952559158E+03  0.29958485195E+03  0.31959202129E+03  0.00000000000E+00 0.  1.
         11    1    3    3    0    0 -0.27017531351E+02 -0.16132784943E+02  0.27200983824E+02  0.41594558193E+02  0.00000000000E+00 0. -1.
</event>
<event>
 7    1  0.4274778E-006  0.1013184E+03  0.7561462E-02  0.1277548E+00
          1   -1    0    0  501    0  0.00000000000E+00  0.00000000000E+00  0.31096386801E+03  0.31096386801E+03  0.00000000000E+00 0. -1.
         -1   -1    0    0    0  501 -0.00000000000E+00 -0.00000000000E+00 -0.45249160757E+02  0.45249160757E+02  0.00000000000E+00 0.  1.
         23    2    1    2    0    0  0.32788911937E+02  0.24822991298E+02  0.11866385015E+03  0.15209648843E+03  0.85795913753E+02 0.  0.
          5    1    1    2  502    0 -0.47323581208E+02  0.41597918784E+02  0.10931359676E+03  0.12624120968E+03  0.41800000000E+01 0. -1.
         -5    1    1    2    0  502  0.14534669272E+02 -0.66420910082E+02  0.37737260349E+02  0.77875330661E+02  0.41800000000E+01 0.  1.
        -11    1    3    3    0    0  0.11668989400E+01  0.37341904226E+02  0.11115765190E+03  0.11726808193E+03  0.00000000000E+00 0. -1.
         11    1    3    3    0    0  0.31622012997E+02 -0.12518912928E+02  0.75061982503E+01  0.34828406496E+02  0.00000000000E+00 0.  1.
</event>
<event>
 7    1  0.4274778E-006  0.1051969E+03  0.7561462E-02  0.1269732E+00
         -2   -1    0    0    0  501 -0.00000000000E+00  0.00000000000E+00  0.22437942679E+02  0.22437942679E+02  0.00000000000E+00 0.  1.
          2   -1    0    0  501    0  0.00000000000E+00 -0.00000000000E+00 -0.76572868482E+03  0.76572868482E+03  0.00000000000E+00 0. -1.
         23    2    1    2    0    0 -0.11033245967E+02  0.71426835809E+02 -0.30493622158E+03  0.32661781496E+03  0.92030279957E+02 0.  0.
          5    1    1    2  502    0  0.53314508371E+02 -0.59081564442E+02 -0.15033144127E+03  0.17014723828E+03  0.41800000000E+01 0.  1.
         -5    1    1    2    0  502 -0.42281262405E+02 -0.12345271367E+02 -0.28802307929E+03  0.29140157426E+03  0.41800000000E+01 0.  1.
        -11    1    3    3    0    0  0.91132256114E+01  0.64521420329E+02 -0.29672011645E+03  0.30379086896E+03  0.00000000000E+00 0. -1.
         11    1    3    3    0    0 -0.20146471578E+02  0.69054154803E+01 -0.82161051330E+01  0.22826945997E+02  0.00000000000E+00 0.  1.
</event>
<event>
 7    1  0.4274778E-006  0.2454807E+03  0.7561462E-02  0.1116195E+00
          3   -1    0    0  501    0  0.00000000000E+00  0.00000000000E+00  0.84279801055E+03  0.84279801055E+03  0.00000000000E+00 0. -1.
         -3   -1    0    0    0  501 -0.00000000000E+00 -0.00000000000E+00 -0.78669689639E+02  0.78669689639E+02  0.00000000000E+00 0.  1.
         23    2    1    2    0    0  0.20628149575E+03  0.93507737416E+02  0.37008081869E+03  0.45006874337E+03  0.11960898357E+03 0.  0.
          5    1    1    2  502    0 -0.69339211262E+02 -0.54485869728E+00  0.22204226404E+03  0.23265524389E+03  0.41800000000E+01 0. -1.
         -5    1    1    2    0  502 -0.13694228449E+03 -0.92962878719E+02  0.17200523818E+03  0.23874371293E+03  0.41800000000E+01 0. -1.
        -11    1    3    3    0    0  0.10214236569E+03 -0.17595918401E+02  0.15872441863E+03  0.18956824703E+03  0.00000000000E+00 0. -1.
         11    1    3    3    0    0  0.10413913006E+03  0.11110365582E+03  0.21135640006E+03  0.26050049634E+03  0.00000000000E+00 0.  1.
</event>
<event>
 7    1  0.4274778E-006  0.1175400E+03  0.7561462E-02  0.1247211E+00
          2   -1    0    0  501    0  0.00000000000E+00  0.00000000000E+00  0.84099481108E+03  0.84099481108E+03  0.00000000000E+00 0. -1.
         -2   -1    0    0    0  501 -0.00000000000E+00 -0.00000000000E+00 -0.23551841092E+02  0.23551841092E+02  0.00000000000E+00 0.  1.
         23    2    1    2    0    0 -0.47618745846E+02 -0.74423086979E+02  0.38055705918E+03  0.40159515098E+03  0.92998113783E+02 0.  0.
          5    1    1    2  502    0  0.24784970163E+02 -0.30298356303E+02  0.65829996101E+02  0.76702972089E+02  0.41800000000E+01 0.  1.
         -5    1    1    2    0  502  0.22833775683E+02  0.10472144328E+03  0.37105591471E+03  0.38624852910E+03  0.41800000000E+01 0.  1.
        -11    1    3    3    0    0 -0.15110219573E+02 -0.20162096467E+02  0.12470195825E+02  0.28112891232E+02  0.00000000000E+00 0.  1.
         11    1    3    3    0    0 -0.32508526273E+02 -0.54260990512E+02  0.36808686335E+03  0.37348225975E+03  0.00000000000E+00 0. -1.
</event>
<event>
 7    1  0.4274778E-006  0.8563713E+02  0.7561462E-02  0.1313775E+00
          2   -1    0    0  501    0  0.00000000000E+00  0.00000000000E+00  0.22520080880E+03  0.22520080880E+03  0.00000000000E+00 0. -1.
         -2   -1    0    0    0  501 -0.00000000000E+00 -0.00000000000E+00 -0.52482057809E+02  0.52482057809E+02  0.00000000000E+00 0.  1.
         23    2    1    2    0    0  0.46920790470E+00  0.93351503596E+01  0.62867011258E+02  0.11094479844E+03  0.90934712893E+02 0.  0.
          5    1    1    2  502    0  0.33335941927E+01 -0.61186686107E+02  0.23311595960E+02  0.65694948917E+02  0.41800000000E+01 0.  1.
         -5    1    1    2    0  502 -0.38028020974E+01  0.51851535747E+02  0.86540143768E+02  0.10104311924E+03  0.41800000000E+01 0.  1.
        -11    1    3    3    0    0 -0.28207194262E+02  0.58622759982E+01 -0.11610726764E+02  0.31061568924E+02  0.00000000000E+00 0.  1.
         11    1    3    3    0    0  0.28676402167E+02  0.34728743614E+01  0.74477738022E+02  0.79883229520E+02  0.00000000000E+00 0. -1.
</event>
<event>
 7    1  0.4274778E-006  0.1144571E+03  0.7561462E-02  0.1252532E+00
         -1   -1    0    0    0  501 -0.00000000000E+00  0.00000000000E+00  0.77321368504E+02  0.77321368504E+02  0.00000000000E+00 0.  1.
          1   -1    0    0  501    0  0.00000000000E+00 -0.00000000000E+00 -0.34543003577E+03  0.34543003577E+03  0.00000000000E+00 0. -1.
         23    2    1    2    0    0  0.24731351765E+02 -0.81844176469E+02 -0.24216675696E+03  0.27268578055E+03  0.91666175643E+02 0.  0.
          5    1    1    2  502    0  0.23048977231E+02  0.44842811966E+02 -0.61646957276E+02  0.79749312711E+02  0.41800000000E+01 0. -1.
         -5    1    1    2    0  502 -0.47780328997E+02  0.37001364503E+02  0.35705046974E+02  0.70316311006E+02  0.41800000000E+01 0.  1.
        -11    1    3    3    0    0  0.33409293300E+01  0.16636164111E+02 -0.10260728172E+02  0.19829430344E+02  0.00000000000E+00 0.  1.
         11    1    3    3    0    0  0.21390422436E+02 -0.98480340581E+02 -0.23190602879E+03  0.25285635021E+03  0.00000000000E+00 0. -1.
</event>
<event>
 7    1  0.4274778E-006  0.2000261E+03  0.7561462E-02  0.1149717E+00
         -1   -1    0    0    0  501 -0.00000000000E+00  0.00000000000E+00  0.42753607754E+02  0.42753607754E+02  0.00000000000E+00 0.  1.
          1   -1    0    0  501    0  0.00000000000E+00 -0.00000000000E+00 -0.99224900354E+03  0.99224900354E+03  0.00000000000E+00 0. -1.
         23    2    1    2    0    0  0.17303599156E+03  0.21367855205E+02 -0.48982277035E+03  0.52771139350E+03  0.90304644736E+02 0.  0.
          5    1    1    2  502    0 -0.13697596599E+02  0.40737661243E+02 -0.81694755893E+02  0.92405014672E+02  0.41800000000E+01 0. -1.
         -5    1    1    2    0  502 -0.15933839496E+03 -0.62105516447E+02 -0.37797786954E+03  0.41488620313E+03  0.41800000000E+01 0. -1.
        -11    1    3    3    0    0  0.15411211018E+03  0.40031361239E+02 -0.33858917095E+03  0.37415996454E+03  0.00000000000E+00 0.  1.
         11    1    3    3    0    0  0.18923881379E+02 -0.18663506034E+02 -0.15123359941E+03  0.15355142895E+03  0.00000000000E+00 0. -1.
</event>
<event>
 7    1  0.4274778E-006  0.9683585E+02  0.7561462E-02  0.1287094E+00
          2   -1    0    0  501    0  0.00000000000E+00  0.00000000000E+00  0.36021133271E+03  0.36021133271E+03  0.00000000000E+00 0. -1.
         -2   -1    0    0    0  501 -0.00000000000E+00 -0.00000000000E+00 -0.49201989998E+02  0.49201989998E+02  0.00000000000E+00 0.  1.
         23    2    1    2    0    0  0.34729531144E+02  0.38781265497E+02  0.23564254352E+03  0.25436949712E+03  0.80413343779E+02 0.  0.
          5    1    1    2  502    0 -0.50885920459E+02 -0.55624983178E+02  0.97016598554E+02  0.12293578995E+03  0.41800000000E+01 0.  1.
         -5    1    1    2    0  502  0.16156389314E+02  0.16843717681E+02 -0.21649799361E+02  0.32108035651E+02  0.41800000000E+01 0.  1.
        -11    1    3    3    0    0 -0.11557196470E+02 -0.17881176665E+02  0.72717845572E+02  0.75770642955E+02  0.00000000000E+00 0. -1.
         11    1    3    3    0    0  0.46286727615E+02  0.56662442162E+02  0.16292469795E+03  0.17859885416E+03  0.00000000000E+00 0.  1.
</event>
<event>
 7    1  0.4274778E-006  0.1097505E+03  0.7561462E-02  0.1261033E+00
         -1   -1    0    0    0  501 -0.00000000000E+00  0.00000000000E+00  0.89251653846E+02  0.89251653846E+02  0.00000000000E+00 0.  1.
          1   -1    0    0  501    0  0.00000000000E+00 -0.00000000000E+00 -0.17181469201E+03  0.17181469201E+03  0.00000000000E+00 0. -1.
         23    2    1    2    0    0  0.55669780645E+02 -0.29587551064E+01 -0.57784571863E+02  0.12189391742E+03  0.91712549034E+02 0.  0.
          5    1    1    2  502    0  0.28238843888E+02 -0.33466655816E+02 -0.17407573615E+02  0.47306927345E+02  0.41800000000E+01 0. -1.
         -5    1    1    2    0  502 -0.83908624533E+02  0.36425410922E+02 -0.73708926897E+01  0.91865501092E+02  0.41800000000E+01 0. -1.
        -11    1    3    3    0    0 -0.16487154494E+01  0.21544622472E+02  0.14819128443E+02  0.26201060816E+02  0.00000000000E+00 0.  1.
         11    1    3    3    0    0  0.57318496094E+02 -0.24503377578E+02 -0.72603700306E+02  0.95692856606E+02  0.00000000000E+00 0. -1.
</event>
<event>
 7    1  0.4274778E-006  0.9850702E+02  0.7561462E-02  0.1283467E+00
         -1   -1    0    0    0  501 -0.00000000000E+00  0.00000000000E+00  0.22137517612E+02  0.22137517612E+02  0.00000000000E+00 0.  1.
          1   -1    0    0  501    0  0.00000000000E+00 -0.00000000000E+00 -0.63175396634E+03  0.63175396634E+03  0.00000000000E+00 0. -1.
         23    2    1    2    0    0 -0.94881231361E+01  0.29514814887E+02 -0.35196276910E+03  0.36580488502E+03  0.94732646371E+02 0.  0.
          5    1    1    2  502    0 -0.72753194360E+01 -0.61012707541E+02 -0.24052983024E+03  0.24828925146E+03  0.41800000000E+01 0.  1.
         -5    1    1    2    0  502  0.16763442572E+02  0.31497892653E+02 -0.17123849383E+02  0.39797347477E+02  0.41800000000E+01 0.  1.
        -11    1    3    3    0    0  0.42417013153E+02  0.19299899748E+02 -0.15408370729E+03  0.16097663802E+03  0.00000000000E+00 0. -1.
         11    1    3    3    0    0 -0.51905136290E+02  0.10214915139E+02 -0.19787906181E+03  0.20482824700E+03  0.00000000000E+00 0.  1.
</event>
<event>
 7    1  0.4274778E-006  0.1101620E+03  0.7561462E-02  0.1260270E+00
          1   -1    0    0  501    0  0.00000000000E+00  0.00000000000E+00  0.59978756864E+02  0.59978756864E+02  0.00000000000E+00 0. -1.
         -1   -1    0    0    0  501 -0.00000000000E+00 -0.00000000000E+00 -0.40124080126E+03  0.40124080126E+03  0.00000000000E+00 0.  1.
         23    2    1    2    0    0 -0.44790424817E+02 -0.42046464377E+02 -0.20689444656E+02  0.11166425863E+03  0.90921758748E+02 0.  0.
          5    1    1    2  502    0 -0.28958868128E+02  0.56365370400E+02 -0.13052435978E+03  0.14515423494E+03  0.41800000000E+01 0.  1.
         -5    1    1    2    0  502  0.73749292945E+02 -0.14318906023E+02 -0.19004823996E+03  0.20440106456E+03  0.41800000000E+01 0.  1.
        -11    1    3    3    0    0 -0.61953707198E+01  0.12967901885E+02  0.26087838645E+02  0.29784634006E+02  0.00000000000E+00 0. -1.
         11    1    3    3    0    0 -0.38595054097E+02 -0.55014366262E+02 -0.46777283301E+02  0.81879624627E+02  0.00000000000E+00 0.  1.
</event>
<event>
 7    1  0.4274778E-006  0.1859342E+03  0.7561462E-02  0.1162180E+00
          1   -1    0    0  501    0  0.00000000000E+00  0.00000000000E+00  0.36758131078E+03  0.36758131078E+03  0.00000000000E+00 0. -1.
         -1   -1    0    0    0  501 -0.00000000000E+00 -0.00000000000E+00 -0.12544801173E+03  0.12544801173E+03  0.00000000000E+00 0.  1.
         23    2    1    2    0    0 -0.64884001317E+02  0.17286924168E+03  0.10242504519E+03  0.22985622910E+03  0.90825590158E+02 0.  0.
          5    1    1    2  502    0  0.51061427121E+02 -0.14173980820E+03  0.16276763879E+03  0.22182925688E+03  0.41800000000E+01 0.  1.
         -5    1    1    2    0  502  0.13822574196E+02 -0.31129433476E+02 -0.23059384932E+02  0.41343836534E+02  0.41800000000E+01 0.  1.
        -11    1    3    3    0    0 -0.43249152813E+02  0.14638472502E+03  0.11735757293E+03  0.19254032529E+03  0.00000000000E+00 0. -1.
         11    1    3    3    0    0 -0.21634848503E+02  0.26484516662E+02 -0.14932527740E+02  0.37315903812E+02  0.00000000000E+00 0.  1.
</event>
<event>
 7    1  0.4274778E-006  0.1281569E+03  0.7561462E-02  0.1230217E+00
         -1   -1    0    0    0  501 -0.00000000000E+00  0.00000000000E+00  0.29438671105E+03  0.29438671105E+03  0.00000000000E+00 0.  1.
          1   -1    0    0  501    0  0.00000000000E+00 -0.00000000000E+00 -0.81701978600E+02  0.81701978600E+02  0.00000000000E+00 0. -1.
         23    2    1    2    0    0 -0.10885849764E+03 -0.15667280731E+02  0.95644621467E+02  0.17251611866E+03  0.92294536077E+02 0.  0.
          5    1    1    2  502    0  0.98913383869E+02  0.49177836954E+02  0.12562546790E+03  0.16733663000E+03  0.41800000000E+01 0. -1.
         -5    1    1    2    0  502  0.99451137672E+01 -0.33510556223E+02 -0.85853569085E+01  0.36235940990E+02  0.41800000000E+01 0. -1.
        -11    1    3    3    0    0 -0.82970489764E+02 -0.16797290559E+02  0.11310024072E+03  0.14127248703E+03  0.00000000000E+00 0.  1.
         11    1    3    3    0    0 -0.25888007872E+02  0.11300098278E+01 -0.17455619253E+02  0.31243631628E+02  0.00000000000E+00 0. -1.
</event>
<event>
 7    1  0.4274778E-006  0.1095441E+03  0.7561462E-02  0.1261416E+00
         -2   -1    0    0    0  501 -0.00000000000E+00  0.00000000000E+00  0.10184262618E+04  0.10184262618E+04  0.00000000000E+00 0.  1.
          2   -1    0    0  501    0  0.00000000000E+00 -0.00000000000E+00 -0.15241897365E+02  0.15241897365E+02  0.00000000000E+00 0. -1.
         23    2    1    2    0    0 -0.18893269965E+02  0.20019712739E+02  0.19260849185E+03  0.21303505149E+03  0.86764955383E+02 0.  0.
          5    1    1    2  502    0  0.68702183194E+02  0.10308095218E+02  0.43296966544E+03  0.43852759365E+03  0.41800000000E+01 0. -1.
         -5    1    1    2    0  502 -0.49808913229E+02 -0.30327807957E+02  0.37760620711E+03  0.38210551398E+03  0.41800000000E+01 0. -1.
        -11    1    3    3    0    0  0.34105291471E+02 -0.72315104818E+00  0.71761191056E+02  0.79456669925E+02  0.00000000000E+00 0.  1.
         11    1    3    3    0    0 -0.52998561436E+02  0.20742863787E+02  0.12084730079E+03  0.13357838157E+03  0.00000000000E+00 0. -1.
</event>
<event>
 7    1  0.7769728E-006  0.1943085E+03  0.7561462E-02  0.1154632E+00
         -2   -1    0    0    0  501 -0.00000000000E+00  0.00000000000E+00  0.59598889856E+02  0.59598889856E+02  0.00000000000E+00 0. -1.
          2   -1    0    0  501    0  0.00000000000E+00 -0.00000000000E+00 -0.73021681911E+03  0.73021681911E+03  0.00000000000E+00 0.  1.
         23    2    1    2    0    0 -0.16014081695E+03 -0.70144338889E+02 -0.38107434590E+03  0.42919389930E+03  0.91784729448E+02 0.  0.
          5    1    1    2  502    0  0.80939076833E+02 -0.26630718118E+02 -0.82310127814E+02  0.11854433283E+03  0.41800000000E+01 0.  1.
         -5    1    1    2    0  502  0.79201740118E+02  0.96775057007E+02 -0.20723345555E+03  0.24207747684E+03  0.41800000000E+01 0.  1.
        -11    1    3    3    0    0 -0.54826467010E+02 -0.66969003624E+01 -0.44705656712E+02  0.71059029696E+02  0.00000000000E+00 0. -1.
         11    1    3    3    0    0 -0.10531434994E+03 -0.63447438526E+02 -0.33636868919E+03  0.35813486960E+03  0.00000000000E+00 0.  1.
</event>
<event>
 7    1  0.4274778E-006  0.9687356E+02  0.7561462E-02  0.1287011E+00
         -2   -1    0    0    0  501 -0.00000000000E+00  0.00000000000E+00  0.30625497918E+02  0.30625497918E+02  0.00000000000E+00 0.  1.
          2   -1    0    0  501    0  0.00000000000E+00 -0.00000000000E+00 -0.46300886418E+03  0.46300886418E+03  0.00000000000E+00 0. -1.
         23    2    1    2    0    0  0.39340649012E+02  0.20547926192E+02 -0.23227862123E+03  0.25351070635E+03  0.91347777288E+02 0.  0.
          5    1    1    2  502    0  0.37323807799E+02 -0.16188651265E+02 -0.12921475629E+03  0.13553252267E+03  0.41800000000E+01 0. -1.
         -5    1    1    2    0  502 -0.76664456810E+02 -0.43592749270E+01 -0.70889988744E+02  0.10459113308E+03  0.41800000000E+01 0. -1.
        -11    1    3    3    0    0  0.28541741054E+02  0.42666931123E+02 -0.22017786759E+03  0.22608270914E+03  0.00000000000E+00 0. -1.
         11    1    3    3    0    0  0.10798907957E+02 -0.22119004931E+02 -0.12100753640E+02  0.27427997209E+02  0.00000000000E+00 0.  1.
</event>
<event>
 7    1  0.4274778E-006  0.1030374E+03  0.7561462E-02  0.1274035E+00
         -1   -1    0    0    0  501 -0.00000000000E+00  0.00000000000E+00  0.88303109736E+02  0.88303109736E+02  0.00000000000E+00 0.  1.
          1   -1    0    0  501    0  0.00000000000E+00 -0.00000000000E+00 -0.14269748860E+03  0.14269748860E+03  0.00000000000E+00 0. -1.
         23    2    1    2    0    0  0.50658964598E+01  0.27252308145E+02 -0.32014609216E+02  0.10094345381E+03  0.91631294099E+02 0.  0.
          5    1    1    2  502    0  0.59034349684E+02 -0.36234085419E+01 -0.15383455673E+02  0.61256074316E+02  0.41800000000E+01 0. -1.
         -5    1    1    2    0  502 -0.64100246144E+02 -0.23628899603E+02 -0.69963139732E+01  0.68801070205E+02  0.41800000000E+01 0. -1.
        -11    1    3    3    0    0 -0.43145456275E+01  0.51841017923E+02 -0.47469787244E+02  0.70423626321E+02  0.00000000000E+00 0.  1.
         11    1    3    3    0    0  0.93804420873E+01 -0.24588709778E+02  0.15455178027E+02  0.30519827492E+02  0.00000000000E+00 0. -1.
</event>
<event>
 7    1  0.4274778E-006  0.1198489E+03  0.7561462E-02  0.1243347E+00
          2   -1    0    0  501    0  0.00000000000E+00  0.00000000000E+00  0.50582594224E+03  0.50582594224E+03  0.00000000000E+00 0.  1.
         -2   -1    0    0    0  501 -0.00000000000E+00 -0.00000000000E+00 -0.46607268586E+02  0.46607268586E+02  0.00000000000E+00 0. -1.
         23    2    1    2    0    0  0.55958365111E+02  0.92474658288E+02  0.23589080164E+03  0.27457980656E+03  0.89814802919E+02 0.  0.
          5    1    1    2  502    0 -0.53655610909E+02 -0.86801003162E+02  0.68789615708E+02  0.12313741252E+03  0.41800000000E+01 0. -1.
         -5    1    1    2    0  502 -0.23027542020E+01 -0.56736551258E+01  0.15453825631E+03  0.15471599175E+03  0.41800000000E+01 0. -1.
        -11    1    3    3    0    0 -0.16878747159E+02  0.28923470069E+02  0.11509758853E+03  0.11987040549E+03  0.00000000000E+00 0. -1.
         11    1    3    3    0    0  0.72837112270E+02  0.63551188219E+02  0.12079321311E+03  0.15470940107E+03  0.00000000000E+00 0.  1.
</event>
<event>
 7    1  0.4274778E-006  0.1028645E+03  0.7561462E-02  0.1274385E+00
         -1   -1    0    0    0  501 -0.00000000000E+00  0.00000000000E+00  0.12198718017E+03  0.12198718017E+03  0.00000000000E+00 0.  1.
          1   -1    0    0  501    0  0.00000000000E+00 -0.00000000000E+00 -0.11845770924E+03  0.11845770924E+03  0.00000000000E+00 0. -1.
         23    2    1    2    0    0  0.41496600217E+02  0.27650682971E+02 -0.10492463681E+02  0.10504937551E+03  0.91862676873E+02 0.  0.
          5    1    1    2  502    0 -0.82658236763E+02 -0.60274170083E+01  0.26432018083E+02  0.87090974507E+02  0.41800000000E+01 0. -1.
         -5    1    1    2    0  502  0.41161636546E+02 -0.21623265963E+02 -0.12410083481E+02  0.48304539394E+02  0.41800000000E+01 0. -1.
        -11    1    3    3    0    0  0.24672207649E+02  0.45360054104E+02 -0.41024110313E+02  0.65948691917E+02  0.00000000000E+00 0. -1.
         11    1    3    3    0    0  0.16824392568E+02 -0.17709371133E+02  0.30531646632E+02  0.39100683591E+02  0.00000000000E+00 0.  1.
</event>
<event>
 7    1  0.4274778E-006  0.9899713E+02  0.7561462E-02  0.1282419E+00
          2   -1    0    0  501    0  0.00000000000E+00  0.00000000000E+00  0.26099406949E+03  0.26099406949E+03  0.00000000000E+00 0. -1.
         -2   -1    0    0    0  501 -0.00000000000E+00 -0.00000000000E+00 -0.61462497233E+02  0.61462497233E+02  0.00000000000E+00 0.  1.
         23    2    1    2    0    0  0.57652648700E+02  0.87847759143E+01  0.11751504956E+03  0.16190932481E+03  0.94888578851E+02 0.  0.
          5    1    1    2  502    0  0.96547227427E+00  0.20787955444E+02  0.91633456845E+02  0.94059736559E+02  0.41800000000E+01 0.  1.
         -5    1    1    2    0  502 -0.58618120974E+02 -0.29572731358E+02 -0.96169341460E+01  0.66487505359E+02  0.41800000000E+01 0.  1.
        -11    1    3    3    0    0  0.20327375449E+02 -0.42756652507E+02  0.43435475893E+02  0.64249311999E+02  0.00000000000E+00 0. -1.
         11    1    3    3    0    0  0.37325273251E+02  0.51541428422E+02  0.74079573669E+02  0.97660012809E+02  0.00000000000E+00 0.  1.
</event>
<event>
 7    1  0.4274778E-006  0.1274876E+03  0.7561462E-02  0.1231232E+00
         -2   -1    0    0    0  501 -0.00000000000E+00  0.00000000000E+00  0.83159068537E+02  0.83159068537E+02  0.00000000000E+00 0.  1.
          2   -1    0    0  501    0  0.00000000000E+00 -0.00000000000E+00 -0.22260569037E+03  0.22260569037E+03  0.00000000000E+00 0. -1.
         23    2    1    2    0    0  0.14776015853E+02 -0.67063045842E+02 -0.11287187872E+03  0.16061161819E+03  0.91324958962E+02 0.  0.
          5    1    1    2  502    0 -0.69352515447E+02  0.38943969755E+02 -0.25417205684E+02  0.83605687150E+02  0.41800000000E+01 0. -1.
         -5    1    1    2    0  502  0.54576499593E+02  0.28119076087E+02 -0.11575374320E+01  0.61547453568E+02  0.41800000000E+01 0. -1.
        -11    1    3    3    0    0  0.52543980517E+02 -0.49309316961E+02 -0.64315024985E+02  0.96585201075E+02  0.00000000000E+00 0.  1.
         11    1    3    3    0    0 -0.37767964663E+02 -0.17753728880E+02 -0.48556853730E+02  0.64026417111E+02  0.00000000000E+00 0. -1.
</event>
<event>
 7    1  0.4274778E-006  0.3175079E+03  0.7561462E-02  0.1076802E+00
          4   -1    0    0  501    0  0.00000000000E+00  0.00000000000E+00  0.63823505570E+02  0.63823505570E+02  0.00000000000E+00 0. -1.
         -4   -1    0    0    0  501 -0.00000000000E+00 -0.00000000000E+00 -0.17053447355E+04  0.17053447355E+04  0.00000000000E+00 0.  1.
         23    2    1    2    0    0  0.25375543411E+03 -0.17417593886E+03 -0.93281901516E+03  0.98645859766E+03  0.90665163240E+02 0.  0.
          5    1    1    2  502    0 -0.11919909688E+03  0.17695373988E+02 -0.19741145240E+03  0.23132294503E+03  0.41800000000E+01 0. -1.
         -5    1    1    2    0  502 -0.13455633722E+03  0.15648056488E+03 -0.51129076235E+03  0.55138669836E+03  0.41800000000E+01 0. -1.
        -11    1    3    3    0    0  0.22294546153E+03 -0.14808298368E+03 -0.88106046789E+03  0.92081528927E+03  0.00000000000E+00 0.  1.
         11    1    3    3    0    0  0.30809972573E+02 -0.26092955187E+02 -0.51758547271E+02  0.65643308387E+02  0.00000000000E+00 0. -1.
</event>
<event>
 7    1  0.4274778E-006  0.2960893E+03  0.7561462E-02  0.1087212E+00
          1   -1    0    0  501    0  0.00000000000E+00  0.00000000000E+00  0.12871877723E+03  0.12871877723E+03  0.00000000000E+00 0. -1.
         -1   -1    0    0    0  501 -0.00000000000E+00 -0.00000000000E+00 -0.72092490002E+03  0.72092490002E+03  0.00000000000E+00 0.  1.
         23    2    1    2    0    0  0.11036006603E+03 -0.26184504687E+03 -0.28729474620E+03  0.41448784986E+03  0.92302403771E+02 0.  0.
          5    1    1    2  502    0 -0.12238149255E+03  0.25414049403E+03 -0.31026839357E+03  0.41934302053E+03  0.41800000000E+01 0.  1.
         -5    1    1    2    0  502  0.12021426515E+02  0.77045528426E+01  0.53570169780E+01  0.15812806862E+02  0.41800000000E+01 0.  1.
        -11    1    3    3    0    0  0.28759602802E+02 -0.16968047501E+03 -0.13541920014E+03  0.21899072610E+03  0.00000000000E+00 0. -1.
         11    1    3    3    0    0  0.81600463231E+02 -0.92164571859E+02 -0.15187554606E+03  0.19549712376E+03  0.00000000000E+00 0.  1.
</event>
<event>
 7    1  0.4274778E-006  0.2558774E+03  0.7561462E-02  0.1109646E+00
         -2   -1    0    0    0  501 -0.00000000000E+00  0.00000000000E+00  0.43446847388E+02  0.43446847388E+02  0.00000000000E+00 0.  1.
          2   -1    0    0  501    0  0.00000000000E+00 -0.00000000000E+00 -0.18447770264E+04  0.18447770264E+04  0.00000000000E+00 0. -1.
         23    2    1    2    0    0 -0.61521306946E+02  0.24766631116E+03 -0.10644073133E+04  0.10983951420E+04  0.91572301403E+02 0.  0.
          5    1    1    2  502    0  0.56687378189E+02 -0.23849581942E+03 -0.54532529715E+03  0.59790539958E+03  0.41800000000E+01 0. -1.
         -5    1    1    2    0  502  0.48339287571E+01 -0.91704917393E+01 -0.19159756851E+03  0.19192333221E+03  0.41800000000E+01 0. -1.
        -11    1    3    3    0    0 -0.23721928457E+02  0.11684463451E+03 -0.68482106536E+03  0.69512250004E+03  0.00000000000E+00 0.  1.
         11    1    3    3    0    0 -0.37799378488E+02  0.13082167665E+03 -0.37958624797E+03  0.40327264195E+03  0.00000000000E+00 0. -1.
</event>
<event>
 7    1  0.4274778E-006  0.1552367E+03  0.7561462E-02  0.1194182E+00
          1   -1    0    0  501    0  0.00000000000E+00  0.00000000000E+00  0.15661557986E+03  0.15661557986E+03  0.00000000000E+00 0. -1.
         -1   -1    0    0    0  501 -0.00000000000E+00 -0.00000000000E+00 -0.16335896598E+03  0.16335896598E+03  0.00000000000E+00 0.  1.
         23    2    1    2    0    0  0.95952721673E+02 -0.62963135763E+02  0.23149157011E+02  0.14760351788E+03  0.89886783009E+02 0.  0.
          5    1    1    2  502    0 -0.83080306035E+02  0.97763578486E+02 -0.38574321618E+02  0.13403546254E+03  0.41800000000E+01 0. -1.
         -5    1    1    2    0  502 -0.12872415637E+02 -0.34800442723E+02  0.86817784848E+01  0.38335565415E+02  0.41800000000E+01 0. -1.
        -11    1    3    3    0    0  0.28385868618E+01  0.19913222598E+02  0.93697671965E+01  0.22189784742E+02  0.00000000000E+00 0. -1.
         11    1    3    3    0    0  0.93114134811E+02 -0.82876358361E+02  0.13779389814E+02  0.12541373314E+03  0.00000000000E+00 0.  1.
</event>
<event>
 7    1  0.4274778E-006  0.1061815E+03  0.7561462E-02  0.1267809E+00
          1   -1    0    0  501    0  0.00000000000E+00  0.00000000000E+00  0.72107682147E+03  0.72107682147E+03  0.00000000000E+00 0. -1.
         -1   -1    0    0    0  501 -0.00000000000E+00 -0.00000000000E+00 -0.20166104471E+02  0.20166104471E+02  0.00000000000E+00 0.  1.
         23    2    1    2    0    0  0.47198217584E+02  0.25993187081E+02  0.29677434718E+03  0.31477119010E+03  0.90014284727E+02 0.  0.
          5    1    1    2  502    0 -0.54074215583E+02  0.27798712293E+02  0.32360214318E+03  0.32929106983E+03  0.41800000000E+01 0.  1.
         -5    1    1    2    0  502  0.68759979989E+01 -0.53791899374E+02  0.80534226635E+02  0.97180666011E+02  0.41800000000E+01 0.  1.
        -11    1    3    3    0    0  0.69011496130E+02  0.29284033278E+02  0.16591888996E+03  0.18206927046E+03  0.00000000000E+00 0.  1.
         11    1    3    3    0    0 -0.21813278546E+02 -0.32908461965E+01  0.13085545723E+03  0.13270191964E+03  0.00000000000E+00 0. -1.
</event>
<event>
 7    1  0.4274778E-006  0.8087052E+02  0.7561462E-02  0.1326599E+00
         -2   -1    0    0    0  501 -0.00000000000E+00  0.00000000000E+00  0.35428307992E+02  0.35428307992E+02  0.00000000000E+00 0.  1.
          2   -1    0    0  501    0  0.00000000000E+00 -0.00000000000E+00 -0.42169081353E+03  0.42169081353E+03  0.00000000000E+00 0. -1.
         23    2    1    2    0    0 -0.12118932650E+02  0.34818831217E+02 -0.24875879650E+03  0.26760860908E+03  0.91510705833E+02 0.  0.
          5    1    1    2  502    0  0.33430525660E+02 -0.59745004275E+02 -0.26237519316E+02  0.73436676134E+02  0.41800000000E+01 0. -1.
         -5    1    1    2    0  502 -0.21311593011E+02  0.24926173058E+02 -0.11126618971E+03  0.11607383630E+03  0.41800000000E+01 0. -1.
        -11    1    3    3    0    0 -0.13096585911E+02  0.46530714517E+02 -0.25102729213E+03  0.25563906069E+03  0.00000000000E+00 0. -1.
         11    1    3    3    0    0  0.97765326197E+00 -0.11711883301E+02  0.22684956271E+01  0.11969548394E+02  0.00000000000E+00 0.  1.
</event>
<event>
 7    1  0.4274778E-006  0.1009788E+03  0.7561462E-02  0.1278251E+00
         -1   -1    0    0    0  501 -0.00000000000E+00  0.00000000000E+00  0.31326391418E+03  0.31326391418E+03  0.00000000000E+00 0.  1.
          1   -1    0    0  501    0  0.00000000000E+00 -0.00000000000E+00 -0.46900697301E+02  0.46900697301E+02  0.00000000000E+00 0. -1.
         23    2    1    2    0    0 -0.97068672296E+01 -0.45869218986E+02  0.10557531760E+03  0.15112297272E+03  0.97436115858E+02 0.  0.
          5    1    1    2  502    0  0.23555598465E+01 -0.39931312538E+02  0.85873818946E+02  0.94825331866E+02  0.41800000000E+01 0. -1.
         -5    1    1    2    0  502  0.73513073831E+01  0.85800531524E+02  0.74914080330E+02  0.11421630690E+03  0.41800000000E+01 0. -1.
        -11    1    3    3    0    0  0.13582952963E+02 -0.50050336354E+02  0.11460784904E+03  0.12579543649E+03  0.00000000000E+00 0.  1.
         11    1    3    3    0    0 -0.23289820192E+02  0.41811173677E+01 -0.90325314370E+01  0.25327536224E+02  0.00000000000E+00 0. -1.
</event>
<event>
 7    1  0.4274778E-006  0.1345410E+03  0.7561462E-02  0.1220869E+00
         -2   -1    0    0    0  501 -0.00000000000E+00  0.00000000000E+00  0.48327295334E+02  0.48327295334E+02  0.00000000000E+00 0.  1.
          2   -1    0    0  501    0  0.00000000000E+00 -0.00000000000E+00 -0.51827806575E+03  0.51827806575E+03  0.00000000000E+00 0. -1.
         23    2    1    2    0    0  0.67369866571E+02  0.92620070911E+02 -0.18885664462E+03  0.23830978549E+03  0.89484888029E+02 0.  0.
          5    1    1    2  502    0 -0.19875096504E+01 -0.71425542809E+02 -0.50388589012E+02  0.87533083248E+02  0.41800000000E+01 0. -1.
         -5    1    1    2    0  502 -0.65382356921E+02 -0.21194528102E+02 -0.23070553678E+03  0.24076249235E+03  0.41800000000E+01 0. -1.
        -11    1    3    3    0    0  0.19930844208E+02  0.75702861077E+02 -0.56066846350E+02  0.96289423021E+02  0.00000000000E+00 0.  1.
         11    1    3    3    0    0  0.47439022363E+02  0.16917209835E+02 -0.13278979827E+03  0.14202036247E+03  0.00000000000E+00 0. -1.
</event>
<event>
 7    1  0.4274778E-006  0.1912850E+03  0.7561462E-02  0.1157307E+00
         -2   -1    0    0    0  501 -0.00000000000E+00  0.00000000000E+00  0.43609124467E+02  0.43609124467E+02  0.00000000000E+00 0.  1.
          2   -1    0    0  501    0  0.00000000000E+00 -0.00000000000E+00 -0.99638285409E+03  0.99638285409E+03  0.00000000000E+00 0. -1.
         23    2    1    2    0    0 -0.16117736567E+03  0.27957000960E+02 -0.62951294397E+03  0.65671008427E+03  0.90674423372E+02 0.  0.
          5    1    1    2  502    0  0.12781027829E+03 -0.68388224517E+02 -0.18304014679E+03  0.23352426903E+03  0.41800000000E+01 0.  1.
         -5    1    1    2    0  502  0.33367087388E+02  0.40431223558E+02 -0.14022063887E+03  0.14975762526E+03  0.41800000000E+01 0.  1.
        -11    1    3    3    0    0 -0.37591134478E+02 -0.30350978057E+02 -0.12481295590E+03  0.13383777202E+03  0.00000000000E+00 0.  1.
         11    1    3    3    0    0 -0.12358623120E+03  0.58307979017E+02 -0.50469998807E+03  0.52287231225E+03  0.00000000000E+00 0. -1.
</event>
<event>
 7    1  0.4274778E-006  0.1221091E+03  0.7561462E-02  0.1239658E+00
          1   -1    0    0  501    0  0.00000000000E+00  0.00000000000E+00  0.48120259918E+03  0.48120259918E+03  0.00000000000E+00 0. -1.
         -1   -1    0    0    0  501 -0.00000000000E+00 -0.00000000000E+00 -0.37017601773E+02  0.37017601773E+02  0.00000000000E+00 0.  1.
         23    2    1    2    0    0 -0.58757537889E+02  0.18868320637E+02  0.28441555881E+03  0.30613139822E+03  0.94951361781E+02 0.  0.
          5    1    1    2  502    0 -0.21338630191E+02  0.34196572147E+02  0.67996372373E+02  0.79156312073E+02  0.41800000000E+01 0. -1.
         -5    1    1    2    0  502  0.80096168080E+02 -0.53064892784E+02  0.91773066224E+02  0.13293249065E+03  0.41800000000E+01 0. -1.
        -11    1    3    3    0    0  0.10336645638E+02 -0.24055273275E+02  0.34489129032E+02  0.43301298327E+02  0.00000000000E+00 0.  1.
         11    1    3    3    0    0 -0.69094183527E+02  0.42923593912E+02  0.24992642978E+03  0.26283009990E+03  0.00000000000E+00 0. -1.
</event>
<event>
 7    1  0.4274778E-006  0.1171323E+03  0.7561462E-02  0.1247904E+00
         -2   -1    0    0    0  501 -0.00000000000E+00  0.00000000000E+00  0.51672236438E+02  0.51672236438E+02  0.00000000000E+00 0.  1.
          2   -1    0    0  501    0  0.00000000000E+00 -0.00000000000E+00 -0.43820450655E+03  0.43820450655E+03  0.00000000000E+00 0. -1.
         23    2    1    2    0    0  0.91826966563E+02  0.45477064322E+02 -0.22581617922E+03  0.26189136085E+03  0.84224598103E+02 0.  0.
          5    1    1    2  502    0 -0.45748176228E+02 -0.64457219185E+02 -0.24466093974E+02  0.82847395176E+02  0.41800000000E+01 0. -1.
         -5    1    1    2    0  502 -0.46078790336E+02  0.18980154862E+02 -0.13624999692E+03  0.14513798696E+03  0.41800000000E+01 0. -1.
        -11    1    3    3    0    0  0.65606916318E+02  0.20109905397E+02 -0.21208591621E+03  0.22291054622E+03  0.00000000000E+00 0. -1.
         11    1    3    3    0    0  0.26220050246E+02  0.25367158925E+02 -0.13730263008E+02  0.38980814629E+02  0.00000000000E+00 0.  1.
</event>
<event>
 7    1  0.4274778E-006  0.2542130E+03  0.7561462E-02  0.1110671E+00
         -1   -1    0    0    0  501 -0.00000000000E+00  0.00000000000E+00  0.15478396296E+03  0.15478396296E+03  0.00000000000E+00 0.  1.
          1   -1    0    0  501    0  0.00000000000E+00 -0.00000000000E+00 -0.50893008031E+03  0.50893008031E+03  0.00000000000E+00 0. -1.
         23    2    1    2    0    0 -0.18876326738E+03  0.15007322836E+03 -0.28587039445E+03  0.38360322334E+03  0.85299504990E+02 0.  0.
          5    1    1    2  502    0  0.67473189884E+02  0.77951807673E+01  0.42628298146E+01  0.68183871365E+02  0.41800000000E+01 0. -1.
         -5    1    1    2    0  502  0.12129007750E+03 -0.15786840912E+03 -0.72538552705E+02  0.21192694856E+03  0.41800000000E+01 0. -1.
        -11    1    3    3    0    0 -0.10821605585E+03  0.90384476742E+02 -0.22734480351E+03  0.26751771542E+03  0.00000000000E+00 0. -1.
         11    1    3    3    0    0 -0.80547211531E+02  0.59688751613E+02 -0.58525590945E+02  0.11608550792E+03  0.00000000000E+00 0.  1.
</event>
<event>
 7    1  0.4274778E-006  0.1972528E+03  0.7561462E-02  0.1152078E+00
          1   -1    0    0  501    0  0.00000000000E+00  0.00000000000E+00  0.10194931227E+04  0.10194931227E+04  0.00000000000E+00 0. -1.
         -1   -1    0    0    0  501 -0.00000000000E+00 -0.00000000000E+00 -0.47682682180E+02  0.47682682180E+02  0.00000000000E+00 0.  1.
         23    2    1    2    0    0  0.57407231374E+02 -0.16720813916E+03  0.64655046662E+03  0.67641041973E+03  0.90826196707E+02 0.  0.
          5    1    1    2  502    0  0.30328858350E+02  0.42423589467E+01  0.56739442855E+02  0.64611717465E+02  0.41800000000E+01 0.  1.
         -5    1    1    2    0  502 -0.87736089724E+02  0.16296578021E+03  0.26852053109E+03  0.32615366773E+03  0.41800000000E+01 0.  1.
        -11    1    3    3    0    0  0.41830485937E+02 -0.84283995635E+02  0.48614920067E+03  0.49517131054E+03  0.00000000000E+00 0.  1.
         11    1    3    3    0    0  0.15576745436E+02 -0.82924143526E+02  0.16040126596E+03  0.18123910918E+03  0.00000000000E+00 0. -1.
</event>
<event>
 7    1  0.4274778E-006  0.2555619E+03  0.7561462E-02  0.1109839E+00
          2   -1    0    0  501    0  0.00000000000E+00  0.00000000000E+00  0.34130414616E+03  0.34130414616E+03  0.00000000000E+00 0. -1.
         -2   -1    0    0    0  501 -0.00000000000E+00 -0.00000000000E+00 -0.24457481043E+03  0.24457481043E+03  0.00000000000E+00 0.  1.
         23    2    1    2    0    0  0.15205014158E+03  0.19340521028E+03  0.15174720908E+03  0.30445627533E+03  0.95611647880E+02 0.  0.
          5    1    1    2  502    0 -0.11876625695E+03 -0.16426896338E+03 -0.92913594979E+02  0.22302494177E+03  0.41800000000E+01 0.  1.
         -5    1    1    2    0  502 -0.33283884628E+02 -0.29136246892E+02  0.37895721630E+02  0.58397739484E+02  0.41800000000E+01 0.  1.
        -11    1    3    3    0    0  0.28502068887E+02  0.11298955169E+03  0.67457991111E+02  0.13464615585E+03  0.00000000000E+00 0.  1.
         11    1    3    3    0    0  0.12354807269E+03  0.80415658588E+02  0.84289217970E+02  0.16981011948E+03  0.00000000000E+00 0. -1.
</event>
<event>
 7    1  0.4274778E-006  0.1072093E+03  0.7561462E-02  0.1265827E+00
          1   -1    0    0  501    0  0.00000000000E+00  0.00000000000E+00  0.20678134257E+03  0.20678134257E+03  0.00000000000E+00 0. -1.
         -1   -1    0    0    0  501 -0.00000000000E+00 -0.00000000000E+00 -0.10049427968E+03  0.10049427968E+03  0.00000000000E+00 0.  1.
         23    2    1    2    0    0  0.64750250913E+02 -0.31225504433E+02  0.11052600482E+03  0.16293921679E+03  0.95736949529E+02 0.  0.
          5    1    1    2  502    0 -0.81629405717E+02 -0.22731778636E+02 -0.16268088260E+02  0.86384123156E+02  0.41800000000E+01 0.  1.
         -5    1    1    2    0  502  0.16879154804E+02  0.53957283069E+02  0.12029146331E+02  0.57952282307E+02  0.41800000000E+01 0.  1.
        -11    1    3    3    0    0  0.51440696467E+02 -0.19059768322E+02  0.41161803446E+01  0.55012389169E+02  0.00000000000E+00 0.  1.
         11    1    3    3    0    0  0.13309554446E+02 -0.12165736111E+02  0.10640982447E+03  0.10792682762E+03  0.00000000000E+00 0. -1.
</event>
<event>
 7    1  0.4274778E-006  0.1854336E+03  0.7561462E-02  0.1162646E+00
         -1   -1    0    0    0  501 -0.00000000000E+00  0.00000000000E+00  0.43215626388E+03  0.43215626388E+03  0.00000000000E+00 0. -1.
          1   -1    0    0  501    0  0.00000000000E+00 -0.00000000000E+00 -0.94640505079E+02  0.94640505079E+02  0.00000000000E+00 0.  1.
         23    2    1    2    0    0  0.10909632953E+03  0.13140985657E+03  0.17243074406E+03  0.25833655568E+03  0.88514716194E+02 0.  0.
          5    1    1    2  502    0 -0.21907793234E+02 -0.74588328395E+02  0.14175420162E+03  0.16172537282E+03  0.41800000000E+01 0. -1.
         -5    1    1    2    0  502 -0.87188536292E+02 -0.56821528178E+02  0.23330813110E+02  0.10673484045E+03  0.41800000000E+01 0. -1.
        -11    1    3    3    0    0  0.17076881615E+02  0.83285462780E+02  0.53501532395E+02  0.10045149160E+03  0.00000000000E+00 0.  1.
         11    1    3    3    0    0  0.92019447911E+02  0.48124393792E+02  0.11892921167E+03  0.15788506408E+03  0.00000000000E+00 0. -1.
</event>
<event>
 7    1  0.4274778E-006  0.8120794E+02  0.7561462E-02  0.1325658E+00
         -2   -1    0    0    0  501 -0.00000000000E+00  0.00000000000E+00  0.44571510921E+02  0.44571510921E+02  0.00000000000E+00 0.  1.
          2   -1    0    0  501    0  0.00000000000E+00 -0.00000000000E+00 -0.31401099756E+03  0.31401099756E+03  0.00000000000E+00 0. -1.
         23    2    1    2    0    0  0.25571726214E+01 -0.45181871729E+02 -0.13849042118E+03  0.17191706546E+03  0.91257547481E+02 0.  0.
          5    1    1    2  502    0 -0.19687993467E+02  0.27219213192E+01 -0.13858013362E+03  0.14006052898E+03  0.41800000000E+01 0.  1.
         -5    1    1    2    0  502  0.17130820845E+02  0.42459950409E+02  0.76310681671E+01  0.46604914043E+02  0.41800000000E+01 0.  1.
        -11    1    3    3    0    0  0.22009735868E+02 -0.64840205931E+02 -0.69384986468E+02  0.97483112000E+02  0.00000000000E+00 0.  1.
         11    1    3    3    0    0 -0.19452563246E+02  0.19658334202E+02 -0.69105434714E+02  0.74433953458E+02  0.00000000000E+00 0. -1.
</event>
<event>
 7    1  0.4274778E-006  0.2196478E+03  0.7561462E-02  0.1134146E+00
          2   -1    0    0  501    0  0.00000000000E+00  0.00000000000E+00  0.71441970466E+03  0.71441970466E+03  0.00000000000E+00 0. -1.
         -2   -1    0    0    0  501 -0.00000000000E+00 -0.00000000000E+00 -0.84349530301E+02  0.84349530301E+02  0.00000000000E+00 0.  1.
         23    2    1    2    0    0 -0.14273559628E+03 -0.13328643099E+03  0.47015004098E+03  0.51705791239E+03  0.90383076956E+02 0.  0.
          5    1    1    2  502    0 -0.18079398012E+02  0.38591306308E+02  0.14938099177E+02  0.45351656663E+02  0.41800000000E+01 0. -1.
         -5    1    1    2    0  502  0.16081499429E+03  0.94695124687E+02  0.14498203421E+03  0.23635966592E+03  0.41800000000E+01 0. -1.
        -11    1    3    3    0    0 -0.14209293195E+03 -0.93686563059E+02  0.41985839207E+03  0.45304375374E+03  0.00000000000E+00 0. -1.
         11    1    3    3    0    0 -0.64266432553E+00 -0.39599867936E+02  0.50291648906E+02  0.64014158650E+02  0.00000000000E+00 0.  1.
</event>
<event>
 7    1  0.4274778E-006  0.9991403E+02  0.7561462E-02  0.1280477E+00
         -1   -1    0    0    0  501 -0.00000000000E+00  0.00000000000E+00  0.62341735505E+02  0.62341735505E+02  0.00000000000E+00 0.  1.
          1   -1    0    0  501    0  0.00000000000E+00 -0.00000000000E+00 -0.22628627477E+03  0.22628627477E+03  0.00000000000E+00 0. -1.
         23    2    1    2    0    0  0.10745422807E+02 -0.51951094685E+02 -0.11155128631E+03  0.14300123989E+03  0.72050570994E+02 0.  0.
          5    1    1    2  502    0  0.51796060824E+02 -0.36295735395E+01 -0.20949541438E+02  0.56145893950E+02  0.41800000000E+01 0.  1.
         -5    1    1    2    0  502 -0.62541483630E+02  0.55580668224E+02 -0.31443711518E+02  0.89480876443E+02  0.41800000000E+01 0.  1.
        -11    1    3    3    0    0 -0.33012344612E+01 -0.49613194468E+02 -0.25690385274E+02  0.55967518346E+02  0.00000000000E+00 0.  1.
         11    1    3    3    0    0  0.14046657268E+02 -0.23379002167E+01 -0.85860901039E+02  0.87033721540E+02  0.00000000000E+00 0. -1.
</event>
<event>
 7    1  0.4274778E-006  0.9358082E+02  0.7561462E-02  0.1294405E+00
         -2   -1    0    0    0  501 -0.00000000000E+00  0.00000000000E+00  0.17255415725E+03  0.17255415725E+03  0.00000000000E+00 0. -1.
          2   -1    0    0  501    0  0.00000000000E+00 -0.00000000000E+00 -0.12911065896E+03  0.12911065896E+03  0.00000000000E+00 0.  1.
         23    2    1    2    0    0 -0.16788054284E+02 -0.44055752045E+02 -0.71991228517E+02  0.12503985970E+03  0.90716489547E+02 0.  0.
          5    1    1    2  502    0  0.53553750785E+02  0.45161181969E+02  0.18080635752E+02  0.72470120527E+02  0.41800000000E+01 0.  1.
         -5    1    1    2    0  502 -0.36765696502E+02 -0.11054299241E+01  0.97354091056E+02  0.10415483599E+03  0.41800000000E+01 0.  1.
        -11    1    3    3    0    0 -0.36994096701E+02 -0.68461321765E+01 -0.73609777530E+02  0.82666995013E+02  0.00000000000E+00 0.  1.
         11    1    3    3    0    0  0.20206042417E+02 -0.37209619868E+02  0.16185490130E+01  0.42372864687E+02  0.00000000000E+00 0. -1.
</event>
<event>
 7    1  0.4274778E-006  0.2443678E+03  0.7561462E-02  0.1116917E+00
          2   -1    0    0  501    0  0.00000000000E+00  0.00000000000E+00  0.75498549769E+03  0.75498549769E+03  0.00000000000E+00 0. -1.
         -2   -1    0    0    0  501 -0.00000000000E+00 -0.00000000000E+00 -0.82903191564E+02  0.82903191564E+02  0.00000000000E+00 0.  1.
         23    2    1    2    0    0 -0.52157439257E+02  0.63434892343E+02  0.21171934598E+03  0.24608776558E+03  0.94814149103E+02 0.  0.
          5    1    1    2  502    0  0.17981365247E+03 -0.12744713532E+03  0.33886923975E+03  0.40425926825E+03  0.41800000000E+01 0. -1.
         -5    1    1    2    0  502 -0.12765621321E+03  0.64012242977E+02  0.12149372039E+03  0.18754165542E+03  0.41800000000E+01 0.  1.
        -11    1    3    3    0    0 -0.14086539923E+02 -0.25252567214E+02  0.47770302988E+02  0.55840170177E+02  0.00000000000E+00 0.  1.
         11    1    3    3    0    0 -0.38070899334E+02  0.88687459557E+02  0.16394904299E+03  0.19024759540E+03  0.00000000000E+00 0. -1.
</event>
<event>
 7    1  0.4274778E-006  0.7022281E+02  0.7561462E-02  0.1359337E+00
          2   -1    0    0  501    0  0.00000000000E+00  0.00000000000E+00  0.46911681865E+02  0.46911681865E+02  0.00000000000E+00 0.  1.
         -2   -1    0    0    0  501 -0.00000000000E+00 -0.00000000000E+00 -0.32885196526E+03  0.32885196526E+03  0.00000000000E+00 0. -1.
         23    2    1    2    0    0 -0.56025871851E+02 -0.66199164849E+01 -0.90600835805E+02  0.14030436616E+03  0.91071851326E+02 0.  0.
          5    1    1    2  502    0  0.29645823767E+02 -0.27047949788E+02 -0.18808124245E+03  0.19236031976E+03  0.41800000000E+01 0. -1.
         -5    1    1    2    0  502  0.26380048083E+02  0.33667866273E+02 -0.32582051341E+01  0.43098961205E+02  0.41800000000E+01 0. -1.
        -11    1    3    3    0    0 -0.30521740619E+02  0.89232160918E+00 -0.10549783954E+03  0.10982789735E+03  0.00000000000E+00 0. -1.
         11    1    3    3    0    0 -0.25504131231E+02 -0.75122380941E+01  0.14897003733E+02  0.30476468813E+02  0.00000000000E+00 0.  1.
</event>
<event>
 7    1  0.4274778E-006  0.9425689E+02  0.7561462E-02  0.1292859E+00
          2   -1    0    0  501    0  0.00000000000E+00  0.00000000000E+00  0.30427761844E+03  0.30427761844E+03  0.00000000000E+00 0. -1.
         -2   -1    0    0    0  501 -0.00000000000E+00 -0.00000000000E+00 -0.60015272837E+02  0.60015272837E+02  0.00000000000E+00 0.  1.
         23    2    1    2    0    0 -0.57182887072E+02 -0.40262324446E+02  0.16497504790E+03  0.20056546369E+03  0.90104391968E+02 0.  0.
          5    1    1    2  502    0 -0.44696674808E-01  0.70006992672E+01 -0.32630393635E+02  0.33633714883E+02  0.41800000000E+01 0.  1.
         -5    1    1    2    0  502  0.57227583746E+02  0.33261625179E+02  0.11191769134E+03  0.13009371271E+03  0.41800000000E+01 0.  1.
        -11    1    3    3    0    0 -0.36979098959E+01 -0.57671203128E+02  0.85647949782E+02  0.10332092484E+03  0.00000000000E+00 0.  1.
         11    1    3    3    0    0 -0.53484977176E+02  0.17408878682E+02  0.79327098119E+02  0.97244538851E+02  0.00000000000E+00 0. -1.
</event>
<event>
 7    1  0.4274778E-006  0.1914915E+03  0.7561462E-02  0.1157123E+00
         -1   -1    0    0    0  501 -0.00000000000E+00  0.00000000000E+00  0.18500706080E+03  0.18500706080E+03  0.00000000000E+00 0.  1.
          1   -1    0    0  501    0  0.00000000000E+00 -0.00000000000E+00 -0.32256218622E+03  0.32256218622E+03  0.00000000000E+00 0. -1.
         23    2    1    2    0    0 -0.79021239852E+02  0.15342598543E+03 -0.20527619183E+03  0.28392133506E+03  0.93215450503E+02 0.  0.
          5    1    1    2  502    0  0.26395719410E+02  0.15089613863E+02 -0.76739857580E+01  0.31635311080E+02  0.41800000000E+01 0. -1.
         -5    1    1    2    0  502  0.52625520442E+02 -0.16851559930E+03  0.75395052171E+02  0.19201260089E+03  0.41800000000E+01 0. -1.
        -11    1    3    3    0    0 -0.50149131352E+02  0.61538474410E+02 -0.31833249838E+02  0.85529380936E+02  0.00000000000E+00 0.  1.
         11    1    3    3    0    0 -0.28872108500E+02  0.91887511023E+02 -0.17344294200E+03  0.19839195412E+03  0.00000000000E+00 0. -1.
</event>
<event>
 7    1  0.4274778E-006  0.8129097E+02  0.7561462E-02  0.1325427E+00
          1   -1    0    0  501    0  0.00000000000E+00  0.00000000000E+00  0.43808759371E+02  0.43808759371E+02  0.00000000000E+00 0. -1.
         -1   -1    0    0    0  501 -0.00000000000E+00 -0.00000000000E+00 -0.28750267507E+03  0.28750267507E+03  0.00000000000E+00 0.  1.
         23    2    1    2    0    0  0.64683128694E+01 -0.12495306311E+02 -0.14369474619E+03  0.17054897225E+03  0.90778852717E+02 0.  0.
          5    1    1    2  502    0  0.42894760032E+01 -0.55831831645E+02 -0.38204830920E+02  0.67916673467E+02  0.41800000000E+01 0.  1.
         -5    1    1    2    0  502 -0.10757788873E+02  0.68327137955E+02 -0.61794338587E+02  0.92845788725E+02  0.41800000000E+01 0.  1.
        -11    1    3    3    0    0  0.15284790110E+02 -0.20265178472E+02 -0.15329015281E+03  0.15537751838E+03  0.00000000000E+00 0.  1.
         11    1    3    3    0    0 -0.88164772407E+01  0.77698721615E+01  0.95954066218E+01  0.15171453872E+02  0.00000000000E+00 0. -1.
</event>
<event>
 7    1  0.4274778E-006  0.1497627E+03  0.7561462E-02  0.1200765E+00
         -1   -1    0    0    0  501 -0.00000000000E+00  0.00000000000E+00  0.41846155605E+03  0.41846155605E+03  0.00000000000E+00 0.  1.
          1   -1    0    0  501    0  0.00000000000E+00 -0.00000000000E+00 -0.74710946046E+02  0.74710946046E+02  0.00000000000E+00 0. -1.
         23    2    1    2    0    0  0.13843599199E+03 -0.12653007193E+02  0.17672303173E+03  0.24243287020E+03  0.90653428741E+02 0.  0.
          5    1    1    2  502    0 -0.10160345433E+03 -0.54778870589E+01  0.27854238898E+02  0.10557746068E+03  0.41800000000E+01 0.  1.
         -5    1    1    2    0  502 -0.36832537663E+02  0.18130894252E+02  0.13917333938E+03  0.14516217122E+03  0.41800000000E+01 0.  1.
        -11    1    3    3    0    0  0.81520645160E+02 -0.42739320593E+02  0.14217799284E+03  0.16937191845E+03  0.00000000000E+00 0.  1.
         11    1    3    3    0    0  0.56915346834E+02  0.30086313401E+02  0.34545038886E+02  0.73060951752E+02  0.00000000000E+00 0. -1.
</event>
<event>
 7    1  0.4274778E-006  0.9281187E+02  0.7561462E-02  0.1296182E+00
          2   -1    0    0  501    0  0.00000000000E+00  0.00000000000E+00  0.58133438022E+02  0.58133438022E+02  0.00000000000E+00 0. -1.
         -2   -1    0    0    0  501 -0.00000000000E+00 -0.00000000000E+00 -0.22709113000E+03  0.22709113000E+03  0.00000000000E+00 0.  1.
         23    2    1    2    0    0  0.24830191125E+02 -0.30939284292E+02 -0.74534588178E+02  0.12357270076E+03  0.90227655597E+02 0.  0.
          5    1    1    2  502    0 -0.12225879183E+02  0.61403331681E+02 -0.10867734871E+03  0.12549135343E+03  0.41800000000E+01 0.  1.
         -5    1    1    2    0  502 -0.12604311942E+02 -0.30464047389E+02  0.14254244907E+02  0.36160513834E+02  0.41800000000E+01 0.  1.
        -11    1    3    3    0    0  0.22634599615E+02  0.24963575466E+02 -0.54638896089E+02  0.64194346835E+02  0.00000000000E+00 0.  1.
         11    1    3    3    0    0  0.21955915097E+01 -0.55902859757E+02 -0.19895692089E+02  0.59378353925E+02  0.00000000000E+00 0. -1.
</event>
<event>
 7    1  0.4274778E-006  0.1056575E+03  0.7561462E-02  0.1268830E+00
         -1   -1    0    0    0  501 -0.00000000000E+00  0.00000000000E+00  0.32710519453E+02  0.32710519453E+02  0.00000000000E+00 0.  1.
          1   -1    0    0  501    0  0.00000000000E+00 -0.00000000000E+00 -0.41615127317E+03  0.41615127317E+03  0.00000000000E+00 0. -1.
         23    2    1    2    0    0 -0.24174973589E+02 -0.34201328097E+02 -0.15898998994E+03  0.18851602101E+03  0.92229675728E+02 0.  0.
          5    1    1    2  502    0  0.10551697395E+02 -0.47567252763E+02 -0.81503058915E+02  0.95048423795E+02  0.41800000000E+01 0.  1.
         -5    1    1    2    0  502  0.13623276194E+02  0.81768580860E+02 -0.14294770486E+03  0.16529734781E+03  0.41800000000E+01 0.  1.
        -11    1    3    3    0    0  0.23432777898E+02 -0.16322600760E+02 -0.86967853161E+01  0.29852243641E+02  0.00000000000E+00 0.  1.
         11    1    3    3    0    0 -0.47607751487E+02 -0.17878727337E+02 -0.15029320463E+03  0.15866377737E+03  0.00000000000E+00 0. -1.
</event>
<event>
 7    1  0.4274778E-006  0.1075008E+03  0.7561462E-02  0.1265269E+00
          2   -1    0    0  501    0  0.00000000000E+00  0.00000000000E+00  0.44685618153E+03  0.44685618153E+03  0.00000000000E+00 0. -1.
         -2   -1    0    0    0  501 -0.00000000000E+00 -0.00000000000E+00 -0.33980683584E+02  0.33980683584E+02  0.00000000000E+00 0.  1.
         23    2    1    2    0    0 -0.48397585004E+01 -0.43161160424E+02  0.26792421808E+03  0.28451056704E+03  0.85302796509E+02 0.  0.
          5    1    1    2  502    0  0.36695897235E+02  0.69052470781E+02  0.13127173408E+03  0.15285474531E+03  0.41800000000E+01 0.  1.
         -5    1    1    2    0  502 -0.31856138734E+02 -0.25891310358E+02  0.13679545787E+02  0.43471552768E+02  0.41800000000E+01 0.  1.
        -11    1    3    3    0    0 -0.88748167989E+01 -0.68853051300E+02  0.18461595610E+03  0.19723730959E+03  0.00000000000E+00 0.  1.
         11    1    3    3    0    0  0.40350582985E+01  0.25691890876E+02  0.83308261974E+02  0.87273257447E+02  0.00000000000E+00 0. -1.
</event>
<event>
 7    1  0.4274778E-006  0.9897603E+02  0.7561462E-02  0.1282464E+00
         -2   -1    0    0    0  501 -0.00000000000E+00  0.00000000000E+00  0.55058074089E+02  0.55058074089E+02  0.00000000000E+00 0.  1.
          2   -1    0    0  501    0  0.00000000000E+00 -0.00000000000E+00 -0.42495155361E+03  0.42495155361E+03  0.00000000000E+00 0. -1.
         23    2    1    2    0    0 -0.13147562627E+01 -0.42474548296E+02 -0.21649217575E+03  0.23860973636E+03  0.90884147608E+02 0.  0.
          5    1    1    2  502    0  0.34296809130E+02 -0.11001201130E+02 -0.17197013710E+03  0.17575123896E+03  0.41800000000E+01 0. -1.
         -5    1    1    2    0  502 -0.32982052867E+02  0.53475749426E+02  0.18568833329E+02  0.65648652379E+02  0.41800000000E+01 0.  1.
        -11    1    3    3    0    0 -0.40325702059E+02  0.96749473344E+00 -0.68183621899E+02  0.79221869379E+02  0.00000000000E+00 0.  1.
         11    1    3    3    0    0  0.39010945796E+02 -0.43442043030E+02 -0.14830855385E+03  0.15938786698E+03  0.00000000000E+00 0. -1.
</event>
<event>
 7    1  0.4274778E-006  0.8745472E+02  0.7561462E-02  0.1309135E+00
          1   -1    0    0  501    0  0.00000000000E+00  0.00000000000E+00  0.45534781689E+03  0.45534781689E+03  0.00000000000E+00 0.  1.
         -1   -1    0    0    0  501 -0.00000000000E+00 -0.00000000000E+00 -0.34747108093E+02  0.34747108093E+02  0.00000000000E+00 0. -1.
         23    2    1    2    0    0 -0.30156260049E+02  0.59020006101E+02  0.19704560334E+03  0.22548898055E+03  0.87324391859E+02 0.  0.
          5    1    1    2  502    0  0.13434780866E+02 -0.78948794600E+02  0.22434385904E+03  0.23824576595E+03  0.41800000000E+01 0.  1.
         -5    1    1    2    0  502  0.16721479183E+02  0.19928788498E+02 -0.78875358663E+00  0.26360178476E+02  0.41800000000E+01 0.  1.
        -11    1    3    3    0    0 -0.63717520299E+01  0.30846010641E+02  0.18353878457E+03  0.18622180603E+03  0.00000000000E+00 0.  1.
         11    1    3    3    0    0 -0.23784508019E+02  0.28173995460E+02  0.13506818764E+02  0.39267174523E+02  0.00000000000E+00 0. -1.
</event>
<event>
 7    1  0.4274778E-006  0.7071624E+02  0.7561462E-02  0.1357674E+00
         -2   -1    0    0    0  501 -0.00000000000E+00  0.00000000000E+00  0.49644751931E+02  0.49644751931E+02  0.00000000000E+00 0.  1.
          2   -1    0    0  501    0  0.00000000000E+00 -0.00000000000E+00 -0.26800667156E+03  0.26800667156E+03  0.00000000000E+00 0. -1.
         23    2    1    2    0    0 -0.10029822521E+02 -0.60473068827E+01 -0.10356963039E+03  0.13787541656E+03  0.90254057480E+02 0.  0.
          5    1    1    2  502    0  0.32789855456E+02 -0.24394115033E+02 -0.13170565474E+03  0.13796412346E+03  0.41800000000E+01 0. -1.
         -5    1    1    2    0  502 -0.22760032935E+02  0.30441421916E+02  0.16913365503E+02  0.41811883480E+02  0.41800000000E+01 0.  1.
        -11    1    3    3    0    0 -0.10992866491E+02 -0.33184543000E+02 -0.10501699947E+03  0.11068255141E+03  0.00000000000E+00 0. -1.
         11    1    3    3    0    0  0.96304396941E+00  0.27137236117E+02  0.14473690837E+01  0.27192865150E+02  0.00000000000E+00 0.  1.
</event>
<event>
 7    1  0.4274778E-006  0.1050623E+03  0.7561462E-02  0.1269997E+00
          1   -1    0    0  501    0  0.00000000000E+00  0.00000000000E+00  0.49018188955E+02  0.49018188955E+02  0.00000000000E+00 0. -1.
         -1   -1    0    0    0  501 -0.00000000000E+00 -0.00000000000E+00 -0.31318183562E+03  0.31318183562E+03  0.00000000000E+00 0.  1.
         23    2    1    2    0    0  0.59243272397E+02 -0.84069796890E+01 -0.12475602766E+03  0.16557004882E+03  0.90933668125E+02 0.  0.
          5    1    1    2  502    0  0.91119674669E+01 -0.27990232293E+02 -0.10957302552E+03  0.11353502268E+03  0.41800000000E+01 0. -1.
         -5    1    1    2    0  502 -0.68355239864E+02  0.36397211982E+02 -0.29834593495E+02  0.83094953071E+02  0.41800000000E+01 0. -1.
        -11    1    3    3    0    0  0.22692633734E+02  0.37699380389E+02 -0.81234035088E+02  0.92385969520E+02  0.00000000000E+00 0.  1.
         11    1    3    3    0    0  0.36550638662E+02 -0.46106360078E+02 -0.43521992570E+02  0.73184079304E+02  0.00000000000E+00 0. -1.
</event>
<event>
 7    1  0.4274778E-006  0.8172921E+02  0.7561462E-02  0.1324215E+00
         -1   -1    0    0    0  501 -0.00000000000E+00  0.00000000000E+00  0.66847475569E+02  0.66847475569E+02  0.00000000000E+00 0.  1.
          1   -1    0    0  501    0  0.00000000000E+00 -0.00000000000E+00 -0.19629488032E+03  0.19629488032E+03  0.00000000000E+00 0. -1.
         23    2    1    2    0    0  0.17036639657E+02 -0.37127390611E+02 -0.62340640244E+02  0.11543084393E+03  0.88143258845E+02 0.  0.
          5    1    1    2  502    0  0.32803863962E+02  0.57748559657E+02 -0.65816593951E+02  0.93596399891E+02  0.41800000000E+01 0. -1.
         -5    1    1    2    0  502 -0.49840503618E+02 -0.20621169046E+02 -0.12901705519E+01  0.54115112065E+02  0.41800000000E+01 0. -1.
        -11    1    3    3    0    0 -0.92640992979E+00 -0.11380596876E+02  0.22356021623E+02  0.25103145688E+02  0.00000000000E+00 0.  1.
         11    1    3    3    0    0  0.17963049586E+02 -0.25746793736E+02 -0.84696661867E+02  0.90327698241E+02  0.00000000000E+00 0. -1.
</event>
<event>
 7    1  0.4274778E-006  0.8636849E+02  0.7561462E-02  0.1311892E+00
         -2   -1    0    0    0  501 -0.00000000000E+00  0.00000000000E+00  0.44113452033E+02  0.44113452033E+02  0.00000000000E+00 0. -1.
          2   -1    0    0  501    0  0.00000000000E+00 -0.00000000000E+00 -0.29837243970E+03  0.29837243970E+03  0.00000000000E+00 0.  1.
         23    2    1    2    0    0  0.25129850405E+02 -0.24922218762E+02 -0.16686070783E+03  0.18582439071E+03  0.73726399596E+02 0.  0.
          5    1    1    2  502    0  0.32992486943E+02  0.62508894856E+01  0.15283299249E+02  0.37129899677E+02  0.41800000000E+01 0.  1.
         -5    1    1    2    0  502 -0.58122337348E+02  0.18671329277E+02 -0.10268157909E+03  0.11953160135E+03  0.41800000000E+01 0.  1.
        -11    1    3    3    0    0 -0.16924504347E+02  0.12795503061E+02 -0.23111418489E+02  0.31373578224E+02  0.00000000000E+00 0. -1.
         11    1    3    3    0    0  0.42054354752E+02 -0.37717721823E+02 -0.14374928934E+03  0.15445081249E+03  0.00000000000E+00 0.  1.
</event>
<event>
 7    1  0.4274778E-006  0.1032787E+03  0.7561462E-02  0.1273549E+00
          2   -1    0    0  501    0  0.00000000000E+00  0.00000000000E+00  0.43701699663E+03  0.43701699663E+03  0.00000000000E+00 0. -1.
         -2   -1    0    0    0  501 -0.00000000000E+00 -0.00000000000E+00 -0.30179532453E+02  0.30179532453E+02  0.00000000000E+00 0.  1.
         23    2    1    2    0    0  0.45805178534E+01 -0.36704317640E+02  0.19520259084E+03  0.21859125638E+03  0.91158640931E+02 0.  0.
          5    1    1    2  502    0 -0.19684683628E+02  0.80962378047E+02  0.13159905072E+03  0.15581455637E+03  0.41800000000E+01 0. -1.
         -5    1    1    2    0  502  0.15104165775E+02 -0.44258060407E+02  0.80035822614E+02  0.92790716326E+02  0.41800000000E+01 0. -1.
        -11    1    3    3    0    0  0.13003443813E+02  0.17233659791E+02  0.70995042519E+01  0.22726450260E+02  0.00000000000E+00 0.  1.
         11    1    3    3    0    0 -0.84229259600E+01 -0.53937977431E+02  0.18810308659E+03  0.19586480612E+03  0.00000000000E+00 0. -1.
</event>
<event>
 7    1  0.4274778E-006  0.8780587E+02  0.7561462E-02  0.1308254E+00
          2   -1    0    0  501    0  0.00000000000E+00  0.00000000000E+00  0.21008075252E+03  0.21008075252E+03  0.00000000000E+00 0. -1.
         -2   -1    0    0    0  501 -0.00000000000E+00 -0.00000000000E+00 -0.86472922737E+02  0.86472922737E+02  0.00000000000E+00 0.  1.
         23    2    1    2    0    0 -0.38607490161E+02  0.20224978991E+01  0.12955508747E+03  0.16549268384E+03  0.95439399215E+02 0.  0.
          5    1    1    2  502    0 -0.14271081234E+02  0.52657455976E+02 -0.11434189061E+01  0.54728888498E+02  0.41800000000E+01 0. -1.
         -5    1    1    2    0  502  0.52878571395E+02 -0.54679953875E+02 -0.48038387787E+01  0.76332102916E+02  0.41800000000E+01 0. -1.
        -11    1    3    3    0    0 -0.28343694717E+02 -0.89171403327E+01  0.14256972702E+03  0.14563312633E+03  0.00000000000E+00 0. -1.
         11    1    3    3    0    0 -0.10263795444E+02  0.10939638232E+02 -0.13014639559E+02  0.19859557508E+02  0.00000000000E+00 0.  1.
</event>
<event>
 7    1  0.4274778E-006  0.9284826E+02  0.7561462E-02  0.1296097E+00
         -2   -1    0    0    0  501 -0.00000000000E+00  0.00000000000E+00  0.16021419786E+02  0.16021419786E+02  0.00000000000E+00 0.  1.
          2   -1    0    0  501    0  0.00000000000E+00 -0.00000000000E+00 -0.90220048207E+03  0.90220048207E+03  0.00000000000E+00 0. -1.
         23    2    1    2    0    0  0.16853994602E+02 -0.27438156366E+02 -0.53408118241E+03  0.54306235502E+03  0.92936012825E+02 0.  0.
          5    1    1    2  502    0  0.29668898022E+02 -0.51482125444E+01 -0.16162192015E+02  0.34430167774E+02  0.41800000000E+01 0.  1.
         -5    1    1    2    0  502 -0.46522892624E+02  0.32586368910E+02 -0.33593568787E+03  0.34072937907E+03  0.41800000000E+01 0.  1.
        -11    1    3    3    0    0  0.36077450144E+02  0.24065628431E+02 -0.24019772322E+03  0.24408130432E+03  0.00000000000E+00 0. -1.
         11    1    3    3    0    0 -0.19223455541E+02 -0.51503784797E+02 -0.29388345919E+03  0.29898105070E+03  0.00000000000E+00 0.  1.
</event>
<event>
 7    1  0.4274778E-006  0.1076526E+03  0.7561462E-02  0.1264980E+00
         -1   -1    0    0    0  501 -0.00000000000E+00  0.00000000000E+00  0.26770802356E+03  0.26770802356E+03  0.00000000000E+00 0.  1.
          1   -1    0    0  501    0  0.00000000000E+00 -0.00000000000E+00 -0.51287116844E+02  0.51287116844E+02  0.00000000000E+00 0. -1.
         23    2    1    2    0    0  0.19657197607E+02 -0.12601737183E+02  0.41152960499E+02  0.10240483120E+03  0.90818357708E+02 0.  0.
          5    1    1    2  502    0 -0.53159225449E+02  0.48685139413E+02  0.71296107980E+02  0.10147291985E+03  0.41800000000E+01 0. -1.
         -5    1    1    2    0  502  0.33502027841E+02 -0.36083402230E+02  0.10397183824E+03  0.11511738936E+03  0.41800000000E+01 0. -1.
        -11    1    3    3    0    0  0.26411313735E+00  0.38771676588E+02  0.19216422216E+02  0.43273358362E+02  0.00000000000E+00 0. -1.
         11    1    3    3    0    0  0.19393084470E+02 -0.51373413771E+02  0.21936538283E+02  0.59131472835E+02  0.00000000000E+00 0.  1.
</event>
<event>
 7    1  0.4274778E-006  0.2278295E+03  0.7561462E-02  0.1128177E+00
          1   -1    0    0  501    0  0.00000000000E+00  0.00000000000E+00  0.56643016530E+03  0.56643016530E+03  0.00000000000E+00 0. -1.
         -1   -1    0    0    0  501 -0.00000000000E+00 -0.00000000000E+00 -0.16328828312E+03  0.16328828312E+03  0.00000000000E+00 0.  1.
         23    2    1    2    0    0 -0.10190790361E+03 -0.18105874869E+03  0.42973142799E+03  0.48574634596E+03  0.90071755411E+02 0.  0.
          5    1    1    2  502    0  0.10159100470E+03  0.19707392834E+03 -0.12291745997E+02  0.22209778226E+03  0.41800000000E+01 0. -1.
         -5    1    1    2    0  502  0.31689890998E+00 -0.16015179652E+02 -0.14297799813E+02  0.21874320188E+02  0.41800000000E+01 0. -1.
        -11    1    3    3    0    0  0.90450766265E+01 -0.10306286310E+02  0.79036273224E+02  0.80216989683E+02  0.00000000000E+00 0. -1.
         11    1    3    3    0    0 -0.11095298023E+03 -0.17075246238E+03  0.35069515476E+03  0.40552935628E+03  0.00000000000E+00 0.  1.
</event>
<event>
 7    1  0.4274778E-006  0.1141034E+03  0.7561462E-02  0.1253154E+00
          2   -1    0    0  501    0  0.00000000000E+00  0.00000000000E+00  0.90428889971E+03  0.90428889971E+03  0.00000000000E+00 0.  1.
         -2   -1    0    0    0  501 -0.00000000000E+00 -0.00000000000E+00 -0.16507052973E+02  0.16507052973E+02  0.00000000000E+00 0. -1.
         23    2    1    2    0    0  0.24440306967E+02 -0.45653344792E+02  0.42307706724E+03  0.43676967016E+03  0.95351892736E+02 0.  0.
          5    1    1    2  502    0  0.30009541665E+02 -0.18689720526E+02  0.26269922917E+03  0.26510042560E+03  0.41800000000E+01 0.  1.
         -5    1    1    2    0  502 -0.54449848632E+02  0.64343065318E+02  0.20200555032E+03  0.21892585693E+03  0.41800000000E+01 0.  1.
        -11    1    3    3    0    0 -0.18276758463E+02  0.21752647296E+02  0.12573733749E+03  0.12890731400E+03  0.00000000000E+00 0.  1.
         11    1    3    3    0    0  0.42717065430E+02 -0.67405992088E+02  0.29733972975E+03  0.30786235615E+03  0.00000000000E+00 0. -1.
</event>
<event>
 7    1  0.4274778E-006  0.1237033E+03  0.7561462E-02  0.1237110E+00
         -4   -1    0    0    0  501 -0.00000000000E+00  0.00000000000E+00  0.16226504627E+04  0.16226504627E+04  0.00000000000E+00 0.  1.
          4   -1    0    0  501    0  0.00000000000E+00 -0.00000000000E+00 -0.11217192521E+02  0.11217192521E+02  0.00000000000E+00 0. -1.
         23    2    1    2    0    0  0.65125365300E+02 -0.16546279810E+02  0.46846629709E+03  0.48211425715E+03  0.91969521359E+02 0.  0.
          5    1    1    2  502    0 -0.81975438845E+02  0.50139094782E+02  0.61949070582E+03  0.62691315858E+03  0.41800000000E+01 0.  1.
         -5    1    1    2    0  502  0.16850073545E+02 -0.33592814972E+02  0.52347626726E+03  0.52484023948E+03  0.41800000000E+01 0.  1.
        -11    1    3    3    0    0  0.23174941481E+02  0.38053011241E+02  0.16260510048E+03  0.16859871969E+03  0.00000000000E+00 0.  1.
         11    1    3    3    0    0  0.41950423819E+02 -0.54599291050E+02  0.30586119661E+03  0.31351553747E+03  0.00000000000E+00 0. -1.
</event>
<event>
 7    1  0.4274778E-006  0.1131494E+03  0.7561462E-02  0.1254846E+00
          1   -1    0    0  501    0  0.00000000000E+00  0.00000000000E+00  0.42661110735E+03  0.42661110735E+03  0.00000000000E+00 0. -1.
         -1   -1    0    0    0  501 -0.00000000000E+00 -0.00000000000E+00 -0.47844210404E+02  0.47844210404E+02  0.00000000000E+00 0.  1.
         23    2    1    2    0    0 -0.45209032399E+02 -0.19851453356E+02  0.30351972990E+03  0.32035794838E+03  0.89816768145E+02 0.  0.
          5    1    1    2  502    0  0.35663980929E+02  0.71644119101E+02  0.56440049909E+02  0.98019135740E+02  0.41800000000E+01 0. -1.
         -5    1    1    2    0  502  0.95450514702E+01 -0.51792665745E+02  0.18807117137E+02  0.56078233635E+02  0.41800000000E+01 0. -1.
        -11    1    3    3    0    0 -0.37613829854E+02  0.26722583923E+02  0.84142716163E+02  0.95962979170E+02  0.00000000000E+00 0.  1.
         11    1    3    3    0    0 -0.75952025453E+01 -0.46574037279E+02  0.21937701374E+03  0.22439496921E+03  0.00000000000E+00 0. -1.
</event>
<event>
 7    1  0.4274778E-006  0.8531297E+02  0.7561462E-02  0.1314616E+00
          1   -1    0    0  501    0  0.00000000000E+00  0.00000000000E+00  0.61725947940E+02  0.61725947940E+02  0.00000000000E+00 0. -1.
         -1   -1    0    0    0  501 -0.00000000000E+00 -0.00000000000E+00 -0.22512882989E+03  0.22512882989E+03  0.00000000000E+00 0.  1.
         23    2    1    2    0    0 -0.14053157697E+02  0.39292168346E+02 -0.45469371380E+02  0.10995044964E+03  0.90995999406E+02 0.  0.
          5    1    1    2  502    0  0.24530158352E+02 -0.53137191387E+02 -0.13805160271E+03  0.15000335726E+03  0.41800000000E+01 0. -1.
         -5    1    1    2    0  502 -0.10477000655E+02  0.13845023041E+02  0.20118092141E+02  0.26900970933E+02  0.41800000000E+01 0. -1.
        -11    1    3    3    0    0 -0.28094136565E+01 -0.26852428098E+02 -0.31375214666E+02  0.41392629720E+02  0.00000000000E+00 0. -1.
         11    1    3    3    0    0 -0.11243744041E+02  0.66144596444E+02 -0.14094156714E+02  0.68557819921E+02  0.00000000000E+00 0.  1.
</event>
<event>
 7    1  0.4274778E-006  0.9538533E+02  0.7561462E-02  0.1290311E+00
         -1   -1    0    0    0  501 -0.00000000000E+00  0.00000000000E+00  0.21271699488E+02  0.21271699488E+02  0.00000000000E+00 0.  1.
          1   -1    0    0  501    0  0.00000000000E+00 -0.00000000000E+00 -0.70604092722E+03  0.70604092722E+03  0.00000000000E+00 0. -1.
         23    2    1    2    0    0 -0.48889410450E+02 -0.32261563367E+02 -0.30401353548E+03  0.32227641188E+03  0.89481131961E+02 0.  0.
          5    1    1    2  502    0 -0.10524930104E+02  0.28220934035E+02 -0.14039982521E+02  0.33493115423E+02  0.41800000000E+01 0. -1.
         -5    1    1    2    0  502  0.59414340554E+02  0.40406293320E+01 -0.36671570974E+03  0.37154309941E+03  0.41800000000E+01 0. -1.
        -11    1    3    3    0    0 -0.72118273614E+02 -0.24936799637E+02 -0.17393971134E+03  0.18994186623E+03  0.00000000000E+00 0.  1.
         11    1    3    3    0    0  0.23228863164E+02 -0.73247637300E+01 -0.13007382414E+03  0.13233454566E+03  0.00000000000E+00 0. -1.
</event>
<event>
 7    1  0.4274778E-006  0.1527209E+03  0.7561462E-02  0.1197169E+00
          1   -1    0    0  501    0  0.00000000000E+00  0.00000000000E+00  0.11082270760E+04  0.11082270760E+04  0.00000000000E+00 0. -1.
         -1   -1    0    0    0  501 -0.00000000000E+00 -0.00000000000E+00 -0.23750578995E+02  0.23750578995E+02  0.00000000000E+00 0.  1.
         23    2    1    2    0    0  0.65841857655E+02  0.93691353783E+02  0.64204932919E+03  0.65815965164E+03  0.88507434355E+02 0.  0.
          5    1    1    2  502    0 -0.80633451717E+02 -0.11169590036E+03  0.30951054230E+03  0.33880964550E+03  0.41800000000E+01 0.  1.
         -5    1    1    2    0  502  0.14791594062E+02  0.18004546573E+02  0.13291662552E+03  0.13500835786E+03  0.41800000000E+01 0.  1.
        -11    1    3    3    0    0  0.66684729473E+02  0.19123261528E+02  0.34375031494E+03  0.35068052598E+03  0.00000000000E+00 0.  1.
         11    1    3    3    0    0 -0.84287181833E+00  0.74568092255E+02  0.29829901424E+03  0.30747912566E+03  0.00000000000E+00 0. -1.
</event>
<event>
 7    1  0.4274778E-006  0.1041904E+03  0.7561462E-02  0.1271723E+00
         -3   -1    0    0    0  501 -0.00000000000E+00  0.00000000000E+00  0.31440783151E+03  0.31440783151E+03  0.00000000000E+00 0.  1.
          3   -1    0    0  501    0  0.00000000000E+00 -0.00000000000E+00 -0.49905547313E+02  0.49905547313E+02  0.00000000000E+00 0. -1.
         23    2    1    2    0    0 -0.28980711939E+02 -0.46955292848E+02  0.54918816596E+02  0.11898687025E+03  0.89983985708E+02 0.  0.
          5    1    1    2  502    0 -0.12387119995E+02 -0.32163506759E+02  0.86557237953E+02  0.93260708505E+02  0.41800000000E+01 0. -1.
         -5    1    1    2    0  502  0.41367831934E+02  0.79118799607E+02  0.12302622965E+03  0.15206580008E+03  0.41800000000E+01 0.  1.
        -11    1    3    3    0    0  0.14464570978E+02 -0.36978922341E+02 -0.93301930261E+01  0.40788687316E+02  0.00000000000E+00 0.  1.
         11    1    3    3    0    0 -0.43445282917E+02 -0.99763705071E+01  0.64249009622E+02  0.78198182931E+02  0.00000000000E+00 0. -1.
</event>
<event>
 7    1  0.4274778E-006  0.1153841E+03  0.7561462E-02  0.1250912E+00
         -2   -1    0    0    0  501 -0.00000000000E+00  0.00000000000E+00  0.21017003880E+03  0.21017003880E+03  0.00000000000E+00 0.  1.
          2   -1    0    0  501    0  0.00000000000E+00 -0.00000000000E+00 -0.83345580481E+02  0.83345580481E+02  0.00000000000E+00 0. -1.
         23    2    1    2    0    0 -0.39580256259E+02  0.29838337372E+02  0.88366900421E+00  0.10921869073E+03  0.97319157780E+02 0.  0.
          5    1    1    2  502    0  0.28011489370E+02  0.41452337646E+02  0.16005020349E+02  0.52693196045E+02  0.41800000000E+01 0.  1.
         -5    1    1    2    0  502  0.11568766889E+02 -0.71290675019E+02  0.10993576897E+03  0.13160373251E+03  0.41800000000E+01 0.  1.
        -11    1    3    3    0    0 -0.35103490932E+02  0.64412857348E+02 -0.62859010660E+01  0.73625972452E+02  0.00000000000E+00 0. -1.
         11    1    3    3    0    0 -0.44767653266E+01 -0.34574519975E+02  0.71695700702E+01  0.35592718277E+02  0.00000000000E+00 0.  1.
</event>
<event>
 7    1  0.4274778E-006  0.9115375E+02  0.7561462E-02  0.1300082E+00
          2   -1    0    0  501    0  0.00000000000E+00  0.00000000000E+00  0.38684863554E+03  0.38684863554E+03  0.00000000000E+00 0.  1.
         -2   -1    0    0    0  501 -0.00000000000E+00 -0.00000000000E+00 -0.37729336646E+02  0.37729336646E+02  0.00000000000E+00 0. -1.
         23    2    1    2    0    0  0.46149726132E+02  0.14552156950E+02  0.18697442536E+03  0.21415218070E+03  0.92521123351E+02 0.  0.
          5    1    1    2  502    0 -0.38808457442E+02  0.26500243699E+02  0.16177238777E+03  0.16851153412E+03  0.41800000000E+01 0.  1.
         -5    1    1    2    0  502 -0.73412686892E+01 -0.41052400649E+02  0.37248576260E+00  0.41914257368E+02  0.41800000000E+01 0.  1.
        -11    1    3    3    0    0  0.52768177513E+02 -0.21191884768E+02  0.62587390308E+02  0.84562154441E+02  0.00000000000E+00 0.  1.
         11    1    3    3    0    0 -0.66184513818E+01  0.35744041718E+02  0.12438703505E+03  0.12959002626E+03  0.00000000000E+00 0. -1.
</event>
<event>
 7    1  0.4274778E-006  0.9583523E+02  0.7561462E-02  0.1289306E+00
          1   -1    0    0  501    0  0.00000000000E+00  0.00000000000E+00  0.19579252289E+02  0.19579252289E+02  0.00000000000E+00 0.  1.
         -1   -1    0    0    0  501 -0.00000000000E+00 -0.00000000000E+00 -0.96610324452E+03  0.96610324452E+03  0.00000000000E+00 0. -1.
         23    2    1    2    0    0 -0.50128211541E+02 -0.26034720533E+02 -0.13403813742E+03  0.16168510505E+03  0.70605995819E+02 0.  0.
          5    1    1    2  502    0  0.56656872147E+02 -0.16548865646E+02 -0.16903941673E+03  0.17909679763E+03  0.41800000000E+01 0.  1.
         -5    1    1    2    0  502 -0.65286606057E+01  0.42583586179E+02 -0.64344643809E+03  0.64490059413E+03  0.41800000000E+01 0.  1.
        -11    1    3    3    0    0 -0.66622873507E+02 -0.12296060510E+02 -0.89562222236E+02  0.11229956380E+03  0.00000000000E+00 0.  1.
         11    1    3    3    0    0  0.16494661966E+02 -0.13738660023E+02 -0.44475915182E+02  0.49385541243E+02  0.00000000000E+00 0. -1.
</event>
<event>
 7    1  0.4274778E-006  0.1243628E+03  0.7561462E-02  0.1236068E+00
         -1   -1    0    0    0  501 -0.00000000000E+00  0.00000000000E+00  0.27726205525E+03  0.27726205525E+03  0.00000000000E+00 0.  1.
          1   -1    0    0  501    0  0.00000000000E+00 -0.00000000000E+00 -0.60002453129E+02  0.60002453129E+02  0.00000000000E+00 0. -1.
         23    2    1    2    0    0 -0.30247083337E+02 -0.60439470102E+02  0.72708627983E+02  0.13450694389E+03  0.90762094375E+02 0.  0.
          5    1    1    2  502    0 -0.13099719998E+02 -0.34509070068E+02  0.46222060759E+02  0.59299493099E+02  0.41800000000E+01 0. -1.
         -5    1    1    2    0  502  0.43346803335E+02  0.94948540169E+02  0.98328913375E+02  0.14345807138E+03  0.41800000000E+01 0. -1.
        -11    1    3    3    0    0  0.16075843294E+02 -0.58594211049E+02  0.62239860326E+02  0.86979966196E+02  0.00000000000E+00 0.  1.
         11    1    3    3    0    0 -0.46322926631E+02 -0.18452590523E+01  0.10468767657E+02  0.47526977695E+02  0.00000000000E+00 0. -1.
</event>
<event>
 7    1  0.4274778E-006  0.9181605E+02  0.7561462E-02  0.1298513E+00
         -1   -1    0    0    0  501 -0.00000000000E+00  0.00000000000E+00  0.79904359164E+02  0.79904359164E+02  0.00000000000E+00 0.  1.
          1   -1    0    0  501    0  0.00000000000E+00 -0.00000000000E+00 -0.27610918188E+03  0.27610918188E+03  0.00000000000E+00 0. -1.
         23    2    1    2    0    0 -0.19732142089E+02  0.12081885171E+01 -0.20990520182E+03  0.22930051547E+03  0.90153843479E+02 0.  0.
          5    1    1    2  502    0 -0.38882682471E+02 -0.23253520772E+02 -0.26043801217E+02  0.52424624045E+02  0.41800000000E+01 0. -1.
         -5    1    1    2    0  502  0.58614824559E+02  0.22045332255E+02  0.39744180319E+02  0.74288401528E+02  0.41800000000E+01 0.  1.
        -11    1    3    3    0    0 -0.27091433256E+02  0.33024581102E+02 -0.48515160031E+02  0.64639689554E+02  0.00000000000E+00 0.  1.
         11    1    3    3    0    0  0.73592911673E+01 -0.31816392585E+02 -0.16139004179E+03  0.16466082592E+03  0.00000000000E+00 0. -1.
</event>
<event>
 7    1  0.4274778E-006  0.1116727E+03  0.7561462E-02  0.1257503E+00
          1   -1    0    0  501    0  0.00000000000E+00  0.00000000000E+00  0.45775358841E+02  0.45775358841E+02  0.00000000000E+00 0. -1.
         -1   -1    0    0    0  501 -0.00000000000E+00 -0.00000000000E+00 -0.36584207201E+03  0.36584207201E+03  0.00000000000E+00 0.  1.
         23    2    1    2    0    0  0.55712424297E+02  0.42033985077E+02 -0.12302071349E+03  0.16800810248E+03  0.90674673576E+02 0.  0.
          5    1    1    2  502    0 -0.70701448218E+02 -0.42963915247E+01 -0.40227523996E+02  0.81565187716E+02  0.41800000000E+01 0.  1.
         -5    1    1    2    0  502  0.14989023921E+02 -0.37737593552E+02 -0.15681847569E+03  0.16204414066E+03  0.41800000000E+01 0.  1.
        -11    1    3    3    0    0  0.16036401758E+02  0.64165576683E+02 -0.54032004026E+02  0.85404009692E+02  0.00000000000E+00 0. -1.
         11    1    3    3    0    0  0.39676022539E+02 -0.22131591606E+02 -0.68988709461E+02  0.82604092783E+02  0.00000000000E+00 0.  1.
</event>
<event>
 7    1  0.4274778E-006  0.1425603E+03  0.7561462E-02  0.1209925E+00
         -2   -1    0    0    0  501 -0.00000000000E+00  0.00000000000E+00  0.28293084086E+02  0.28293084086E+02  0.00000000000E+00 0.  1.
          2   -1    0    0  501    0  0.00000000000E+00 -0.00000000000E+00 -0.76048679273E+03  0.76048679273E+03  0.00000000000E+00 0. -1.
         23    2    1    2    0    0  0.64055368826E+02  0.65456746476E+02 -0.40667205826E+03  0.42822557835E+03  0.98016871272E+02 0.  0.
          5    1    1    2  502    0 -0.32258047381E+02 -0.10053117694E+03 -0.19737331588E+03  0.22387674595E+03  0.41800000000E+01 0. -1.
         -5    1    1    2    0  502 -0.31797321446E+02  0.35074430460E+02 -0.12814833451E+03  0.13667755251E+03  0.41800000000E+01 0. -1.
        -11    1    3    3    0    0 -0.14985948361E+02  0.48940122852E+02 -0.12147599977E+03  0.13181856012E+03  0.00000000000E+00 0.  1.
         11    1    3    3    0    0  0.79041317187E+02  0.16516623624E+02 -0.28519605849E+03  0.29640701823E+03  0.00000000000E+00 0. -1.
</event>
<event>
 7    1  0.4274778E-006  0.7145464E+02  0.7561462E-02  0.1355215E+00
          1   -1    0    0  501    0  0.00000000000E+00  0.00000000000E+00  0.36110274871E+03  0.36110274871E+03  0.00000000000E+00 0. -1.
         -1   -1    0    0    0  501 -0.00000000000E+00 -0.00000000000E+00 -0.40239702036E+02  0.40239702036E+02  0.00000000000E+00 0.  1.
         23    2    1    2    0    0  0.12541302528E+02 -0.45815763149E+02  0.17234869497E+03  0.20144171032E+03  0.92834915717E+02 0.  0.
          5    1    1    2  502    0  0.18611758449E+02 -0.29906921280E+01 -0.16232465134E+02  0.25225128668E+02  0.41800000000E+01 0. -1.
         -5    1    1    2    0  502 -0.31153060978E+02  0.48806455277E+02  0.16474681684E+03  0.17467561176E+03  0.41800000000E+01 0. -1.
        -11    1    3    3    0    0 -0.83482777234E+01  0.55991909346E+01 -0.79368904178E+01  0.12807767548E+02  0.00000000000E+00 0.  1.
         11    1    3    3    0    0  0.20889580252E+02 -0.51414954083E+02  0.18028558539E+03  0.18863394277E+03  0.00000000000E+00 0. -1.
</event>
<event>
 7    1  0.4274778E-006  0.1306244E+03  0.7561462E-02  0.1226532E+00
          1   -1    0    0  501    0  0.00000000000E+00  0.00000000000E+00  0.85144706871E+03  0.85144706871E+03  0.00000000000E+00 0. -1.
         -1   -1    0    0    0  501 -0.00000000000E+00 -0.00000000000E+00 -0.25749064705E+02  0.25749064705E+02  0.00000000000E+00 0.  1.
         23    2    1    2    0    0 -0.81258901553E+02  0.10723713190E+02  0.55410498657E+03  0.56715016678E+03  0.88932381247E+02 0.  0.
          5    1    1    2  502    0  0.55264517513E+01 -0.55393438865E+02  0.66268307080E+02  0.86648344829E+02  0.41800000000E+01 0. -1.
         -5    1    1    2    0  502  0.75732449801E+02  0.44669725675E+02  0.20532471035E+03  0.22339762180E+03  0.41800000000E+01 0. -1.
        -11    1    3    3    0    0 -0.97113890776E+02  0.19826601453E+02  0.50748194986E+03  0.51707072180E+03  0.00000000000E+00 0.  1.
         11    1    3    3    0    0  0.15854989223E+02 -0.91028882622E+01  0.46623036709E+02  0.50079444984E+02  0.00000000000E+00 0. -1.
</event>
<event>
 7    1  0.4274778E-006  0.1369522E+03  0.7561462E-02  0.1217490E+00
         -2   -1    0    0    0  501 -0.00000000000E+00  0.00000000000E+00  0.64147966312E+02  0.64147966312E+02  0.00000000000E+00 0.  1.
          2   -1    0    0  501    0  0.00000000000E+00 -0.00000000000E+00 -0.31736317042E+03  0.31736317042E+03  0.00000000000E+00 0. -1.
         23    2    1    2    0    0  0.40457943825E+02  0.80992781903E+02 -0.13125209356E+03  0.18473908038E+03  0.93299195159E+02 0.  0.
          5    1    1    2  502    0 -0.52823942892E+02  0.87843653480E+01 -0.81097124122E+02  0.97271526965E+02  0.41800000000E+01 0.  1.
         -5    1    1    2    0  502  0.12365999067E+02 -0.89777147251E+02 -0.40865986424E+02  0.99500529384E+02  0.41800000000E+01 0.  1.
        -11    1    3    3    0    0  0.12712439249E+02  0.96737674422E+02 -0.91417510475E+02  0.13370469321E+03  0.00000000000E+00 0.  1.
         11    1    3    3    0    0  0.27745504576E+02 -0.15744892520E+02 -0.39834583085E+02  0.51034387173E+02  0.00000000000E+00 0. -1.
</event>
<event>
 7    1  0.4274778E-006  0.1325965E+03  0.7561462E-02  0.1223653E+00
          4   -1    0    0  501    0  0.00000000000E+00  0.00000000000E+00  0.10315020419E+03  0.10315020419E+03  0.00000000000E+00 0. -1.
         -4   -1    0    0    0  501 -0.00000000000E+00 -0.00000000000E+00 -0.24956836863E+03  0.24956836863E+03  0.00000000000E+00 0.  1.
         23    2    1    2    0    0  0.10290813264E+03 -0.23423077799E+01 -0.43937303403E+01  0.13727944141E+03  0.90723591188E+02 0.  0.
          5    1    1    2  502    0 -0.40377734424E+02  0.59140281678E+02 -0.37375940678E+02  0.80884904004E+02  0.41800000000E+01 0.  1.
         -5    1    1    2    0  502 -0.62530398213E+02 -0.56797973899E+02 -0.10464849342E+03  0.13455422741E+03  0.41800000000E+01 0.  1.
        -11    1    3    3    0    0  0.82016940015E+02  0.12896082394E+02  0.35046256784E+02  0.90118408248E+02  0.00000000000E+00 0. -1.
         11    1    3    3    0    0  0.20891192621E+02 -0.15238390174E+02 -0.39439987124E+02  0.47161033159E+02  0.00000000000E+00 0.  1.
</event>
<event>
 7    1  0.4274778E-006  0.9216289E+02  0.7561462E-02  0.1297697E+00
         -3   -1    0    0    0  501 -0.00000000000E+00  0.00000000000E+00  0.12431139476E+04  0.12431139476E+04  0.00000000000E+00 0.  1.
          3   -1    0    0  501    0  0.00000000000E+00 -0.00000000000E+00 -0.11535314982E+02  0.11535314982E+02  0.00000000000E+00 0. -1.
         23    2    1    2    0    0  0.49039321742E+02 -0.37602394190E+00  0.49515262826E+03  0.50606728026E+03  0.92319935017E+02 0.  0.
          5    1    1    2  502    0 -0.53494964266E+02 -0.21141302813E+02  0.13579303579E+03  0.14753266369E+03  0.41800000000E+01 0.  1.
         -5    1    1    2    0  502  0.44556425238E+01  0.21517326755E+02  0.60063296857E+03  0.60104931864E+03  0.41800000000E+01 0.  1.
        -11    1    3    3    0    0  0.18126218104E+02  0.45493325116E+02  0.25010666876E+03  0.25485593611E+03  0.00000000000E+00 0.  1.
         11    1    3    3    0    0  0.30913103639E+02 -0.45869349058E+02  0.24504595951E+03  0.25121134415E+03  0.00000000000E+00 0. -1.
</event>
<event>
 7    1  0.4274778E-006  0.1216888E+03  0.7561462E-02  0.1240337E+00
          1   -1    0    0  501    0  0.00000000000E+00  0.00000000000E+00  0.21381830385E+03  0.21381830385E+03  0.00000000000E+00 0. -1.
         -1   -1    0    0    0  501 -0.00000000000E+00 -0.00000000000E+00 -0.12221397294E+03  0.12221397294E+03  0.00000000000E+00 0.  1.
         23    2    1    2    0    0  0.33560166502E+02 -0.90447006770E+02  0.11802817135E+03  0.17586167764E+03  0.87691131932E+02 0.  0.
          5    1    1    2  502    0  0.25336071434E+02  0.53122342808E+02  0.33749965401E+02  0.67973762480E+02  0.41800000000E+01 0.  1.
         -5    1    1    2    0  502 -0.58896237936E+02  0.37324663961E+02 -0.60173805847E+02  0.92196836676E+02  0.41800000000E+01 0.  1.
        -11    1    3    3    0    0  0.51753367455E+02 -0.62090970057E+02  0.38582025301E+02  0.89567138404E+02  0.00000000000E+00 0.  1.
         11    1    3    3    0    0 -0.18193200953E+02 -0.28356036713E+02  0.79446146054E+02  0.86294539235E+02  0.00000000000E+00 0. -1.
</event>
<event>
 7    1  0.4274778E-006  0.2036700E+03  0.7561462E-02  0.1146679E+00
         -2   -1    0    0    0  501 -0.00000000000E+00  0.00000000000E+00  0.60554743794E+02  0.60554743794E+02  0.00000000000E+00 0. -1.
          2   -1    0    0  501    0  0.00000000000E+00 -0.00000000000E+00 -0.88433378389E+03  0.88433378389E+03  0.00000000000E+00 0.  1.
         23    2    1    2    0    0 -0.15289406523E+03  0.13011654739E+03 -0.31889570033E+03  0.38733643240E+03  0.89599849830E+02 0.  0.
          5    1    1    2  502    0  0.64393115807E+02 -0.31904373021E+02 -0.60917819942E+02  0.94301726218E+02  0.41800000000E+01 0. -1.
         -5    1    1    2    0  502  0.88500949426E+02 -0.98212174370E+02 -0.44396551983E+03  0.46325036907E+03  0.41800000000E+01 0. -1.
        -11    1    3    3    0    0 -0.12030417401E+03  0.11741973363E+03 -0.30767330178E+03  0.35060426233E+03  0.00000000000E+00 0.  1.
         11    1    3    3    0    0 -0.32589891218E+02  0.12696813759E+02 -0.11222398543E+02  0.36732170074E+02  0.00000000000E+00 0. -1.
</event>
<event>
 7    1  0.4274778E-006  0.1237992E+03  0.7561462E-02  0.1236958E+00
         -2   -1    0    0    0  501 -0.00000000000E+00  0.00000000000E+00  0.30759649462E+02  0.30759649462E+02  0.00000000000E+00 0. -1.
          2   -1    0    0  501    0  0.00000000000E+00 -0.00000000000E+00 -0.64933201301E+03  0.64933201301E+03  0.00000000000E+00 0.  1.
         23    2    1    2    0    0 -0.65945447117E+02 -0.62719220789E+02 -0.29302571938E+03  0.31966087072E+03  0.89646513579E+02 0.  0.
          5    1    1    2  502    0 -0.24624172505E+01  0.77082761006E+02 -0.11486567052E+03  0.13841752132E+03  0.41800000000E+01 0.  1.
         -5    1    1    2    0  502  0.68407864368E+02 -0.14363540217E+02 -0.21068097364E+03  0.22201327043E+03  0.41800000000E+01 0.  1.
        -11    1    3    3    0    0 -0.40636061967E+02 -0.99841217435E+01 -0.33436105915E+02  0.53562537261E+02  0.00000000000E+00 0. -1.
         11    1    3    3    0    0 -0.25309385150E+02 -0.52735099046E+02 -0.25958961347E+03  0.26609833346E+03  0.00000000000E+00 0.  1.
</event>
<event>
 7    1  0.4274778E-006  0.1071212E+03  0.7561462E-02  0.1265996E+00
         -3   -1    0    0    0  501 -0.00000000000E+00  0.00000000000E+00  0.17812089590E+04  0.17812089590E+04  0.00000000000E+00 0.  1.
          3   -1    0    0  501    0  0.00000000000E+00 -0.00000000000E+00 -0.12562570750E+02  0.12562570750E+02  0.00000000000E+00 0. -1.
         23    2    1    2    0    0  0.55430245276E+02  0.15106498267E+02  0.30271612928E+03  0.32139288759E+03  0.91409052557E+02 0.  0.
          5    1    1    2  502    0  0.26322405003E+02 -0.12312134959E+02  0.10619073590E+03  0.11017441837E+03  0.41800000000E+01 0.  1.
         -5    1    1    2    0  502 -0.81752650279E+02 -0.27943633084E+01  0.13597395231E+04  0.13622042238E+04  0.41800000000E+01 0.  1.
        -11    1    3    3    0    0  0.72525104484E+02 -0.93632236433E+01  0.25345762326E+03  0.26379599604E+03  0.00000000000E+00 0.  1.
         11    1    3    3    0    0 -0.17094859208E+02  0.24469721910E+02  0.49258506020E+02  0.57596891557E+02  0.00000000000E+00 0. -1.
</event>
<event>
 7    1  0.4274778E-006  0.8073019E+02  0.7561462E-02  0.1326992E+00
         -1   -1    0    0    0  501 -0.00000000000E+00  0.00000000000E+00  0.61503952930E+03  0.61503952930E+03  0.00000000000E+00 0.  1.
          1   -1    0    0  501    0  0.00000000000E+00 -0.00000000000E+00 -0.26589121979E+02  0.26589121979E+02  0.00000000000E+00 0. -1.
         23    2    1    2    0    0  0.32279551861E+02  0.38910142109E+02  0.14783262519E+03  0.18081769733E+03  0.91019700989E+02 0.  0.
          5    1    1    2  502    0 -0.41346873438E+02 -0.34111493901E+02  0.62138051790E+02  0.82169141650E+02  0.41800000000E+01 0. -1.
         -5    1    1    2    0  502  0.90673215776E+01 -0.47986482072E+01  0.37847973034E+03  0.37864181230E+03  0.41800000000E+01 0. -1.
        -11    1    3    3    0    0  0.53372708194E+02  0.11725196718E+01  0.47073742004E+02  0.71175543332E+02  0.00000000000E+00 0.  1.
         11    1    3    3    0    0 -0.21093156333E+02  0.37737622437E+02  0.10075888319E+03  0.10964215400E+03  0.00000000000E+00 0. -1.
</event>
<event>
 7    1  0.4274778E-006  0.1366490E+03  0.7561462E-02  0.1217910E+00
         -1   -1    0    0    0  501 -0.00000000000E+00  0.00000000000E+00  0.29844477335E+03  0.29844477335E+03  0.00000000000E+00 0.  1.
          1   -1    0    0  501    0  0.00000000000E+00 -0.00000000000E+00 -0.82908191785E+02  0.82908191785E+02  0.00000000000E+00 0. -1.
         23    2    1    2    0    0  0.49100556459E+01 -0.11059600066E+03  0.48769867014E+02  0.15133771737E+03  0.90934156188E+02 0.  0.
          5    1    1    2  502    0  0.35479966348E+02  0.42181471524E+00  0.67020144439E+02  0.75948522700E+02  0.41800000000E+01 0. -1.
         -5    1    1    2    0  502 -0.40390021993E+02  0.11017418594E+03  0.99746570108E+02  0.15406672507E+03  0.41800000000E+01 0.  1.
        -11    1    3    3    0    0 -0.10656098478E+02 -0.25068080738E+01  0.40350795143E+02  0.41809367254E+02  0.00000000000E+00 0.  1.
         11    1    3    3    0    0  0.15566154124E+02 -0.10808919258E+03  0.84190718713E+01  0.10952835011E+03  0.00000000000E+00 0. -1.
</event>
<event>
 7    1  0.4274778E-006  0.1213269E+03  0.7561462E-02  0.1240924E+00
          2   -1    0    0  501    0  0.00000000000E+00  0.00000000000E+00  0.49481918914E+03  0.49481918914E+03  0.00000000000E+00 0. -1.
         -2   -1    0    0    0  501 -0.00000000000E+00 -0.00000000000E+00 -0.30744323519E+02  0.30744323519E+02  0.00000000000E+00 0.  1.
         23    2    1    2    0    0 -0.51473075871E+02 -0.31863340370E+02  0.20939943791E+03  0.23550996706E+03  0.89174379671E+02 0.  0.
          5    1    1    2  502    0  0.84941480094E+02  0.49347252355E+02  0.15697175660E+03  0.18522367863E+03  0.41800000000E+01 0. -1.
         -5    1    1    2    0  502 -0.33468404223E+02 -0.17483911985E+02  0.97703671104E+02  0.10482986696E+03  0.41800000000E+01 0. -1.
        -11    1    3    3    0    0 -0.55972050040E+02 -0.57538839560E+02  0.14005319683E+03  0.16142641168E+03  0.00000000000E+00 0.  1.
         11    1    3    3    0    0  0.44989741689E+01  0.25675499190E+02  0.69346241077E+02  0.74083555387E+02  0.00000000000E+00 0. -1.
</event>
<event>
 7    1  0.4274778E-006  0.9301405E+02  0.7561462E-02  0.1295713E+00
         -3   -1    0    0    0  501 -0.00000000000E+00  0.00000000000E+00  0.47374314105E+02  0.47374314105E+02  0.00000000000E+00 0.  1.
          3   -1    0    0  501    0  0.00000000000E+00 -0.00000000000E+00 -0.33711719135E+03  0.33711719135E+03  0.00000000000E+00 0. -1.
         23    2    1    2    0    0  0.57796573473E+02  0.88587115155E+01 -0.16908796598E+03  0.20112218751E+03  0.91872049040E+02 0.  0.
          5    1    1    2  502    0 -0.57345388728E+02 -0.35861468248E+02 -0.13605797021E+03  0.15199928346E+03  0.41800000000E+01 0.  1.
         -5    1    1    2    0  502 -0.45118474560E+00  0.27002756732E+02  0.15403058947E+02  0.31370034487E+02  0.41800000000E+01 0.  1.
        -11    1    3    3    0    0  0.51034840269E+02 -0.24703282128E+02 -0.44966854769E+02  0.72365911153E+02  0.00000000000E+00 0.  1.
         11    1    3    3    0    0  0.67617332045E+01  0.33561993643E+02 -0.12412111121E+03  0.12875627636E+03  0.00000000000E+00 0. -1.
</event>
<event>
 7    1  0.4274778E-006  0.1135384E+03  0.7561462E-02  0.1254154E+00
         -3   -1    0    0    0  501 -0.00000000000E+00  0.00000000000E+00  0.96316106794E+02  0.96316106794E+02  0.00000000000E+00 0.  1.
          3   -1    0    0  501    0  0.00000000000E+00 -0.00000000000E+00 -0.18972642375E+03  0.18972642375E+03  0.00000000000E+00 0. -1.
         23    2    1    2    0    0  0.18491911069E+02  0.55138345149E+02 -0.10055956696E+03  0.14791154048E+03  0.91560960115E+02 0.  0.
          5    1    1    2  502    0  0.31826632111E+01 -0.85318166975E+02 -0.24740338667E+02  0.88988065034E+02  0.41800000000E+01 0. -1.
         -5    1    1    2    0  502 -0.21674574280E+02  0.30179821826E+02  0.31889588672E+02  0.49142925038E+02  0.41800000000E+01 0. -1.
        -11    1    3    3    0    0  0.41234681750E+02  0.66911410860E+02 -0.55961997256E+02  0.96484097234E+02  0.00000000000E+00 0. -1.
         11    1    3    3    0    0 -0.22742770680E+02 -0.11773065711E+02 -0.44597569708E+02  0.51427443241E+02  0.00000000000E+00 0.  1.
</event>
<event>
 7    1  0.4274778E-006  0.9712457E+02  0.7561462E-02  0.1286461E+00
         -2   -1    0    0    0  501 -0.00000000000E+00  0.00000000000E+00  0.33163939508E+02  0.33163939508E+02  0.00000000000E+00 0.  1.
          2   -1    0    0  501    0  0.00000000000E+00 -0.00000000000E+00 -0.49028221679E+03  0.49028221679E+03  0.00000000000E+00 0. -1.
         23    2    1    2    0    0  0.29899881002E+02  0.34597623885E+02 -0.30345108474E+03  0.32009109727E+03  0.91020608992E+02 0.  0.
          5    1    1    2  502    0 -0.60967569123E+02 -0.57231328133E+02 -0.13846306935E+03  0.16180841566E+03  0.41800000000E+01 0.  1.
         -5    1    1    2    0  502  0.31067688121E+02  0.22633704248E+02 -0.15204123199E+02  0.41546643371E+02  0.41800000000E+01 0.  1.
        -11    1    3    3    0    0  0.15157945603E+02 -0.14268818039E+02 -0.11641843150E+02  0.23851519764E+02  0.00000000000E+00 0.  1.
         11    1    3    3    0    0  0.14741935399E+02  0.48866441924E+02 -0.29180924159E+03  0.29623957750E+03  0.00000000000E+00 0. -1.
</event>
<event>
 7    1  0.4274778E-006  0.2554608E+03  0.7561462E-02  0.1109902E+00
         -1   -1    0    0    0  501 -0.00000000000E+00  0.00000000000E+00  0.63763034845E+02  0.63763034845E+02  0.00000000000E+00 0.  1.
          1   -1    0    0  501    0  0.00000000000E+00 -0.00000000000E+00 -0.10900204340E+04  0.10900204340E+04  0.00000000000E+00 0. -1.
         23    2    1    2    0    0  0.18294417710E+03 -0.15589967552E+03 -0.51015174067E+03  0.57087170382E+03  0.88692857386E+02 0.  0.
          5    1    1    2  502    0 -0.33022624522E+02  0.10652133758E+03 -0.24400085805E+03  0.26831172211E+03  0.41800000000E+01 0. -1.
         -5    1    1    2    0  502 -0.14992155258E+03  0.49378337931E+02 -0.27210480042E+03  0.31460004291E+03  0.41800000000E+01 0. -1.
        -11    1    3    3    0    0  0.14766103810E+03 -0.13684684382E+03 -0.33207176028E+03  0.38833296900E+03  0.00000000000E+00 0.  1.
         11    1    3    3    0    0  0.35283138995E+02 -0.19052831696E+02 -0.17807998039E+03  0.18253873482E+03  0.00000000000E+00 0. -1.
</event>
<event>
 7    1  0.4274778E-006  0.9870573E+02  0.7561462E-02  0.1283041E+00
         -1   -1    0    0    0  501 -0.00000000000E+00  0.00000000000E+00  0.15382671449E+03  0.15382671449E+03  0.00000000000E+00 0.  1.
          1   -1    0    0  501    0  0.00000000000E+00 -0.00000000000E+00 -0.12952495760E+03  0.12952495760E+03  0.00000000000E+00 0. -1.
         23    2    1    2    0    0 -0.39813376398E+02  0.45944338287E+02 -0.55551828247E+02  0.12297657130E+03  0.91330412816E+02 0.  0.
          5    1    1    2  502    0  0.55583460736E+02  0.36307463789E+01 -0.97277940495E+01  0.56699257524E+02  0.41800000000E+01 0.  1.
         -5    1    1    2    0  502 -0.15770084338E+02 -0.49575084666E+02  0.89581379191E+02  0.10367584327E+03  0.41800000000E+01 0.  1.
        -11    1    3    3    0    0 -0.48783932848E+02  0.68625592578E+01  0.58825132295E+01  0.49614219590E+02  0.00000000000E+00 0.  1.
         11    1    3    3    0    0  0.89705564494E+01  0.39081779030E+02 -0.61434341476E+02  0.73362351705E+02  0.00000000000E+00 0. -1.
</event>
<event>
 7    1  0.4274778E-006  0.1675763E+03  0.7561462E-02  0.1180399E+00
         -2   -1    0    0    0  501 -0.00000000000E+00  0.00000000000E+00  0.13706699229E+03  0.13706699229E+03  0.00000000000E+00 0.  1.
          2   -1    0    0  501    0  0.00000000000E+00 -0.00000000000E+00 -0.27993571449E+03  0.27993571449E+03  0.00000000000E+00 0. -1.
         23    2    1    2    0    0 -0.10656596293E+03 -0.11249563771E+03 -0.12662583292E+03  0.21719586844E+03  0.84429679274E+02 0.  0.
          5    1    1    2  502    0  0.10158798807E+03  0.71592872439E+02  0.39399092782E+02  0.13044316623E+03  0.41800000000E+01 0. -1.
         -5    1    1    2    0  502  0.49779748616E+01  0.40902765273E+02 -0.55641982060E+02  0.69363672108E+02  0.41800000000E+01 0. -1.
        -11    1    3    3    0    0 -0.20139681554E+02 -0.70454737941E+02 -0.85645036319E+02  0.11271445833E+03  0.00000000000E+00 0.  1.
         11    1    3    3    0    0 -0.86426281380E+02 -0.42040899771E+02 -0.40980796602E+02  0.10448141010E+03  0.00000000000E+00 0. -1.
</event>
<event>
 7    1  0.4274778E-006  0.1047738E+03  0.7561462E-02  0.1270566E+00
          2   -1    0    0  501    0  0.00000000000E+00  0.00000000000E+00  0.85435291456E+02  0.85435291456E+02  0.00000000000E+00 0. -1.
         -2   -1    0    0    0  501 -0.00000000000E+00 -0.00000000000E+00 -0.13680228157E+03  0.13680228157E+03  0.00000000000E+00 0.  1.
         23    2    1    2    0    0 -0.56275877241E+01 -0.18635541837E+02  0.29853562708E+01  0.84467272582E+02  0.82139239236E+02 0.  0.
          5    1    1    2  502    0  0.64839169601E+02  0.15348530256E+02 -0.23390017051E+02  0.70740798647E+02  0.41800000000E+01 0.  1.
         -5    1    1    2    0  502 -0.59211581877E+02  0.32870115803E+01 -0.30962329337E+02  0.67029501799E+02  0.41800000000E+01 0.  1.
        -11    1    3    3    0    0 -0.39417981482E+02 -0.27906686536E+02  0.83707877331E+01  0.49016634980E+02  0.00000000000E+00 0.  1.
         11    1    3    3    0    0  0.33790393758E+02  0.92711446997E+01 -0.53854314623E+01  0.35450637602E+02  0.00000000000E+00 0. -1.
</event>
<event>
 7    1  0.4274778E-006  0.2102365E+03  0.7561462E-02  0.1141379E+00
         -2   -1    0    0    0  501 -0.00000000000E+00  0.00000000000E+00  0.74943092141E+02  0.74943092141E+02  0.00000000000E+00 0.  1.
          2   -1    0    0  501    0  0.00000000000E+00 -0.00000000000E+00 -0.65527362728E+03  0.65527362728E+03  0.00000000000E+00 0. -1.
         23    2    1    2    0    0 -0.16249715812E+02 -0.19229871281E+03 -0.27261317352E+03  0.34605502307E+03  0.90516785206E+02 0.  0.
          5    1    1    2  502    0 -0.42145128113E+02  0.13261228597E+03 -0.14374907610E+03  0.20010871918E+03  0.41800000000E+01 0. -1.
         -5    1    1    2    0  502  0.58394843925E+02  0.59686426847E+02 -0.16396828552E+03  0.18405297717E+03  0.41800000000E+01 0. -1.
        -11    1    3    3    0    0  0.63728287234E+01 -0.14587400967E+03 -0.25034670130E+03  0.28981599420E+03  0.00000000000E+00 0. -1.
         11    1    3    3    0    0 -0.22622544535E+02 -0.46424703145E+02 -0.22266472218E+02  0.56239028871E+02  0.00000000000E+00 0.  1.
</event>
<event>
 7    1  0.4274778E-006  0.1416149E+03  0.7561462E-02  0.1211172E+00
         -2   -1    0    0    0  501 -0.00000000000E+00  0.00000000000E+00  0.60866839246E+03  0.60866839246E+03  0.00000000000E+00 0.  1.
          2   -1    0    0  501    0  0.00000000000E+00 -0.00000000000E+00 -0.41822930858E+02  0.41822930858E+02  0.00000000000E+00 0. -1.
         23    2    1    2    0    0 -0.11135356539E+03 -0.28906398547E+02  0.27862417466E+03  0.31590169150E+03  0.94484134044E+02 0.  0.
          5    1    1    2  502    0  0.23254680669E+02  0.45353838033E+02  0.20813846400E+03  0.21432882073E+03  0.41800000000E+01 0.  1.
         -5    1    1    2    0  502  0.88098884718E+02 -0.16447439486E+02  0.80082822937E+02  0.12026081109E+03  0.41800000000E+01 0.  1.
        -11    1    3    3    0    0 -0.12434915373E+03 -0.18488092127E+02  0.20549608233E+03  0.24090072942E+03  0.00000000000E+00 0.  1.
         11    1    3    3    0    0  0.12995588339E+02 -0.10418306420E+02  0.73128092325E+02  0.75000962075E+02  0.00000000000E+00 0. -1.
</event>
<event>
 7    1  0.4274778E-006  0.1404975E+03  0.7561462E-02  0.1212661E+00
          1   -1    0    0  501    0  0.00000000000E+00  0.00000000000E+00  0.29481986124E+03  0.29481986124E+03  0.00000000000E+00 0. -1.
         -1   -1    0    0    0  501 -0.00000000000E+00 -0.00000000000E+00 -0.78399961949E+02  0.78399961949E+02  0.00000000000E+00 0.  1.
         23    2    1    2    0    0 -0.78858757805E+02 -0.53461514537E+02  0.13522989144E+03  0.19625659066E+03  0.10560629062E+03 0.  0.
          5    1    1    2  502    0 -0.13918072746E+02 -0.28003272022E+02  0.29003480793E+02  0.42855224781E+02  0.41800000000E+01 0.  1.
         -5    1    1    2    0  502  0.92776830551E+02  0.81464786559E+02  0.52186527058E+02  0.13410800775E+03  0.41800000000E+01 0.  1.
        -11    1    3    3    0    0 -0.69817129180E+02  0.18704003276E+01  0.11884102568E+03  0.13784454762E+03  0.00000000000E+00 0. -1.
         11    1    3    3    0    0 -0.90416286246E+01 -0.55331914864E+02  0.16388865758E+02  0.58412043035E+02  0.00000000000E+00 0.  1.
</event>
<event>
 7    1  0.4274778E-006  0.1466672E+03  0.7561462E-02  0.1204629E+00
          2   -1    0    0  501    0  0.00000000000E+00  0.00000000000E+00  0.25790081436E+03  0.25790081436E+03  0.00000000000E+00 0. -1.
         -2   -1    0    0    0  501 -0.00000000000E+00 -0.00000000000E+00 -0.10515311536E+03  0.10515311536E+03  0.00000000000E+00 0.  1.
         23    2    1    2    0    0  0.60896567803E+02 -0.10325131127E+03  0.10306334351E+03  0.18281603473E+03  0.91817343298E+02 0.  0.
          5    1    1    2  502    0 -0.69081946036E+00  0.10951516248E+03  0.15763737371E+02  0.11072495591E+03  0.41800000000E+01 0.  1.
         -5    1    1    2    0  502 -0.60205748342E+02 -0.62638512145E+01  0.33920618126E+02  0.69512939080E+02  0.41800000000E+01 0.  1.
        -11    1    3    3    0    0  0.12895123260E+02 -0.48795492809E+02  0.97773703548E+02  0.11003172919E+03  0.00000000000E+00 0. -1.
         11    1    3    3    0    0  0.48001444542E+02 -0.54455818458E+02  0.52896399581E+01  0.72784305540E+02  0.00000000000E+00 0.  1.
</event>
<event>
 7    1  0.4274778E-006  0.1071939E+03  0.7561462E-02  0.1265856E+00
         -2   -1    0    0    0  501 -0.00000000000E+00  0.00000000000E+00  0.13639306881E+03  0.13639306881E+03  0.00000000000E+00 0.  1.
          2   -1    0    0  501    0  0.00000000000E+00 -0.00000000000E+00 -0.12830416749E+03  0.12830416749E+03  0.00000000000E+00 0. -1.
         23    2    1    2    0    0 -0.14676559646E+02 -0.12524660374E+02 -0.69918976272E+02  0.11601931436E+03  0.90551364107E+02 0.  0.
          5    1    1    2  502    0 -0.39913528452E+02  0.46985139452E+02  0.40854081976E+02  0.74075782121E+02  0.41800000000E+01 0. -1.
         -5    1    1    2    0  502  0.54590088097E+02 -0.34460479078E+02  0.37153795612E+02  0.74602139816E+02  0.41800000000E+01 0. -1.
        -11    1    3    3    0    0 -0.31858025100E+02 -0.42643398311E+02 -0.59451647495E+02  0.79799069998E+02  0.00000000000E+00 0.  1.
         11    1    3    3    0    0  0.17181465454E+02  0.30118737937E+02 -0.10467328778E+02  0.36220244364E+02  0.00000000000E+00 0. -1.
</event>
<event>
 7    1  0.4274778E-006  0.8225051E+02  0.7561462E-02  0.1322783E+00
          3   -1    0    0  501    0  0.00000000000E+00  0.00000000000E+00  0.51588695221E+02  0.51588695221E+02  0.00000000000E+00 0. -1.
         -3   -1    0    0    0  501 -0.00000000000E+00 -0.00000000000E+00 -0.23712810601E+03  0.23712810601E+03  0.00000000000E+00 0.  1.
         23    2    1    2    0    0  0.78026338491E+00  0.11481271179E+02 -0.51912150297E+02  0.10531477408E+03  0.90906005807E+02 0.  0.
          5    1    1    2  502    0 -0.44426103797E+02 -0.42029736448E+02 -0.10789141612E+03  0.12408951413E+03  0.41800000000E+01 0.  1.
         -5    1    1    2    0  502  0.43645840412E+02  0.30548465269E+02 -0.25735844371E+02  0.59312513023E+02  0.41800000000E+01 0.  1.
        -11    1    3    3    0    0 -0.91907170775E+01 -0.17143373825E+02  0.19618375616E+02  0.27626892846E+02  0.00000000000E+00 0. -1.
         11    1    3    3    0    0  0.99709804624E+01  0.28624645004E+02 -0.71530525913E+02  0.77687881232E+02  0.00000000000E+00 0.  1.
</event>
<event>
 7    1  0.4274778E-006  0.9241912E+02  0.7561462E-02  0.1297097E+00
         -2   -1    0    0    0  501 -0.00000000000E+00  0.00000000000E+00  0.32036238332E+02  0.32036238332E+02  0.00000000000E+00 0.  1.
          2   -1    0    0  501    0  0.00000000000E+00 -0.00000000000E+00 -0.43741820944E+03  0.43741820944E+03  0.00000000000E+00 0. -1.
         23    2    1    2    0    0 -0.34429398101E+02 -0.25108181375E+02 -0.18217565247E+03  0.21044029514E+03  0.96339738645E+02 0.  0.
          5    1    1    2  502    0  0.36968206709E+02  0.47456060788E+02 -0.35614931228E+02  0.70033004642E+02  0.41800000000E+01 0.  1.
         -5    1    1    2    0  502 -0.25388086084E+01 -0.22347879413E+02 -0.18759138741E+03  0.18898114798E+03  0.41800000000E+01 0.  1.
        -11    1    3    3    0    0 -0.63990067841E+02 -0.17986969719E+01 -0.86393339963E+02  0.10752568662E+03  0.00000000000E+00 0. -1.
         11    1    3    3    0    0  0.29560669741E+02 -0.23309484403E+02 -0.95782312502E+02  0.10291460852E+03  0.00000000000E+00 0.  1.
</event>
<event>
 7    1  0.4274778E-006  0.1000146E+03  0.7561462E-02  0.1280265E+00
         -1   -1    0    0    0  501 -0.00000000000E+00  0.00000000000E+00  0.66913036327E+02  0.66913036327E+02  0.00000000000E+00 0.  1.
          1   -1    0    0  501    0  0.00000000000E+00 -0.00000000000E+00 -0.50566595896E+03  0.50566595896E+03  0.00000000000E+00 0. -1.
         23    2    1    2    0    0  0.32689600111E+02 -0.67625624495E+02 -0.40800872506E+03  0.42454767108E+03  0.90154147132E+02 0.  0.
          5    1    1    2  502    0 -0.94865983856E+01  0.71921091091E+02 -0.70736252103E+02  0.10140872080E+03  0.41800000000E+01 0. -1.
         -5    1    1    2    0  502 -0.23203001725E+02 -0.42954665962E+01  0.39992054537E+02  0.46622603407E+02  0.41800000000E+01 0.  1.
        -11    1    3    3    0    0  0.17938402187E+02  0.12541112203E+02 -0.26222337824E+02  0.34156650440E+02  0.00000000000E+00 0.  1.
         11    1    3    3    0    0  0.14751197924E+02 -0.80166736698E+02 -0.38178638724E+03  0.39039102064E+03  0.00000000000E+00 0. -1.
</event>
<event>
 7    1  0.4274778E-006  0.1276632E+03  0.7561462E-02  0.1230965E+00
         -2   -1    0    0    0  501 -0.00000000000E+00  0.00000000000E+00  0.14120342494E+03  0.14120342494E+03  0.00000000000E+00 0.  1.
          2   -1    0    0  501    0  0.00000000000E+00 -0.00000000000E+00 -0.21266629965E+03  0.21266629965E+03  0.00000000000E+00 0. -1.
         23    2    1    2    0    0 -0.33734385224E+02  0.11317824654E+03 -0.10016386719E+03  0.17946396102E+03  0.90703852050E+02 0.  0.
          5    1    1    2  502    0  0.42165364336E+02 -0.72343951993E+02  0.74622208884E+02  0.11223863773E+03  0.41800000000E+01 0.  1.
         -5    1    1    2    0  502 -0.84309791121E+01 -0.40834294549E+02 -0.45921216404E+02  0.62167125847E+02  0.41800000000E+01 0.  1.
        -11    1    3    3    0    0  0.11282178284E+02  0.48642278564E+01  0.11997477245E+02  0.17172295121E+02  0.00000000000E+00 0.  1.
         11    1    3    3    0    0 -0.45016563508E+02  0.10831401869E+03 -0.11216134444E+03  0.16229166590E+03  0.00000000000E+00 0. -1.
</event>
<event>
 7    1  0.4274778E-006  0.9115752E+02  0.7561462E-02  0.1300073E+00
         -1   -1    0    0    0  501 -0.00000000000E+00  0.00000000000E+00  0.16457831203E+03  0.16457831203E+03  0.00000000000E+00 0.  1.
          1   -1    0    0  501    0  0.00000000000E+00 -0.00000000000E+00 -0.10004596305E+03  0.10004596305E+03  0.00000000000E+00 0. -1.
         23    2    1    2    0    0  0.63432876447E+01 -0.50538597166E+02 -0.18044462618E+02  0.10631664189E+03  0.91560027364E+02 0.  0.
          5    1    1    2  502    0 -0.24526906579E+02  0.68334223794E+02  0.97508565998E+00  0.72729350884E+02  0.41800000000E+01 0.  1.
         -5    1    1    2    0  502  0.18183618935E+02 -0.17795626628E+02  0.81601725942E+02  0.85578282300E+02  0.41800000000E+01 0.  1.
        -11    1    3    3    0    0  0.24141122879E+02  0.57134539990E+01  0.23488653098E+02  0.34163638489E+02  0.00000000000E+00 0.  1.
         11    1    3    3    0    0 -0.17797835234E+02 -0.56252051165E+02 -0.41533115715E+02  0.72153003405E+02  0.00000000000E+00 0. -1.
</event>
<event>
 7    1  0.8015509E-006  0.1878675E+03  0.7561462E-02  0.1160399E+00
          2   -1    0    0  501    0  0.00000000000E+00  0.00000000000E+00  0.17966852081E+04  0.17966852081E+04  0.00000000000E+00 0. -1.
         -2   -1    0    0    0  501 -0.00000000000E+00 -0.00000000000E+00 -0.20760147940E+02  0.20760147940E+02  0.00000000000E+00 0.  1.
         23    2    1    2    0    0 -0.89085053612E+02  0.13060251279E+03  0.94764380712E+03  0.96498364552E+03  0.90396282140E+02 0.  0.
          5    1    1    2  502    0  0.11417477981E+03 -0.88673741968E+02  0.70699930265E+03  0.72164007594E+03  0.41800000000E+01 0. -1.
         -5    1    1    2    0  502 -0.25089726197E+02 -0.41928770822E+02  0.12128195040E+03  0.13082163458E+03  0.41800000000E+01 0. -1.
        -11    1    3    3    0    0 -0.94065640692E+01  0.93854885704E+02  0.50133488267E+03  0.51013124546E+03  0.00000000000E+00 0.  1.
         11    1    3    3    0    0 -0.79678489543E+02  0.36747627086E+02  0.44630892445E+03  0.45485240005E+03  0.00000000000E+00 0. -1.
</event>
<event>
 7    1  0.4274778E-006  0.9400378E+02  0.7561462E-02  0.1293436E+00
          1   -1    0    0  501    0  0.00000000000E+00  0.00000000000E+00  0.44227572154E+02  0.44227572154E+02  0.00000000000E+00 0. -1.
         -1   -1    0    0    0  501 -0.00000000000E+00 -0.00000000000E+00 -0.47196155972E+03  0.47196155972E+03  0.00000000000E+00 0.  1.
         23    2    1    2    0    0 -0.58331737525E+02  0.43285845697E+02 -0.19497271582E+03  0.22751782051E+03  0.92052934196E+02 0.  0.
          5    1    1    2  502    0  0.10914219114E+02  0.46677080386E+01  0.21867419792E+02  0.25230222463E+02  0.41800000000E+01 0. -1.
         -5    1    1    2    0  502  0.47417518412E+02 -0.47953553736E+02 -0.25462869154E+03  0.26344108890E+03  0.41800000000E+01 0.  1.
        -11    1    3    3    0    0 -0.78529765360E+02  0.32902920654E+02 -0.10744093363E+03  0.13708785670E+03  0.00000000000E+00 0.  1.
         11    1    3    3    0    0  0.20198027835E+02  0.10382925043E+02 -0.87531782197E+02  0.90429963814E+02  0.00000000000E+00 0. -1.
</event>
<event>
 7    1  0.4274778E-006  0.1725417E+03  0.7561462E-02  0.1175223E+00
          3   -1    0    0  501    0  0.00000000000E+00  0.00000000000E+00  0.42421794450E+03  0.42421794450E+03  0.00000000000E+00 0. -1.
         -3   -1    0    0    0  501 -0.00000000000E+00 -0.00000000000E+00 -0.79484163410E+02  0.79484163410E+02  0.00000000000E+00 0.  1.
         23    2    1    2    0    0 -0.46256248561E+02 -0.13594884885E+03  0.21389954415E+03  0.27264435454E+03  0.89219947548E+02 0.  0.
          5    1    1    2  502    0  0.77673532394E+02  0.13458846142E+03  0.90971117381E+02  0.18011232101E+03  0.41800000000E+01 0. -1.
         -5    1    1    2    0  502 -0.31417283833E+02  0.13603874289E+01  0.39863119560E+02  0.50945432361E+02  0.41800000000E+01 0. -1.
        -11    1    3    3    0    0 -0.30209020291E+02 -0.11332345422E+02  0.11183548612E+02  0.34147894800E+02  0.00000000000E+00 0.  1.
         11    1    3    3    0    0 -0.16047228270E+02 -0.12461650343E+03  0.20271599554E+03  0.23849645974E+03  0.00000000000E+00 0. -1.
</event>
<event>
 7    1  0.4274778E-006  0.9567958E+02  0.7561462E-02  0.1289653E+00
          4   -1    0    0  501    0  0.00000000000E+00  0.00000000000E+00  0.19448224125E+02  0.19448224125E+02  0.00000000000E+00 0. -1.
         -4   -1    0    0    0  501 -0.00000000000E+00 -0.00000000000E+00 -0.74418705648E+03  0.74418705648E+03  0.00000000000E+00 0.  1.
         23    2    1    2    0    0  0.71213789035E+01  0.51720627443E+02 -0.29885895628E+03  0.31670420650E+03  0.90879818033E+02 0.  0.
          5    1    1    2  502    0  0.13527048039E+01  0.17870433929E+02 -0.34750408354E+01  0.18727800936E+02  0.41800000000E+01 0. -1.
         -5    1    1    2    0  502 -0.84740837074E+01 -0.69591061373E+02 -0.42240483524E+03  0.42820327317E+03  0.41800000000E+01 0. -1.
        -11    1    3    3    0    0  0.18921015333E+02 -0.21454874760E+02 -0.57538085187E+02  0.64256888496E+02  0.00000000000E+00 0.  1.
         11    1    3    3    0    0 -0.11799636429E+02  0.73175502203E+02 -0.24132087109E+03  0.25244731801E+03  0.00000000000E+00 0. -1.
</event>
<event>
 7    1  0.4274778E-006  0.7797731E+02  0.7561462E-02  0.1334892E+00
         -1   -1    0    0    0  501 -0.00000000000E+00  0.00000000000E+00  0.59021082124E+02  0.59021082124E+02  0.00000000000E+00 0.  1.
          1   -1    0    0  501    0  0.00000000000E+00 -0.00000000000E+00 -0.24234113504E+03  0.24234113504E+03  0.00000000000E+00 0. -1.
         23    2    1    2    0    0 -0.33243240582E+02 -0.22384122199E+02 -0.11627270098E+03  0.15387915290E+03  0.92484002575E+02 0.  0.
          5    1    1    2  502    0 -0.12707483902E+02 -0.18216422857E+02  0.26952366298E+02  0.35174147578E+02  0.41800000000E+01 0. -1.
         -5    1    1    2    0  502  0.45950724484E+02  0.40600545056E+02 -0.93999718240E+02  0.11230891669E+03  0.41800000000E+01 0. -1.
        -11    1    3    3    0    0  0.10206667193E+02  0.12525265460E+02  0.77410918317E+01  0.17915993771E+02  0.00000000000E+00 0.  1.
         11    1    3    3    0    0 -0.43449907775E+02 -0.34909387660E+02 -0.12401379281E+03  0.13596315912E+03  0.00000000000E+00 0. -1.
</event>
<event>
 7    1  0.4274778E-006  0.1420596E+03  0.7561462E-02  0.1210584E+00
          1   -1    0    0  501    0  0.00000000000E+00  0.00000000000E+00  0.23481815092E+03  0.23481815092E+03  0.00000000000E+00 0. -1.
         -1   -1    0    0    0  501 -0.00000000000E+00 -0.00000000000E+00 -0.10145575606E+03  0.10145575606E+03  0.00000000000E+00 0.  1.
         23    2    1    2    0    0  0.10197237397E+03  0.22756739061E+02  0.99288931961E+02  0.16977524619E+03  0.89716821080E+02 0.  0.
          5    1    1    2  502    0 -0.15213409579E+02  0.46750207518E+02  0.23793700815E+02  0.54778119103E+02  0.41800000000E+01 0.  1.
         -5    1    1    2    0  502 -0.86758964387E+02 -0.69506946578E+02  0.10279762083E+02  0.11172054168E+03  0.41800000000E+01 0.  1.
        -11    1    3    3    0    0  0.44458903528E+02  0.43684463498E+02  0.12489275075E+02  0.63568140180E+02  0.00000000000E+00 0.  1.
         11    1    3    3    0    0  0.57513470438E+02 -0.20927724438E+02  0.86799656886E+02  0.10620710601E+03  0.00000000000E+00 0. -1.
</event>
<event>
 7    1  0.4274778E-006  0.1372009E+03  0.7561462E-02  0.1217146E+00
         -3   -1    0    0    0  501 -0.00000000000E+00  0.00000000000E+00  0.11693555397E+03  0.11693555397E+03  0.00000000000E+00 0.  1.
          3   -1    0    0  501    0  0.00000000000E+00 -0.00000000000E+00 -0.20932070497E+03  0.20932070497E+03  0.00000000000E+00 0. -1.
         23    2    1    2    0    0  0.71632394434E+02 -0.63493150623E+02 -0.10012637810E+03  0.16855443464E+03  0.96035023491E+02 0.  0.
          5    1    1    2  502    0 -0.10080128583E+03  0.71486988948E+02 -0.69015891576E+01  0.12384019197E+03  0.41800000000E+01 0. -1.
         -5    1    1    2    0  502  0.29168891399E+02 -0.79938383249E+01  0.14642816256E+02  0.33861632337E+02  0.41800000000E+01 0. -1.
        -11    1    3    3    0    0  0.82959770758E+02 -0.68740427253E+02 -0.53509169711E+02  0.12029464305E+03  0.00000000000E+00 0.  1.
         11    1    3    3    0    0 -0.11327376325E+02  0.52472766296E+01 -0.46617208387E+02  0.48259791590E+02  0.00000000000E+00 0. -1.
</event>
<event>
 7    1  0.4274778E-006  0.1106675E+03  0.7561462E-02  0.1259339E+00
          1   -1    0    0  501    0  0.00000000000E+00  0.00000000000E+00  0.20545209497E+03  0.20545209497E+03  0.00000000000E+00 0. -1.
         -1   -1    0    0    0  501 -0.00000000000E+00 -0.00000000000E+00 -0.78657424856E+02  0.78657424856E+02  0.00000000000E+00 0.  1.
         23    2    1    2    0    0 -0.32239017070E+02  0.50210530009E+01  0.11303836771E+03  0.15410374422E+03  0.99527514859E+02 0.  0.
          5    1    1    2  502    0  0.70488764250E+02  0.26563389120E+02  0.24026060227E+02  0.79177038951E+02  0.41800000000E+01 0.  1.
         -5    1    1    2    0  502 -0.38249747180E+02 -0.31584442121E+02 -0.10269757826E+02  0.50828736648E+02  0.41800000000E+01 0.  1.
        -11    1    3    3    0    0 -0.43413999844E+02  0.40219569947E+02  0.97462853061E+02  0.11402366823E+03  0.00000000000E+00 0. -1.
         11    1    3    3    0    0  0.11174982774E+02 -0.35198516946E+02  0.15575514649E+02  0.40080075995E+02  0.00000000000E+00 0.  1.
</event>
<event>
 7    1  0.4274778E-006  0.1118659E+03  0.7561462E-02  0.1257153E+00
         -1   -1    0    0    0  501 -0.00000000000E+00  0.00000000000E+00  0.31628994723E+03  0.31628994723E+03  0.00000000000E+00 0.  1.
          1   -1    0    0  501    0  0.00000000000E+00 -0.00000000000E+00 -0.54068735700E+02  0.54068735700E+02  0.00000000000E+00 0. -1.
         23    2    1    2    0    0  0.27693140095E+02 -0.41168209024E+02  0.40497205740E+02  0.11099489023E+03  0.90653794967E+02 0.  0.
          5    1    1    2  502    0 -0.41310181293E+02 -0.32139540109E+02  0.13537647695E+03  0.14520242432E+03  0.41800000000E+01 0.  1.
         -5    1    1    2    0  502  0.13617041198E+02  0.73307749134E+02  0.86347528846E+02  0.11416136839E+03  0.41800000000E+01 0.  1.
        -11    1    3    3    0    0  0.39494299486E+02 -0.61469762065E+02  0.11956782123E+02  0.74035774994E+02  0.00000000000E+00 0. -1.
         11    1    3    3    0    0 -0.11801159391E+02  0.20301553041E+02  0.28540423616E+02  0.36959115236E+02  0.00000000000E+00 0.  1.
</event>
<event>
 7    1  0.4274778E-006  0.1125390E+03  0.7561462E-02  0.1255939E+00
          2   -1    0    0  501    0  0.00000000000E+00  0.00000000000E+00  0.76112758714E+02  0.76112758714E+02  0.00000000000E+00 0.  1.
         -2   -1    0    0    0  501 -0.00000000000E+00 -0.00000000000E+00 -0.18048145683E+03  0.18048145683E+03  0.00000000000E+00 0. -1.
         23    2    1    2    0    0  0.33537068254E+02 -0.22219657908E+02 -0.23242490727E+02  0.10216611683E+03  0.90990405581E+02 0.  0.
          5    1    1    2  502    0 -0.57559149314E+02  0.61639283452E+02 -0.45140767452E+02  0.95747679974E+02  0.41800000000E+01 0.  1.
         -5    1    1    2    0  502  0.24022081060E+02 -0.39419625544E+02 -0.35985439941E+02  0.58680418746E+02  0.41800000000E+01 0.  1.
        -11    1    3    3    0    0  0.33351481820E+02  0.28316684997E+02 -0.27130177516E+02  0.51480117724E+02  0.00000000000E+00 0. -1.
         11    1    3    3    0    0  0.18558643401E+00 -0.50536342905E+02  0.38876867890E+01  0.50685999104E+02  0.00000000000E+00 0.  1.
</event>
<event>
 7    1  0.4274778E-006  0.1304924E+03  0.7561462E-02  0.1226727E+00
          1   -1    0    0  501    0  0.00000000000E+00  0.00000000000E+00  0.41546341849E+03  0.41546341849E+03  0.00000000000E+00 0. -1.
         -1   -1    0    0    0  501 -0.00000000000E+00 -0.00000000000E+00 -0.52014901300E+02  0.52014901300E+02  0.00000000000E+00 0.  1.
         23    2    1    2    0    0  0.37424558231E+02  0.81495579056E+02  0.23316815031E+03  0.26582801300E+03  0.90857136290E+02 0.  0.
          5    1    1    2  502    0  0.36238662766E+02 -0.70417730368E+02  0.66787597576E+02  0.10368198021E+03  0.41800000000E+01 0. -1.
         -5    1    1    2    0  502 -0.73663220997E+02 -0.11077848688E+02  0.63492769310E+02  0.97968326585E+02  0.41800000000E+01 0. -1.
        -11    1    3    3    0    0  0.48754088295E+02  0.37134687171E+02  0.56611444841E+02  0.83431419764E+02  0.00000000000E+00 0.  1.
         11    1    3    3    0    0 -0.11329530064E+02  0.44360891885E+02  0.17655670546E+03  0.18239659324E+03  0.00000000000E+00 0. -1.
</event>
<event>
 7    1  0.4274778E-006  0.1126767E+03  0.7561462E-02  0.1255692E+00
         -3   -1    0    0    0  501 -0.00000000000E+00  0.00000000000E+00  0.16188385897E+03  0.16188385897E+03  0.00000000000E+00 0.  1.
          3   -1    0    0  501    0  0.00000000000E+00 -0.00000000000E+00 -0.13793708481E+03  0.13793708481E+03  0.00000000000E+00 0. -1.
         23    2    1    2    0    0  0.39519251761E+02  0.16251919180E+02 -0.77682008149E+02  0.13391429609E+03  0.10036258352E+03 0.  0.
          5    1    1    2  502    0 -0.77652596519E+02  0.53413522806E+01  0.92473335511E+02  0.12094315181E+03  0.41800000000E+01 0. -1.
         -5    1    1    2    0  502  0.38133344759E+02 -0.21593271460E+02  0.91554468056E+01  0.44963495872E+02  0.41800000000E+01 0.  1.
        -11    1    3    3    0    0 -0.10723757596E+01  0.50355764084E+02 -0.59295914961E+02  0.77800118877E+02  0.00000000000E+00 0.  1.
         11    1    3    3    0    0  0.40591627520E+02 -0.34103844904E+02 -0.18386093188E+02  0.56114177217E+02  0.00000000000E+00 0. -1.
</event>
<event>
 7    1  0.4274778E-006  0.1020128E+03  0.7561462E-02  0.1276119E+00
         -1   -1    0    0    0  501 -0.00000000000E+00  0.00000000000E+00  0.49132169443E+02  0.49132169443E+02  0.00000000000E+00 0.  1.
          1   -1    0    0  501    0  0.00000000000E+00 -0.00000000000E+00 -0.24546902557E+03  0.24546902557E+03  0.00000000000E+00 0. -1.
         23    2    1    2    0    0 -0.13901317055E+02 -0.11813507425E+02 -0.77293876374E+02  0.12095877787E+03  0.91235283987E+02 0.  0.
          5    1    1    2  502    0 -0.43502068429E+02  0.33936375498E+02 -0.23915151902E+02  0.60278639915E+02  0.41800000000E+01 0.  1.
         -5    1    1    2    0  502  0.57403385484E+02 -0.22122868073E+02 -0.95127827847E+02  0.11336377723E+03  0.41800000000E+01 0.  1.
        -11    1    3    3    0    0  0.26032595965E+02 -0.32836393561E+02 -0.58761353504E+02  0.72172165413E+02  0.00000000000E+00 0. -1.
         11    1    3    3    0    0 -0.39933913021E+02  0.21022886136E+02 -0.18532522870E+02  0.48786612452E+02  0.00000000000E+00 0.  1.
</event>
<event>
 7    1  0.4274778E-006  0.9865712E+02  0.7561462E-02  0.1283145E+00
          2   -1    0    0  501    0  0.00000000000E+00  0.00000000000E+00  0.12956982731E+02  0.12956982731E+02  0.00000000000E+00 0. -1.
         -2   -1    0    0    0  501 -0.00000000000E+00 -0.00000000000E+00 -0.11496497707E+04  0.11496497707E+04  0.00000000000E+00 0.  1.
         23    2    1    2    0    0  0.14377218836E+02 -0.28440850910E+01 -0.23729653023E+03  0.25443466019E+03  0.90623174760E+02 0.  0.
          5    1    1    2  502    0 -0.42099026183E+02  0.47018502139E+02 -0.30568401252E+03  0.31215902271E+03  0.41800000000E+01 0.  1.
         -5    1    1    2    0  502  0.27721807346E+02 -0.44174417048E+02 -0.59371224518E+03  0.59601307050E+03  0.41800000000E+01 0.  1.
        -11    1    3    3    0    0  0.12787782449E+02  0.38398323881E+02 -0.59836398825E+02  0.72238170527E+02  0.00000000000E+00 0. -1.
         11    1    3    3    0    0  0.15894363874E+01 -0.41242408972E+02 -0.17746013140E+03  0.18219648966E+03  0.00000000000E+00 0.  1.
</event>
<event>
 7    1  0.4274778E-006  0.1160366E+03  0.7561462E-02  0.1249782E+00
          1   -1    0    0  501    0  0.00000000000E+00  0.00000000000E+00  0.38611864703E+03  0.38611864703E+03  0.00000000000E+00 0. -1.
         -1   -1    0    0    0  501 -0.00000000000E+00 -0.00000000000E+00 -0.43902327083E+02  0.43902327083E+02  0.00000000000E+00 0.  1.
         23    2    1    2    0    0  0.39001409700E+02 -0.85994736137E+01  0.22883342879E+03  0.25652956727E+03  0.10884677233E+03 0.  0.
          5    1    1    2  502    0  0.34793530523E+02  0.34786894262E+02  0.63952332082E+02  0.80796602387E+02  0.41800000000E+01 0.  1.
         -5    1    1    2    0  502 -0.73794940223E+02 -0.26187420648E+02  0.49430559079E+02  0.92694804459E+02  0.41800000000E+01 0.  1.
        -11    1    3    3    0    0 -0.21534371187E+02  0.26623653709E+02  0.29319656124E+02  0.45079821588E+02  0.00000000000E+00 0.  1.
         11    1    3    3    0    0  0.60535780887E+02 -0.35223127323E+02  0.19951377266E+03  0.21144974568E+03  0.00000000000E+00 0. -1.
</event>
<event>
 7    1  0.4274778E-006  0.2002537E+03  0.7561462E-02  0.1149525E+00
          1   -1    0    0  501    0  0.00000000000E+00  0.00000000000E+00  0.79423134862E+03  0.79423134862E+03  0.00000000000E+00 0. -1.
         -1   -1    0    0    0  501 -0.00000000000E+00 -0.00000000000E+00 -0.97547067410E+02  0.97547067410E+02  0.00000000000E+00 0.  1.
         23    2    1    2    0    0 -0.36907277977E+02  0.14223190733E+03  0.59849773420E+03  0.62308940563E+03  0.91917391911E+02 0.  0.
          5    1    1    2  502    0  0.58209125896E+02  0.22385105298E+02  0.80192753654E+02  0.10167470391E+03  0.41800000000E+01 0. -1.
         -5    1    1    2    0  502 -0.21301847918E+02 -0.16461701263E+03  0.17993793358E+02  0.16701430649E+03  0.41800000000E+01 0.  1.
        -11    1    3    3    0    0  0.26112540211E+02  0.15350461431E+02  0.13833303558E+03  0.14161048745E+03  0.00000000000E+00 0.  1.
         11    1    3    3    0    0 -0.63019818189E+02  0.12688144590E+03  0.46016469862E+03  0.48147891818E+03  0.00000000000E+00 0. -1.
</event>
<event>
 7    1  0.4274778E-006  0.1503073E+03  0.7561462E-02  0.1200096E+00
          2   -1    0    0  501    0  0.00000000000E+00  0.00000000000E+00  0.33627752625E+03  0.33627752625E+03  0.00000000000E+00 0. -1.
         -2   -1    0    0    0  501 -0.00000000000E+00 -0.00000000000E+00 -0.17778312553E+03  0.17778312553E+03  0.00000000000E+00 0.  1.
         23    2    1    2    0    0  0.71393675552E+02 -0.10139355817E+03  0.26672048736E+03  0.30732742921E+03  0.89065255960E+02 0.  0.
          5    1    1    2  502    0 -0.10010256083E+03  0.97194108864E+02 -0.10946942814E+03  0.17739291299E+03  0.41800000000E+01 0. -1.
         -5    1    1    2    0  502  0.28708885275E+02  0.41994493084E+01  0.12433415041E+01  0.29340309581E+02  0.41800000000E+01 0. -1.
        -11    1    3    3    0    0  0.34489486940E+02 -0.14699980244E+02  0.18462757166E+02  0.41790998202E+02  0.00000000000E+00 0. -1.
         11    1    3    3    0    0  0.36904188612E+02 -0.86693577928E+02  0.24825773019E+03  0.26553643100E+03  0.00000000000E+00 0.  1.
</event>
<event>
 7    1  0.4274778E-006  0.1488777E+03  0.7561462E-02  0.1201859E+00
          1   -1    0    0  501    0  0.00000000000E+00  0.00000000000E+00  0.54779656878E+02  0.54779656878E+02  0.00000000000E+00 0. -1.
         -1   -1    0    0    0  501 -0.00000000000E+00 -0.00000000000E+00 -0.54484114943E+03  0.54484114943E+03  0.00000000000E+00 0.  1.
         23    2    1    2    0    0  0.43250885397E+02  0.12250983533E+03 -0.17468070552E+03  0.23631084599E+03  0.91924796485E+02 0.  0.
          5    1    1    2  502    0 -0.24187025167E+02  0.14532267324E+02 -0.14248451162E+02  0.31885572608E+02  0.41800000000E+01 0. -1.
         -5    1    1    2    0  502 -0.19063860230E+02 -0.13704210265E+03 -0.30113233587E+03  0.33142438771E+03  0.41800000000E+01 0. -1.
        -11    1    3    3    0    0  0.19382201968E+02  0.34027515546E+02 -0.12720932682E+03  0.13310054244E+03  0.00000000000E+00 0.  1.
         11    1    3    3    0    0  0.23868683429E+02  0.88482319784E+02 -0.47471378707E+02  0.10321030355E+03  0.00000000000E+00 0. -1.
</event>
<event>
 7    1  0.4274778E-006  0.9406138E+02  0.7561462E-02  0.1293304E+00
          3   -1    0    0  501    0  0.00000000000E+00  0.00000000000E+00  0.28024647970E+03  0.28024647970E+03  0.00000000000E+00 0. -1.
         -3   -1    0    0    0  501 -0.00000000000E+00 -0.00000000000E+00 -0.42878111581E+02  0.42878111581E+02  0.00000000000E+00 0.  1.
         23    2    1    2    0    0  0.16221733556E+02  0.13712640900E+02  0.98542292779E+02  0.13505305615E+03  0.89875265507E+02 0.  0.
          5    1    1    2  502    0  0.41874449139E+02  0.31757797786E+02  0.63839637892E+02  0.82794921204E+02  0.41800000000E+01 0.  1.
         -5    1    1    2    0  502 -0.58096182695E+02 -0.45470438687E+02  0.74986437443E+02  0.10527661392E+03  0.41800000000E+01 0.  1.
        -11    1    3    3    0    0  0.37797274052E+02  0.12828613646E+02  0.10515002215E+03  0.11247103810E+03  0.00000000000E+00 0. -1.
         11    1    3    3    0    0 -0.21575540496E+02  0.88402725440E+00 -0.66077293690E+01  0.22582018052E+02  0.00000000000E+00 0.  1.
</event>
<event>
 6    1  0.4274778E-006  0.1710149E+03  0.7561462E-02  0.1176794E+00
          2   -1    0    0  501    0  0.00000000000E+00  0.00000000000E+00  0.86538215035E+03  0.86538215035E+03  0.00000000000E+00 0. -1.
         -2   -1    0    0    0  501 -0.00000000000E+00 -0.00000000000E+00 -0.45239054622E+02  0.45239054622E+02  0.00000000000E+00 0.  1.
          5    1    1    2  502    0 -0.11458595972E+02 -0.41043244653E+02  0.26775764225E+02  0.50500111912E+02  0.41800000000E+01 0. -1.
         -5    1    1    2    0  502  0.14365411163E+03 -0.32432422574E+02  0.22044818547E+03  0.26514758287E+03  0.41800000000E+01 0. -1.
        -11    1    1    2    0    0 -0.57212569611E+02  0.23961974549E+02  0.14479761707E+03  0.15752397994E+03  0.00000000000E+00 0.  1.
         11    1    1    2    0    0 -0.74982946051E+02  0.49513692677E+02  0.42812152896E+03  0.43744953026E+03  0.00000000000E+00 0. -1.
</event>
<event>
 7    1  0.4274778E-006  0.1085483E+03  0.7561462E-02  0.1263282E+00
         -1   -1    0    0    0  501 -0.00000000000E+00  0.00000000000E+00  0.10272961356E+03  0.10272961356E+03  0.00000000000E+00 0.  1.
          1   -1    0    0  501    0  0.00000000000E+00 -0.00000000000E+00 -0.23637421834E+03  0.23637421834E+03  0.00000000000E+00 0. -1.
         23    2    1    2    0    0  0.62517328761E+02 -0.39182245271E+02 -0.15273523489E+03  0.19261680656E+03  0.91266190079E+02 0.  0.
          5    1    1    2  502    0 -0.75239222609E+00  0.37711489527E+02 -0.43986177787E+02  0.58094567497E+02  0.41800000000E+01 0.  1.
         -5    1    1    2    0  502 -0.61764936535E+02  0.14707557443E+01  0.63076807899E+02  0.88392457836E+02  0.41800000000E+01 0.  1.
        -11    1    3    3    0    0  0.29036493196E+02 -0.67431084980E+02 -0.10010118128E+03  0.12413829245E+03  0.00000000000E+00 0.  1.
         11    1    3    3    0    0  0.33480835565E+02  0.28248839709E+02 -0.52634053619E+02  0.68478514115E+02  0.00000000000E+00 0. -1.
</event>
<event>
 7    1  0.4274778E-006  0.1176689E+03  0.7561462E-02  0.1246993E+00
         -1   -1    0    0    0  501 -0.00000000000E+00  0.00000000000E+00  0.21479521587E+03  0.21479521587E+03  0.00000000000E+00 0.  1.
          1   -1    0    0  501    0  0.00000000000E+00 -0.00000000000E+00 -0.90282565935E+02  0.90282565935E+02  0.00000000000E+00 0. -1.
         23    2    1    2    0    0  0.76057076869E+02 -0.26004530230E+02  0.19857523320E+02  0.12325797349E+03  0.91308774292E+02 0.  0.
          5    1    1    2  502    0 -0.95127467599E+02  0.20058099456E+01  0.28176548723E+02  0.99320937688E+02  0.41800000000E+01 0. -1.
         -5    1    1    2    0  502  0.19070390730E+02  0.23998720284E+02  0.76478577891E+02  0.82498870624E+02  0.41800000000E+01 0. -1.
        -11    1    3    3    0    0  0.35541261514E+02 -0.50546693449E+02  0.37991565478E+02  0.72536256700E+02  0.00000000000E+00 0.  1.
         11    1    3    3    0    0  0.40515815355E+02  0.24542163219E+02 -0.18134042158E+02  0.50721716792E+02  0.00000000000E+00 0. -1.
</event>
<event>
 6    1  0.4274778E-006  0.1289787E+03  0.7561462E-02  0.1228979E+00
         -2   -1    0    0    0  501 -0.00000000000E+00  0.00000000000E+00  0.40573578803E+02  0.40573578803E+02  0.00000000000E+00 0.  1.
          2   -1    0    0  501    0  0.00000000000E+00 -0.00000000000E+00 -0.48065289756E+03  0.48065289756E+03  0.00000000000E+00 0. -1.
          5    1    1    2  502    0 -0.31561353377E+02  0.44348666133E+02 -0.68838223844E+02  0.87858389905E+02  0.41800000000E+01 0.  1.
         -5    1    1    2    0  502  0.55110181178E+01 -0.76045177265E+02 -0.72552347224E+02  0.10533069730E+03  0.41800000000E+01 0.  1.
        -11    1    1    2    0    0 -0.46678740727E+02  0.27451599308E+02 -0.73076423236E+02  0.90954157538E+02  0.00000000000E+00 0.  1.
         11    1    1    2    0    0  0.72729075986E+02  0.42449118239E+01 -0.22561232445E+03  0.23708323162E+03  0.00000000000E+00 0. -1.
</event>
<event>
 7    1  0.4274778E-006  0.1464457E+03  0.7561462E-02  0.1204910E+00
         -2   -1    0    0    0  501 -0.00000000000E+00  0.00000000000E+00  0.36082110584E+02  0.36082110584E+02  0.00000000000E+00 0. -1.
          2   -1    0    0  501    0  0.00000000000E+00 -0.00000000000E+00 -0.72791395310E+03  0.72791395310E+03  0.00000000000E+00 0.  1.
         23    2    1    2    0    0 -0.81138232754E+02  0.86070057497E+02 -0.37383818362E+03  0.40239079874E+03  0.90398560642E+02 0.  0.
          5    1    1    2  502    0  0.41898695169E+02  0.72281971562E+01 -0.20688154727E+03  0.21124676209E+03  0.41800000000E+01 0. -1.
         -5    1    1    2    0  502  0.39239537585E+02 -0.93298254653E+02 -0.11111211162E+03  0.15035850285E+03  0.41800000000E+01 0. -1.
        -11    1    3    3    0    0  0.12605104512E+02  0.44626784857E+02 -0.11801250340E+03  0.12679664643E+03  0.00000000000E+00 0.  1.
         11    1    3    3    0    0 -0.93743337266E+02  0.41443272640E+02 -0.25582568022E+03  0.27559415231E+03  0.00000000000E+00 0. -1.
</event>
<event>
 7    1  0.4274778E-006  0.1135796E+03  0.7561462E-02  0.1254081E+00
         -2   -1    0    0    0  501 -0.00000000000E+00  0.00000000000E+00  0.31357507898E+02  0.31357507898E+02  0.00000000000E+00 0.  1.
          2   -1    0    0  501    0  0.00000000000E+00 -0.00000000000E+00 -0.55039888485E+03  0.55039888485E+03  0.00000000000E+00 0. -1.
         23    2    1    2    0    0 -0.48741082379E+02 -0.44443462784E+02 -0.30116124971E+03  0.32200660760E+03  0.92947525571E+02 0.  0.
          5    1    1    2  502    0  0.11281520837E+02 -0.40842284308E+02 -0.10521957101E+03  0.11350768883E+03  0.41800000000E+01 0.  1.
         -5    1    1    2    0  502  0.37459561542E+02  0.85285747092E+02 -0.11266055623E+03  0.14624209633E+03  0.41800000000E+01 0.  1.
        -11    1    3    3    0    0 -0.42849031999E+02  0.35393831939E+01 -0.24111417524E+03  0.24491756220E+03  0.00000000000E+00 0. -1.
         11    1    3    3    0    0 -0.58920503801E+01 -0.47982845978E+02 -0.60047074479E+02  0.77089045391E+02  0.00000000000E+00 0.  1.
</event>
<event>
 7    1  0.4274778E-006  0.1012236E+03  0.7561462E-02  0.1277744E+00
         -2   -1    0    0    0  501 -0.00000000000E+00  0.00000000000E+00  0.61237818555E+03  0.61237818555E+03  0.00000000000E+00 0.  1.
          2   -1    0    0  501    0  0.00000000000E+00 -0.00000000000E+00 -0.20421345354E+02  0.20421345354E+02  0.00000000000E+00 0. -1.
         23    2    1    2    0    0 -0.34400399271E+02  0.99203468772E+01  0.18148654737E+03  0.20557544811E+03  0.89677741034E+02 0.  0.
          5    1    1    2  502    0 -0.26932222578E+02 -0.34500548355E+02  0.24652686249E+03  0.25041685003E+03  0.41800000000E+01 0. -1.
         -5    1    1    2    0  502  0.61332621849E+02  0.24580201478E+02  0.16394343035E+03  0.17680723277E+03  0.41800000000E+01 0.  1.
        -11    1    3    3    0    0 -0.33558948490E+02 -0.34334104013E+02  0.63844625418E+02  0.79882225288E+02  0.00000000000E+00 0. -1.
         11    1    3    3    0    0 -0.84145078181E+00  0.44254450890E+02  0.11764192195E+03  0.12569322282E+03  0.00000000000E+00 0.  1.
</event>
<event>
 7    1  0.4274778E-006  0.1259997E+03  0.7561462E-02  0.1233515E+00
          2   -1    0    0  501    0  0.00000000000E+00  0.00000000000E+00  0.11134219711E+04  0.11134219711E+04  0.00000000000E+00 0. -1.
         -2   -1    0    0    0  501 -0.00000000000E+00 -0.00000000000E+00 -0.20255258900E+02  0.20255258900E+02  0.00000000000E+00 0.  1.
         23    2    1    2    0    0 -0.36433953614E+02 -0.97311073336E+02  0.51098751886E+03  0.52921273253E+03  0.90338219350E+02 0.  0.
          5    1    1    2  502    0  0.17458252454E+02  0.92592320282E+02  0.19340949881E+03  0.21518093545E+03  0.41800000000E+01 0. -1.
         -5    1    1    2    0  502  0.18975701160E+02  0.47187530532E+01  0.38876969449E+03  0.38928356197E+03  0.41800000000E+01 0. -1.
        -11    1    3    3    0    0 -0.62540270253E+02 -0.38752815075E+02  0.27293814101E+03  0.28268055274E+03  0.00000000000E+00 0.  1.
         11    1    3    3    0    0  0.26106316639E+02 -0.58558258260E+02  0.23804937785E+03  0.24653217979E+03  0.00000000000E+00 0. -1.
</event>
<event>
 7    1  0.4274778E-006  0.6819666E+02  0.7561462E-02  0.1366335E+00
          1   -1    0    0  501    0  0.00000000000E+00  0.00000000000E+00  0.19029522660E+03  0.19029522660E+03  0.00000000000E+00 0. -1.
         -1   -1    0    0    0  501 -0.00000000000E+00 -0.00000000000E+00 -0.84036630550E+02  0.84036630550E+02  0.00000000000E+00 0.  1.
         23    2    1    2    0    0  0.92516159071E+01  0.56900702940E+02  0.80242767069E+02  0.13416095623E+03  0.90757799218E+02 0.  0.
          5    1    1    2  502    0  0.18480087201E+02 -0.37673281955E+02 -0.44855078885E+02  0.61564927499E+02  0.41800000000E+01 0. -1.
         -5    1    1    2    0  502 -0.27731703108E+02 -0.19227420985E+02  0.70870907867E+02  0.78605973417E+02  0.41800000000E+01 0. -1.
        -11    1    3    3    0    0 -0.52097138421E+01  0.13277897226E+02 -0.19604877507E+02  0.24244481746E+02  0.00000000000E+00 0.  1.
         11    1    3    3    0    0  0.14461329749E+02  0.43622805714E+02  0.99847644577E+02  0.10991647449E+03  0.00000000000E+00 0. -1.
</event>
<event>
 7    1  0.8213975E-006  0.3413445E+03  0.7561462E-02  0.1066225E+00
          2   -1    0    0  501    0  0.00000000000E+00  0.00000000000E+00  0.31160415587E+03  0.31160415587E+03  0.00000000000E+00 0. -1.
         -2   -1    0    0    0  501 -0.00000000000E+00 -0.00000000000E+00 -0.40082457877E+03  0.40082457877E+03  0.00000000000E+00 0.  1.
         23    2    1    2    0    0  0.31543283388E+03 -0.11388014536E+03 -0.62706192455E+02  0.35351730322E+03  0.92605922619E+02 0.  0.
          5    1    1    2  502    0 -0.22352763013E+03  0.94641189018E+02 -0.73737660760E+02  0.25372479403E+03  0.41800000000E+01 0.  1.
         -5    1    1    2    0  502 -0.91905203749E+02  0.19238956341E+02  0.47223430312E+02  0.10518663740E+03  0.41800000000E+01 0.  1.
        -11    1    3    3    0    0  0.97733805102E+02  0.50384686605E+01 -0.34908125013E+02  0.10390312805E+03  0.00000000000E+00 0. -1.
         11    1    3    3    0    0  0.21769902878E+03 -0.11891861402E+03 -0.27798067442E+02  0.24961417517E+03  0.00000000000E+00 0.  1.
</event>
<event>
 7    1  0.4274778E-006  0.1031397E+03  0.7561462E-02  0.1273829E+00
          1   -1    0    0  501    0  0.00000000000E+00  0.00000000000E+00  0.24692305797E+03  0.24692305797E+03  0.00000000000E+00 0. -1.
         -1   -1    0    0    0  501 -0.00000000000E+00 -0.00000000000E+00 -0.43666407478E+02  0.43666407478E+02  0.00000000000E+00 0.  1.
         23    2    1    2    0    0  0.28488422439E+01  0.24546827328E+02  0.94121049806E+02  0.13313035933E+03  0.90852946709E+02 0.  0.
          5    1    1    2  502    0  0.47238044533E+02 -0.37419412836E+02  0.70060894817E+02  0.92507549372E+02  0.41800000000E+01 0. -1.
         -5    1    1    2    0  502 -0.50086886777E+02  0.12872585508E+02  0.39074705872E+02  0.64951556745E+02  0.41800000000E+01 0.  1.
        -11    1    3    3    0    0 -0.12157756515E-01  0.59208634366E+02  0.63058001097E+02  0.86498404804E+02  0.00000000000E+00 0.  1.
         11    1    3    3    0    0  0.28610000004E+01 -0.34661807038E+02  0.31063048709E+02  0.46631954530E+02  0.00000000000E+00 0. -1.
</event>
<event>
 7    1  0.4274778E-006  0.8887881E+02  0.7561462E-02  0.1305590E+00
         -1   -1    0    0    0  501 -0.00000000000E+00  0.00000000000E+00  0.33490504299E+02  0.33490504299E+02  0.00000000000E+00 0.  1.
          1   -1    0    0  501    0  0.00000000000E+00 -0.00000000000E+00 -0.52951553188E+03  0.52951553188E+03  0.00000000000E+00 0. -1.
         23    2    1    2    0    0 -0.20815994297E+02 -0.58272714455E+02 -0.31608145640E+03  0.33523543848E+03  0.92985468033E+02 0.  0.
          5    1    1    2  502    0  0.29528524433E+02  0.34333949295E+02  0.50918197216E+00  0.45480605709E+02  0.41800000000E+01 0. -1.
         -5    1    1    2    0  502 -0.87125301353E+01  0.23938765160E+02 -0.18045275315E+03  0.18228999199E+03  0.41800000000E+01 0. -1.
        -11    1    3    3    0    0  0.28195055275E+02 -0.49074674952E+02 -0.11652644222E+03  0.12954418782E+03  0.00000000000E+00 0.  1.
         11    1    3    3    0    0 -0.49011049572E+02 -0.91980395032E+01 -0.19955501419E+03  0.20569125066E+03  0.00000000000E+00 0. -1.
</event>
<event>
 7    1  0.4274778E-006  0.8792125E+02  0.7561462E-02  0.1307965E+00
          1   -1    0    0  501    0  0.00000000000E+00  0.00000000000E+00  0.58414188249E+02  0.58414188249E+02  0.00000000000E+00 0. -1.
         -1   -1    0    0    0  501 -0.00000000000E+00 -0.00000000000E+00 -0.14880558837E+03  0.14880558837E+03  0.00000000000E+00 0.  1.
         23    2    1    2    0    0 -0.83077843898E+00 -0.79434134454E+01 -0.29012902744E+02  0.79395026369E+02  0.73471311928E+02 0.  0.
          5    1    1    2  502    0 -0.49164236167E+02  0.26753646960E+02 -0.18177832968E+02  0.58998184336E+02  0.41800000000E+01 0. -1.
         -5    1    1    2    0  502  0.49995014606E+02 -0.18810233515E+02 -0.43200664410E+02  0.68826565916E+02  0.41800000000E+01 0.  1.
        -11    1    3    3    0    0  0.32056351691E+02  0.93566565836E+00 -0.31867620401E+02  0.45210954247E+02  0.00000000000E+00 0. -1.
         11    1    3    3    0    0 -0.32887130130E+02 -0.88790791038E+01  0.28547176563E+01  0.34184072121E+02  0.00000000000E+00 0.  1.
</event>
<event>
 7    1  0.4274778E-006  0.1107299E+03  0.7561462E-02  0.1259224E+00
          1   -1    0    0  501    0  0.00000000000E+00  0.00000000000E+00  0.30122290931E+03  0.30122290931E+03  0.00000000000E+00 0. -1.
         -1   -1    0    0    0  501 -0.00000000000E+00 -0.00000000000E+00 -0.68494542182E+02  0.68494542182E+02  0.00000000000E+00 0.  1.
         23    2    1    2    0    0  0.73066321742E+02 -0.42609363718E+02  0.15952639024E+03  0.20190747196E+03  0.90353266687E+02 0.  0.
          5    1    1    2  502    0  0.17632568115E+02 -0.14062811169E+02 -0.16422290180E+02  0.28210532272E+02  0.41800000000E+01 0.  1.
         -5    1    1    2    0  502 -0.90698889857E+02  0.56672174887E+02  0.89624267069E+02  0.13959944726E+03  0.41800000000E+01 0.  1.
        -11    1    3    3    0    0  0.31646726167E+02  0.57852504564E+00  0.13253493527E+03  0.13626209684E+03  0.00000000000E+00 0. -1.
         11    1    3    3    0    0  0.41419595575E+02 -0.43187888764E+02  0.26991454975E+02  0.65645375124E+02  0.00000000000E+00 0.  1.
</event>
<event>
 7    1  0.4274778E-006  0.1241907E+03  0.7561462E-02  0.1236340E+00
          2   -1    0    0  501    0  0.00000000000E+00  0.00000000000E+00  0.81139481114E+03  0.81139481114E+03  0.00000000000E+00 0. -1.
         -2   -1    0    0    0  501 -0.00000000000E+00 -0.00000000000E+00 -0.20269739710E+02  0.20269739710E+02  0.00000000000E+00 0.  1.
         23    2    1    2    0    0 -0.64900722533E+02  0.13213586306E+02  0.41934910066E+03  0.43385640147E+03  0.89392428223E+02 0.  0.
          5    1    1    2  502    0  0.36187424652E+02 -0.68273536985E+02  0.23797083698E+03  0.25023668238E+03  0.41800000000E+01 0.  1.
         -5    1    1    2    0  502  0.28713297881E+02  0.55059950679E+02  0.13380513379E+03  0.14757146700E+03  0.41800000000E+01 0.  1.
        -11    1    3    3    0    0 -0.85732042736E+02  0.17480380255E+02  0.29498911764E+03  0.30769160920E+03  0.00000000000E+00 0. -1.
         11    1    3    3    0    0  0.20831320203E+02 -0.42667939488E+01  0.12435998301E+03  0.12616479226E+03  0.00000000000E+00 0.  1.
</event>
<event>
 7    1  0.4274778E-006  0.1545818E+03  0.7561462E-02  0.1194953E+00
         -2   -1    0    0    0  501 -0.00000000000E+00  0.00000000000E+00  0.10335412230E+04  0.10335412230E+04  0.00000000000E+00 0.  1.
          2   -1    0    0  501    0  0.00000000000E+00 -0.00000000000E+00 -0.25872108447E+02  0.25872108447E+02  0.00000000000E+00 0. -1.
         23    2    1    2    0    0 -0.12129479291E+03  0.66843523969E+01  0.45577305248E+03  0.48062560933E+03  0.92275639350E+02 0.  0.
          5    1    1    2  502    0  0.63137539944E+02 -0.58561499864E+02  0.38513961721E+03  0.39467175648E+03  0.41800000000E+01 0. -1.
         -5    1    1    2    0  502  0.58157252970E+02  0.51877147467E+02  0.16675644489E+03  0.18411596567E+03  0.41800000000E+01 0. -1.
        -11    1    3    3    0    0 -0.36621239289E+02  0.39707932022E+02  0.24848473459E+03  0.25428821907E+03  0.00000000000E+00 0.  1.
         11    1    3    3    0    0 -0.84673553625E+02 -0.33023579625E+02  0.20728831789E+03  0.22633739025E+03  0.00000000000E+00 0. -1.
</event>
<event>
 7    1  0.4274778E-006  0.1257501E+03  0.7561462E-02  0.1233902E+00
         -1   -1    0    0    0  501 -0.00000000000E+00  0.00000000000E+00  0.89020817258E+02  0.89020817258E+02  0.00000000000E+00 0.  1.
          1   -1    0    0  501    0  0.00000000000E+00 -0.00000000000E+00 -0.24857832211E+03  0.24857832211E+03  0.00000000000E+00 0. -1.
         23    2    1    2    0    0 -0.60119059577E+02  0.80004493209E+02 -0.74919675226E+02  0.15641979094E+03  0.94016876159E+02 0.  0.
          5    1    1    2  502    0  0.28529537778E+02  0.69844422303E+01  0.24175762635E+02  0.38270835608E+02  0.41800000000E+01 0.  1.
         -5    1    1    2    0  502  0.31589521798E+02 -0.86988935439E+02 -0.10881359226E+03  0.14290851282E+03  0.41800000000E+01 0.  1.
        -11    1    3    3    0    0 -0.21719456916E+02 -0.15215944849E+02 -0.39961016778E+02  0.47959802421E+02  0.00000000000E+00 0. -1.
         11    1    3    3    0    0 -0.38399602661E+02  0.95220438057E+02 -0.34958658449E+02  0.10845998852E+03  0.00000000000E+00 0.  1.
</event>
<event>
 7    1  0.4274778E-006  0.1373604E+03  0.7561462E-02  0.1216925E+00
         -2   -1    0    0    0  501 -0.00000000000E+00  0.00000000000E+00  0.29432768299E+02  0.29432768299E+02  0.00000000000E+00 0.  1.
          2   -1    0    0  501    0  0.00000000000E+00 -0.00000000000E+00 -0.75006045167E+03  0.75006045167E+03  0.00000000000E+00 0. -1.
         23    2    1    2    0    0  0.68779127963E+02  0.73905257569E+02 -0.30311431028E+03  0.33210130627E+03  0.90666625569E+02 0.  0.
          5    1    1    2  502    0  0.30465998078E+02 -0.18623183816E+02 -0.18637371001E+03  0.18980946288E+03  0.41800000000E+01 0.  1.
         -5    1    1    2    0  502 -0.99245126041E+02 -0.55282073752E+02 -0.23113966308E+03  0.25758245082E+03  0.41800000000E+01 0.  1.
        -11    1    3    3    0    0  0.38604241098E+02  0.84667484258E+02 -0.15690022062E+03  0.18241861076E+03  0.00000000000E+00 0.  1.
         11    1    3    3    0    0  0.30174886865E+02 -0.10762226689E+02 -0.14621408966E+03  0.14968269551E+03  0.00000000000E+00 0. -1.
</event>
<event>
 7    1  0.4274778E-006  0.9300330E+02  0.7561462E-02  0.1295738E+00
          2   -1    0    0  501    0  0.00000000000E+00  0.00000000000E+00  0.16537857967E+03  0.16537857967E+03  0.00000000000E+00 0. -1.
         -2   -1    0    0    0  501 -0.00000000000E+00 -0.00000000000E+00 -0.10012579770E+03  0.10012579770E+03  0.00000000000E+00 0.  1.
         23    2    1    2    0    0 -0.25829043204E+01 -0.33363059601E+02  0.91846435606E+02  0.13331183005E+03  0.90644973154E+02 0.  0.
          5    1    1    2  502    0 -0.52169038474E+02 -0.41919236593E+00 -0.40574207121E+02  0.66223281262E+02  0.41800000000E+01 0. -1.
         -5    1    1    2    0  502  0.54751942795E+02  0.33782251967E+02  0.13980553482E+02  0.65969266052E+02  0.41800000000E+01 0. -1.
        -11    1    3    3    0    0 -0.25120465588E+02 -0.38605224515E+02  0.98918654025E+02  0.10911599913E+03  0.00000000000E+00 0. -1.
         11    1    3    3    0    0  0.22537561268E+02  0.52421649138E+01 -0.70722184194E+01  0.24195830927E+02  0.00000000000E+00 0.  1.
</event>
<event>
 7    1  0.4274778E-006  0.1258492E+03  0.7561462E-02  0.1233748E+00
         -1   -1    0    0    0  501 -0.00000000000E+00  0.00000000000E+00  0.18473090251E+03  0.18473090251E+03  0.00000000000E+00 0.  1.
          1   -1    0    0  501    0  0.00000000000E+00 -0.00000000000E+00 -0.10895644826E+03  0.10895644826E+03  0.00000000000E+00 0. -1.
         23    2    1    2    0    0  0.32682541344E+01 -0.89601280239E+02  0.22398484033E+02  0.13077232739E+03  0.92523719222E+02 0.  0.
          5    1    1    2  502    0 -0.58317649843E+02  0.73328258386E+02  0.47306091642E+02  0.10503961380E+03  0.41800000000E+01 0. -1.
         -5    1    1    2    0  502  0.55049395709E+02  0.16273021853E+02  0.60698785756E+01  0.57875409580E+02  0.41800000000E+01 0. -1.
        -11    1    3    3    0    0  0.22016841440E+02 -0.26095729109E+02 -0.30685407900E+02  0.45905584004E+02  0.00000000000E+00 0. -1.
         11    1    3    3    0    0 -0.18748587306E+02 -0.63505551131E+02  0.53083891934E+02  0.84866743387E+02  0.00000000000E+00 0.  1.
</event>
<event>
 7    1  0.4274778E-006  0.2083131E+03  0.7561462E-02  0.1142909E+00
         -2   -1    0    0    0  501 -0.00000000000E+00  0.00000000000E+00  0.50658248351E+03  0.50658248351E+03  0.00000000000E+00 0.  1.
          2   -1    0    0  501    0  0.00000000000E+00 -0.00000000000E+00 -0.75033882969E+03  0.75033882969E+03  0.00000000000E+00 0. -1.
         23    2    1    2    0    0 -0.15133394201E+03 -0.13073354985E+03 -0.38634202358E+03  0.44442427912E+03  0.90882108405E+02 0.  0.
          5    1    1    2  502    0  0.28431314132E+02  0.33390161128E+02 -0.32053077431E+03  0.32354395708E+03  0.41800000000E+01 0. -1.
         -5    1    1    2    0  502  0.12290262787E+03  0.97343388727E+02  0.46311645171E+03  0.48895307700E+03  0.41800000000E+01 0.  1.
        -11    1    3    3    0    0 -0.10390444802E+03 -0.36306445705E+02 -0.15512625489E+03  0.19020632817E+03  0.00000000000E+00 0.  1.
         11    1    3    3    0    0 -0.47429493988E+02 -0.94427104149E+02 -0.23121576868E+03  0.25421795095E+03  0.00000000000E+00 0. -1.
</event>
<event>
 7    1  0.4274778E-006  0.9632725E+02  0.7561462E-02  0.1288214E+00
         -2   -1    0    0    0  501 -0.00000000000E+00  0.00000000000E+00  0.13792337892E+03  0.13792337892E+03  0.00000000000E+00 0. -1.
          2   -1    0    0  501    0  0.00000000000E+00 -0.00000000000E+00 -0.87611189707E+02  0.87611189707E+02  0.00000000000E+00 0.  1.
         23    2    1    2    0    0  0.49984754192E+00  0.94216615395E+01  0.12267323221E+02  0.94450950753E+02  0.93174445667E+02 0.  0.
          5    1    1    2  502    0  0.21078570986E+02 -0.63503592495E+02  0.19094403961E+02  0.69707109230E+02  0.41800000000E+01 0.  1.
         -5    1    1    2    0  502 -0.21578418528E+02  0.54081930955E+02  0.18950462029E+02  0.61376508642E+02  0.41800000000E+01 0.  1.
        -11    1    3    3    0    0 -0.80946833828E+01 -0.27841535247E+02  0.38412015596E+02  0.48126478430E+02  0.00000000000E+00 0. -1.
         11    1    3    3    0    0  0.85945309247E+01  0.37263196787E+02 -0.26144692375E+02  0.46324472323E+02  0.00000000000E+00 0.  1.
</event>
<event>
 7    1  0.4274778E-006  0.1211767E+03  0.7561462E-02  0.1241168E+00
          2   -1    0    0  501    0  0.00000000000E+00  0.00000000000E+00  0.21016117030E+03  0.21016117030E+03  0.00000000000E+00 0. -1.
         -2   -1    0    0    0  501 -0.00000000000E+00 -0.00000000000E+00 -0.18427479177E+03  0.18427479177E+03  0.00000000000E+00 0.  1.
         23    2    1    2    0    0  0.83890727967E+02  0.77207150299E+02  0.13392242569E+03  0.19364318866E+03  0.81017714840E+02 0.  0.
          5    1    1    2  502    0  0.48158617930E+01  0.43731730292E+01 -0.75495625809E+02  0.75890573087E+02  0.41800000000E+01 0.  1.
         -5    1    1    2    0  502 -0.88706589760E+02 -0.81580323328E+02 -0.32540421353E+02  0.12490220031E+03  0.41800000000E+01 0.  1.
        -11    1    3    3    0    0  0.63148088377E+02  0.59376518222E+02  0.39346832703E+02  0.95191518664E+02  0.00000000000E+00 0.  1.
         11    1    3    3    0    0  0.20742639590E+02  0.17830632077E+02  0.94575592985E+02  0.98451670000E+02  0.00000000000E+00 0. -1.
</event>
<event>
 7    1  0.4274778E-006  0.1839504E+03  0.7561462E-02  0.1164034E+00
         -2   -1    0    0    0  501 -0.00000000000E+00  0.00000000000E+00  0.25502801084E+03  0.25502801084E+03  0.00000000000E+00 0.  1.
          2   -1    0    0  501    0  0.00000000000E+00 -0.00000000000E+00 -0.14288896691E+03  0.14288896691E+03  0.00000000000E+00 0. -1.
         23    2    1    2    0    0  0.15646496559E+03  0.14277424147E+02  0.58045870736E+02  0.18992958428E+03  0.89547716773E+02 0.  0.
          5    1    1    2  502    0 -0.22612771881E+02  0.46194297038E+02  0.28138373093E+02  0.58774917875E+02  0.41800000000E+01 0. -1.
         -5    1    1    2    0  502 -0.13385219371E+03 -0.60471721185E+02  0.25954800095E+02  0.14921247559E+03  0.41800000000E+01 0. -1.
        -11    1    3    3    0    0  0.12609701215E+03  0.37022937220E+02  0.14568629884E+02  0.13222480603E+03  0.00000000000E+00 0. -1.
         11    1    3    3    0    0  0.30367953442E+02 -0.22745513073E+02  0.43477240851E+02  0.57704778253E+02  0.00000000000E+00 0.  1.
</event>
<event>
 7    1  0.4274778E-006  0.1419004E+03  0.7561462E-02  0.1210794E+00
         -1   -1    0    0    0  501 -0.00000000000E+00  0.00000000000E+00  0.16203442296E+03  0.16203442296E+03  0.00000000000E+00 0.  1.
          1   -1    0    0  501    0  0.00000000000E+00 -0.00000000000E+00 -0.25827788674E+03  0.25827788674E+03  0.00000000000E+00 0. -1.
         23    2    1    2    0    0 -0.11034878808E+03  0.21745675837E+02 -0.18095737313E+03  0.23196650451E+03  0.91723273363E+02 0.  0.
          5    1    1    2  502    0  0.77998357349E+02  0.33241896134E+02  0.34680538021E+01  0.84960386092E+02  0.41800000000E+01 0.  1.
         -5    1    1    2    0  502  0.32350430728E+02 -0.54987571971E+02  0.81245855549E+02  0.10338541911E+03  0.41800000000E+01 0.  1.
        -11    1    3    3    0    0 -0.11046333830E+03  0.39431569003E+02 -0.11723168378E+03  0.16583203980E+03  0.00000000000E+00 0.  1.
         11    1    3    3    0    0  0.11455022605E+00 -0.17685893166E+02 -0.63725689351E+02  0.66134464707E+02  0.00000000000E+00 0. -1.
</event>
<event>
 7    1  0.4274778E-006  0.8183401E+02  0.7561462E-02  0.1323926E+00
         -1   -1    0    0    0  501 -0.00000000000E+00  0.00000000000E+00  0.82263331795E+02  0.82263331795E+02  0.00000000000E+00 0.  1.
          1   -1    0    0  501    0  0.00000000000E+00 -0.00000000000E+00 -0.18493124959E+03  0.18493124959E+03  0.00000000000E+00 0. -1.
         23    2    1    2    0    0  0.66339007203E+02  0.54698550201E+01 -0.41854707462E+02  0.11967440500E+03  0.90218420980E+02 0.  0.
          5    1    1    2  502    0 -0.26132601015E+00  0.10531502413E+02 -0.76735593251E+02  0.77568063698E+02  0.41800000000E+01 0. -1.
         -5    1    1    2    0  502 -0.66077681193E+02 -0.16001357433E+02  0.15922382921E+02  0.69952112687E+02  0.41800000000E+01 0.  1.
        -11    1    3    3    0    0  0.36715686312E+02  0.28676547295E+02 -0.61556136201E+02  0.77198082166E+02  0.00000000000E+00 0. -1.
         11    1    3    3    0    0  0.29623320890E+02 -0.23206692275E+02  0.19701428738E+02  0.42476322831E+02  0.00000000000E+00 0.  1.
</event>
<event>
 7    1  0.4274778E-006  0.1624362E+03  0.7561462E-02  0.1185973E+00
          2   -1    0    0  501    0  0.00000000000E+00  0.00000000000E+00  0.86830945828E+03  0.86830945828E+03  0.00000000000E+00 0. -1.
         -2   -1    0    0    0  501 -0.00000000000E+00 -0.00000000000E+00 -0.41562871318E+02  0.41562871318E+02  0.00000000000E+00 0.  1.
         23    2    1    2    0    0  0.15384782724E+03  0.18689863352E+02  0.42236233126E+03  0.45910115318E+03  0.91462916235E+02 0.  0.
          5    1    1    2  502    0 -0.66856303355E+01 -0.72196449247E+01 -0.76033650223E+01  0.13118859916E+02  0.41800000000E+01 0. -1.
         -5    1    1    2    0  502 -0.14716219690E+03 -0.11470218427E+02  0.41198762073E+03  0.43765231650E+03  0.41800000000E+01 0. -1.
        -11    1    3    3    0    0  0.12797938215E+03  0.38818162838E+02  0.24875030646E+03  0.28242217863E+03  0.00000000000E+00 0.  1.
         11    1    3    3    0    0  0.25868445094E+02 -0.20128299486E+02  0.17361202480E+03  0.17667897455E+03  0.00000000000E+00 0. -1.
</event>
<event>
 7    1  0.4274778E-006  0.1647570E+03  0.7561462E-02  0.1183428E+00
         -1   -1    0    0    0  501 -0.00000000000E+00  0.00000000000E+00  0.11163054981E+04  0.11163054981E+04  0.00000000000E+00 0.  1.
          1   -1    0    0  501    0  0.00000000000E+00 -0.00000000000E+00 -0.33917869132E+02  0.33917869132E+02  0.00000000000E+00 0. -1.
         23    2    1    2    0    0 -0.32586099812E+02 -0.15183620008E+03  0.38924442965E+03  0.42896704024E+03  0.91571884591E+02 0.  0.
          5    1    1    2  502    0  0.14807650411E+02  0.44008078963E+02  0.47452135110E+03  0.47680600098E+03  0.41800000000E+01 0.  1.
         -5    1    1    2    0  502  0.17778449401E+02  0.10782812111E+03  0.21862184824E+03  0.24445032603E+03  0.41800000000E+01 0.  1.
        -11    1    3    3    0    0 -0.58243409086E+02 -0.10117178337E+03  0.20207561527E+03  0.23337218930E+03  0.00000000000E+00 0. -1.
         11    1    3    3    0    0  0.25657309275E+02 -0.50664416710E+02  0.18716881437E+03  0.19559485094E+03  0.00000000000E+00 0.  1.
</event>
<event>
 7    1  0.4274778E-006  0.6761597E+02  0.7561462E-02  0.1368393E+00
          2   -1    0    0  501    0  0.00000000000E+00  0.00000000000E+00  0.54838208112E+02  0.54838208112E+02  0.00000000000E+00 0. -1.
         -2   -1    0    0    0  501 -0.00000000000E+00 -0.00000000000E+00 -0.28790322604E+03  0.28790322604E+03  0.00000000000E+00 0.  1.
         23    2    1    2    0    0 -0.86298732276E-01 -0.34253692218E+02 -0.32990907893E+02  0.10430796241E+03  0.92835489663E+02 0.  0.
          5    1    1    2  502    0 -0.24922612999E+02  0.43396047228E+02 -0.20497582918E+03  0.21103771346E+03  0.41800000000E+01 0. -1.
         -5    1    1    2    0  502  0.25008911731E+02 -0.91423550106E+01  0.49017191475E+01  0.27395758279E+02  0.41800000000E+01 0. -1.
        -11    1    3    3    0    0  0.18884672407E+02 -0.34225094804E+02 -0.59813934955E+02  0.71454144604E+02  0.00000000000E+00 0.  1.
         11    1    3    3    0    0 -0.18970971140E+02 -0.28597413868E-01  0.26823027062E+02  0.32853817808E+02  0.00000000000E+00 0. -1.
</event>
<event>
 7    1  0.4274778E-006  0.9522092E+02  0.7561462E-02  0.1290679E+00
         -2   -1    0    0    0  501 -0.00000000000E+00  0.00000000000E+00  0.62675367955E+02  0.62675367955E+02  0.00000000000E+00 0. -1.
          2   -1    0    0  501    0  0.00000000000E+00 -0.00000000000E+00 -0.22235677456E+03  0.22235677456E+03  0.00000000000E+00 0.  1.
         23    2    1    2    0    0 -0.12449816168E+02 -0.47924115243E+02 -0.65257260113E+02  0.12065997094E+03  0.88592323849E+02 0.  0.
          5    1    1    2  502    0  0.27062299900E+02 -0.30636901691E+02 -0.69186522259E+02  0.80468845421E+02  0.41800000000E+01 0. -1.
         -5    1    1    2    0  502 -0.14612483732E+02  0.78561016934E+02 -0.25237624228E+02  0.83903326150E+02  0.41800000000E+01 0. -1.
        -11    1    3    3    0    0  0.18690108196E+02 -0.21545417528E+02 -0.73663197731E+02  0.78992353179E+02  0.00000000000E+00 0.  1.
         11    1    3    3    0    0 -0.31139924364E+02 -0.26378697715E+02  0.84059376171E+01  0.41667617760E+02  0.00000000000E+00 0. -1.
</event>
<event>
 7    1  0.4274778E-006  0.1898294E+03  0.7561462E-02  0.1158615E+00
          4   -1    0    0  501    0  0.00000000000E+00  0.00000000000E+00  0.64211339287E+02  0.64211339287E+02  0.00000000000E+00 0. -1.
         -4   -1    0    0    0  501 -0.00000000000E+00 -0.00000000000E+00 -0.63613732378E+03  0.63613732378E+03  0.00000000000E+00 0.  1.
         23    2    1    2    0    0  0.55604402182E+02  0.15054027126E+03 -0.17815459219E+03  0.25709438504E+03  0.92759049630E+02 0.  0.
          5    1    1    2  502    0 -0.47715076661E+02 -0.16810611881E+03 -0.29804505435E+03  0.34552094372E+03  0.41800000000E+01 0. -1.
         -5    1    1    2    0  502 -0.78893255211E+01  0.17565847553E+02 -0.95726337945E+02  0.97733334302E+02  0.41800000000E+01 0. -1.
        -11    1    3    3    0    0  0.79642183701E+02  0.13432961722E+03 -0.15449825405E+03  0.21967483695E+03  0.00000000000E+00 0.  1.
         11    1    3    3    0    0 -0.24037781519E+02  0.16210654041E+02 -0.23656338145E+02  0.37419548089E+02  0.00000000000E+00 0. -1.
</event>
<event>
 7    1  0.4274778E-006  0.1160172E+03  0.7561462E-02  0.1249816E+00
          1   -1    0    0  501    0  0.00000000000E+00  0.00000000000E+00  0.87868823896E+02  0.87868823896E+02  0.00000000000E+00 0. -1.
         -1   -1    0    0    0  501 -0.00000000000E+00 -0.00000000000E+00 -0.27018345741E+03  0.27018345741E+03  0.00000000000E+00 0.  1.
         23    2    1    2    0    0 -0.78815261475E+02 -0.40190386303E+02 -0.59327131104E+01  0.12441717226E+03  0.87277276977E+02 0.  0.
          5    1    1    2  502    0  0.83389030986E+02  0.59311752462E+02 -0.18524197935E+03  0.21166879265E+03  0.41800000000E+01 0.  1.
         -5    1    1    2    0  502 -0.45737695111E+01 -0.19121366159E+02  0.88600589444E+01  0.21966316392E+02  0.41800000000E+01 0.  1.
        -11    1    3    3    0    0 -0.52931361487E+02  0.92294666186E+01 -0.32321898862E+02  0.62702609428E+02  0.00000000000E+00 0.  1.
         11    1    3    3    0    0 -0.25883899987E+02 -0.49419852922E+02  0.26389185752E+02  0.61714562836E+02  0.00000000000E+00 0. -1.
</event>
<event>
 7    1  0.4274778E-006  0.1855982E+03  0.7561462E-02  0.1162492E+00
         -2   -1    0    0    0  501 -0.00000000000E+00  0.00000000000E+00  0.19706359326E+03  0.19706359326E+03  0.00000000000E+00 0.  1.
          2   -1    0    0  501    0  0.00000000000E+00 -0.00000000000E+00 -0.23646821026E+03  0.23646821026E+03  0.00000000000E+00 0. -1.
         23    2    1    2    0    0 -0.11252054926E+03 -0.12007450234E+03 -0.10561783198E+03  0.21647656147E+03  0.92888186087E+02 0.  0.
          5    1    1    2  502    0  0.15516850818E+02  0.10752971852E+03  0.37942680353E+02  0.11515438514E+03  0.41800000000E+01 0.  1.
         -5    1    1    2    0  502  0.97003698439E+02  0.12544783817E+02  0.28270534631E+02  0.10190085692E+03  0.41800000000E+01 0.  1.
        -11    1    3    3    0    0 -0.46554193064E+02 -0.48058915018E+02 -0.97805897784E+02  0.11850293602E+03  0.00000000000E+00 0. -1.
         11    1    3    3    0    0 -0.65966356193E+02 -0.72015587321E+02 -0.78119341968E+01  0.97973625443E+02  0.00000000000E+00 0.  1.
</event>
<event>
 7    1  0.4274778E-006  0.1291860E+03  0.7561462E-02  0.1228669E+00
         -1   -1    0    0    0  501 -0.00000000000E+00  0.00000000000E+00  0.54272316104E+02  0.54272316104E+02  0.00000000000E+00 0.  1.
          1   -1    0    0  501    0  0.00000000000E+00 -0.00000000000E+00 -0.33660342416E+03  0.33660342416E+03  0.00000000000E+00 0. -1.
         23    2    1    2    0    0  0.14071220617E+02 -0.34830940049E+02 -0.15034462364E+03  0.17921436218E+03  0.90017154585E+02 0.  0.
          5    1    1    2  502    0  0.44336660026E+02  0.78275217435E+02 -0.90952748042E+02  0.12799462435E+03  0.41800000000E+01 0. -1.
         -5    1    1    2    0  502 -0.58407880642E+02 -0.43444277386E+02 -0.41033736367E+02  0.83666753726E+02  0.41800000000E+01 0.  1.
        -11    1    3    3    0    0  0.45238839139E+02  0.42231431159E+01 -0.53113449268E+02  0.69895822462E+02  0.00000000000E+00 0. -1.
         11    1    3    3    0    0 -0.31167618523E+02 -0.39054083165E+02 -0.97231174376E+02  0.10931853972E+03  0.00000000000E+00 0.  1.
</event>
<event>
 7    1  0.4274778E-006  0.5805931E+02  0.7561462E-02  0.1406161E+00
         -1   -1    0    0    0  501 -0.00000000000E+00  0.00000000000E+00  0.23723927648E+03  0.23723927648E+03  0.00000000000E+00 0.  1.
          1   -1    0    0  501    0  0.00000000000E+00 -0.00000000000E+00 -0.55620046000E+02  0.55620046000E+02  0.00000000000E+00 0. -1.
         23    2    1    2    0    0  0.36234304165E+02 -0.12175676460E+02  0.78143417668E+02  0.12607471138E+03  0.91253861453E+02 0.  0.
          5    1    1    2  502    0 -0.11104454986E+02  0.22677684596E+02 -0.24766648933E+02  0.35615243907E+02  0.41800000000E+01 0.  1.
         -5    1    1    2    0  502 -0.25129849178E+02 -0.10502008137E+02  0.12824246175E+03  0.13116936719E+03  0.41800000000E+01 0.  1.
        -11    1    3    3    0    0  0.22803585179E+02  0.18576532493E+02  0.86608343389E+02  0.91466366503E+02  0.00000000000E+00 0.  1.
         11    1    3    3    0    0  0.13430718985E+02 -0.30752208953E+02 -0.84649257215E+01  0.34608344881E+02  0.00000000000E+00 0. -1.
</event>
<event>
 7    1  0.4274778E-006  0.1218878E+03  0.7561462E-02  0.1240015E+00
         -2   -1    0    0    0  501 -0.00000000000E+00  0.00000000000E+00  0.18697778649E+02  0.18697778649E+02  0.00000000000E+00 0.  1.
          2   -1    0    0  501    0  0.00000000000E+00 -0.00000000000E+00 -0.11014233137E+04  0.11014233137E+04  0.00000000000E+00 0. -1.
         23    2    1    2    0    0 -0.67485646548E+02  0.40866267087E+02 -0.68893974313E+03  0.69947963945E+03  0.91702955629E+02 0.  0.
          5    1    1    2  502    0  0.79280948430E+02 -0.60313524021E+02 -0.38178181772E+03  0.39458588255E+03  0.41800000000E+01 0.  1.
         -5    1    1    2    0  502 -0.11795301882E+02  0.19447256934E+02 -0.12003974172E+02  0.26055570319E+02  0.41800000000E+01 0.  1.
        -11    1    3    3    0    0 -0.83160041913E+02  0.55113494782E+02 -0.57340710873E+03  0.58202130736E+03  0.00000000000E+00 0. -1.
         11    1    3    3    0    0  0.15674395366E+02 -0.14247227695E+02 -0.11553263439E+03  0.11745833209E+03  0.00000000000E+00 0.  1.
</event>
<event>
 6    1  0.1949525E-005  0.4459108E+02  0.7561462E-02  0.1476911E+00
         -2   -1    0    0    0  501 -0.00000000000E+00  0.00000000000E+00  0.20189306826E+02  0.20189306826E+02  0.00000000000E+00 0.  1.
          2   -1    0    0  501    0  0.00000000000E+00 -0.00000000000E+00 -0.43109719012E+03  0.43109719012E+03  0.00000000000E+00 0. -1.
          5    1    1    2  502    0 -0.23569221588E+02 -0.18385415220E+02 -0.25332518171E+03  0.25511693748E+03  0.41800000000E+01 0. -1.
         -5    1    1    2    0  502 -0.12405397931E+02  0.11701868923E+02  0.12189823615E+02  0.21375028278E+02  0.41800000000E+01 0.  1.
        -11    1    1    2    0    0  0.14741667472E+02 -0.68564041444E+01 -0.59323553656E+02  0.61511064501E+02  0.00000000000E+00 0. -1.
         11    1    1    2    0    0  0.21232952047E+02  0.13539950442E+02 -0.11044897154E+03  0.11328346668E+03  0.00000000000E+00 0.  1.
</event>
<event>
 7    1  0.4274778E-006  0.1220595E+03  0.7561462E-02  0.1239738E+00
         -2   -1    0    0    0  501 -0.00000000000E+00  0.00000000000E+00  0.44717326745E+02  0.44717326745E+02  0.00000000000E+00 0.  1.
          2   -1    0    0  501    0  0.00000000000E+00 -0.00000000000E+00 -0.60246198970E+03  0.60246198970E+03  0.00000000000E+00 0. -1.
         23    2    1    2    0    0  0.90809256360E+02 -0.27077374785E+02 -0.34292511408E+03  0.36690002783E+03  0.89657633722E+02 0.  0.
          5    1    1    2  502    0 -0.44667788769E+02 -0.23217542656E+02 -0.20507704142E+03  0.21120684402E+03  0.41800000000E+01 0. -1.
         -5    1    1    2    0  502 -0.46141467591E+02  0.50294917441E+02 -0.97425074496E+01  0.69072444601E+02  0.41800000000E+01 0.  1.
        -11    1    3    3    0    0 -0.15564162656E+02 -0.46751833580E+00 -0.17139868230E+02  0.23156787676E+02  0.00000000000E+00 0. -1.
         11    1    3    3    0    0  0.10637341902E+03 -0.26609856449E+02 -0.32578524585E+03  0.34374324015E+03  0.00000000000E+00 0.  1.
</event>
<event>
 7    1  0.4274778E-006  0.6834927E+02  0.7561462E-02  0.1365798E+00
         -4   -1    0    0    0  501 -0.00000000000E+00  0.00000000000E+00  0.14008030414E+03  0.14008030414E+03  0.00000000000E+00 0. -1.
          4   -1    0    0  501    0  0.00000000000E+00 -0.00000000000E+00 -0.84180482653E+02  0.84180482653E+02  0.00000000000E+00 0.  1.
         23    2    1    2    0    0  0.11572488583E+02 -0.12058991530E+02  0.10930836573E+02  0.90289156989E+02  0.88052864308E+02 0.  0.
          5    1    1    2  502    0  0.24298808948E+02 -0.19989005994E+01  0.78761033315E+02  0.82554227565E+02  0.41800000000E+01 0.  1.
         -5    1    1    2    0  502 -0.35871297531E+02  0.14057892130E+02 -0.33792048402E+02  0.51417402238E+02  0.41800000000E+01 0.  1.
        -11    1    3    3    0    0 -0.37999213984E+01  0.29061205698E+02 -0.20956985646E+02  0.36030380606E+02  0.00000000000E+00 0.  1.
         11    1    3    3    0    0  0.15372409981E+02 -0.41120197228E+02  0.31887822220E+02  0.54258776383E+02  0.00000000000E+00 0. -1.
</event>
<event>
 7    1  0.4274778E-006  0.1337371E+03  0.7561462E-02  0.1222014E+00
         -2   -1    0    0    0  501 -0.00000000000E+00  0.00000000000E+00  0.15037949147E+03  0.15037949147E+03  0.00000000000E+00 0. -1.
          2   -1    0    0  501    0  0.00000000000E+00 -0.00000000000E+00 -0.13501005318E+03  0.13501005318E+03  0.00000000000E+00 0.  1.
         23    2    1    2    0    0 -0.57398033306E+02 -0.66428691837E+02 -0.19690299559E+02  0.12846211705E+03  0.91692433126E+02 0.  0.
          5    1    1    2  502    0  0.71055113338E+01  0.87949665833E+02  0.48035037070E+02  0.10055082893E+03  0.41800000000E+01 0. -1.
         -5    1    1    2    0  502  0.50292521972E+02 -0.21520973996E+02 -0.12975299223E+02  0.56376598674E+02  0.41800000000E+01 0. -1.
        -11    1    3    3    0    0 -0.78682417421E+02 -0.66455290259E+02 -0.26074631854E+02  0.10624083415E+03  0.00000000000E+00 0.  1.
         11    1    3    3    0    0  0.21284384116E+02  0.26598422120E-01  0.63843322950E+01  0.22221282895E+02  0.00000000000E+00 0. -1.
</event>
<event>
 7    1  0.4274778E-006  0.8899889E+02  0.7561462E-02  0.1305294E+00
          1   -1    0    0  501    0  0.00000000000E+00  0.00000000000E+00  0.10743843189E+02  0.10743843189E+02  0.00000000000E+00 0. -1.
         -1   -1    0    0    0  501 -0.00000000000E+00 -0.00000000000E+00 -0.14092817936E+04  0.14092817936E+04  0.00000000000E+00 0.  1.
         23    2    1    2    0    0 -0.35068779160E+02 -0.34589067371E+02 -0.43090345269E+03  0.44309542146E+03  0.90716834835E+02 0.  0.
          5    1    1    2  502    0  0.23956498135E+02 -0.11697901938E+02 -0.41119365298E+02  0.49183628528E+02  0.41800000000E+01 0. -1.
         -5    1    1    2    0  502  0.11112281025E+02  0.46286969309E+02 -0.92651513238E+03  0.92774658676E+03  0.41800000000E+01 0. -1.
        -11    1    3    3    0    0  0.11588461354E+02 -0.52113920421E+02 -0.22299099152E+03  0.22929268510E+03  0.00000000000E+00 0.  1.
         11    1    3    3    0    0 -0.46657240513E+02  0.17524853050E+02 -0.20791246117E+03  0.21380273636E+03  0.00000000000E+00 0. -1.
</event>
<event>
 7    1  0.4274778E-006  0.2250852E+03  0.7561462E-02  0.1130148E+00
          2   -1    0    0  501    0  0.00000000000E+00  0.00000000000E+00  0.41406588710E+03  0.41406588710E+03  0.00000000000E+00 0.  1.
         -2   -1    0    0    0  501 -0.00000000000E+00 -0.00000000000E+00 -0.13744838755E+03  0.13744838755E+03  0.00000000000E+00 0. -1.
         23    2    1    2    0    0  0.20587871025E+02  0.20001987871E+03  0.21430317071E+03  0.30663958136E+03  0.87579515707E+02 0.  0.
          5    1    1    2  502    0  0.46602662652E+02 -0.98335627688E+02  0.22204245655E+01  0.10892247943E+03  0.41800000000E+01 0.  1.
         -5    1    1    2    0  502 -0.67190533677E+02 -0.10168425102E+03  0.60093904280E+02  0.13595221386E+03  0.41800000000E+01 0.  1.
        -11    1    3    3    0    0  0.52299164535E+02  0.83190108153E+02  0.96404950855E+02  0.13765795021E+03  0.00000000000E+00 0. -1.
         11    1    3    3    0    0 -0.31711293510E+02  0.11682977056E+03  0.11789821985E+03  0.16898163116E+03  0.00000000000E+00 0.  1.
</event>
<event>
 7    1  0.4274778E-006  0.1210249E+03  0.7561462E-02  0.1241416E+00
          1   -1    0    0  501    0  0.00000000000E+00  0.00000000000E+00  0.33026401546E+02  0.33026401546E+02  0.00000000000E+00 0. -1.
         -1   -1    0    0    0  501 -0.00000000000E+00 -0.00000000000E+00 -0.45453914539E+04  0.45453914539E+04  0.00000000000E+00 0.  1.
         23    2    1    2    0    0  0.59837394578E+02 -0.47702213607E+01 -0.64694685177E+02  0.12653485613E+03  0.90677443308E+02 0.  0.
          5    1    1    2  502    0 -0.32386172399E+02 -0.81683861173E+02 -0.30486382292E+04  0.30499071530E+04  0.41800000000E+01 0. -1.
         -5    1    1    2    0  502 -0.27451222179E+02  0.86454082534E+02 -0.13990321380E+04  0.14019758462E+04  0.41800000000E+01 0.  1.
        -11    1    3    3    0    0  0.15545790949E+02 -0.10289268328E+02 -0.77811276333E+02  0.80013345034E+02  0.00000000000E+00 0.  1.
         11    1    3    3    0    0  0.44291603629E+02  0.55190469676E+01  0.13116591156E+02  0.46521511100E+02  0.00000000000E+00 0. -1.
</event>
<event>
 7    1  0.4274778E-006  0.8590501E+02  0.7561462E-02  0.1313083E+00
          1   -1    0    0  501    0  0.00000000000E+00  0.00000000000E+00  0.50821236344E+02  0.50821236344E+02  0.00000000000E+00 0. -1.
         -1   -1    0    0    0  501 -0.00000000000E+00 -0.00000000000E+00 -0.31209550362E+03  0.31209550362E+03  0.00000000000E+00 0.  1.
         23    2    1    2    0    0  0.17671379072E+02 -0.60568033714E+02 -0.12684435763E+03  0.16875149216E+03  0.91688661777E+02 0.  0.
          5    1    1    2  502    0 -0.10581362957E+02  0.16766821306E+02  0.22939326699E+02  0.30606807219E+02  0.41800000000E+01 0.  1.
         -5    1    1    2    0  502 -0.70900161151E+01  0.43801212408E+02 -0.15736923635E+03  0.16355844059E+03  0.41800000000E+01 0.  1.
        -11    1    3    3    0    0  0.15243805475E+02 -0.83014505123E+02 -0.77928261649E+02  0.11487643636E+03  0.00000000000E+00 0. -1.
         11    1    3    3    0    0  0.24275735970E+01  0.22446471409E+02 -0.48916095977E+02  0.53875055804E+02  0.00000000000E+00 0.  1.
</event>
<event>
 7    1  0.4274778E-006  0.8242201E+02  0.7561462E-02  0.1322315E+00
         -1   -1    0    0    0  501 -0.00000000000E+00  0.00000000000E+00  0.36039514422E+03  0.36039514422E+03  0.00000000000E+00 0.  1.
          1   -1    0    0  501    0  0.00000000000E+00 -0.00000000000E+00 -0.12958218693E+03  0.12958218693E+03  0.00000000000E+00 0. -1.
         23    2    1    2    0    0  0.50698172819E+02  0.99770899431E+00 -0.92139351743E+02  0.13995326472E+03  0.92336103534E+02 0.  0.
          5    1    1    2  502    0  0.83630901900E+01  0.85966833032E+01 -0.71101332872E+01  0.14555776747E+02  0.41800000000E+01 0. -1.
         -5    1    1    2    0  502 -0.59061263009E+02 -0.95943922975E+01  0.33006244232E+03  0.33546828968E+03  0.41800000000E+01 0. -1.
        -11    1    3    3    0    0  0.36740908213E+02  0.37853196595E+02 -0.17553357100E+02  0.55595675860E+02  0.00000000000E+00 0.  1.
         11    1    3    3    0    0  0.13957264606E+02 -0.36855487601E+02 -0.74585994643E+02  0.84357588861E+02  0.00000000000E+00 0. -1.
</event>
<event>
 7    1  0.4274778E-006  0.1419128E+03  0.7561462E-02  0.1210778E+00
         -2   -1    0    0    0  501 -0.00000000000E+00  0.00000000000E+00  0.11625075027E+04  0.11625075027E+04  0.00000000000E+00 0.  1.
          2   -1    0    0  501    0  0.00000000000E+00 -0.00000000000E+00 -0.19832015927E+02  0.19832015927E+02  0.00000000000E+00 0. -1.
         23    2    1    2    0    0  0.88014105892E+02 -0.34825986555E+02  0.32816375136E+03  0.35286023396E+03  0.88654186733E+02 0.  0.
          5    1    1    2  502    0 -0.78038618921E+02  0.78380697807E+02  0.52826767709E+03  0.53973861349E+03  0.41800000000E+01 0.  1.
         -5    1    1    2    0  502 -0.99754869709E+01 -0.43554711252E+02  0.28624405832E+03  0.28974067119E+03  0.41800000000E+01 0.  1.
        -11    1    3    3    0    0  0.52445400108E+02 -0.63656288584E+02  0.23500370533E+03  0.24905699064E+03  0.00000000000E+00 0.  1.
         11    1    3    3    0    0  0.35568705784E+02  0.28830302029E+02  0.93160046030E+02  0.10380324331E+03  0.00000000000E+00 0. -1.
</event>
<event>
 7    1  0.4274778E-006  0.1110797E+03  0.7561462E-02  0.1258583E+00
         -3   -1    0    0    0  501 -0.00000000000E+00  0.00000000000E+00  0.41863613052E+03  0.41863613052E+03  0.00000000000E+00 0.  1.
          3   -1    0    0  501    0  0.00000000000E+00 -0.00000000000E+00 -0.49456941027E+02  0.49456941027E+02  0.00000000000E+00 0. -1.
         23    2    1    2    0    0 -0.60730747832E+01 -0.91014709699E+02  0.12400877236E+03  0.17813363097E+03  0.89626197283E+02 0.  0.
          5    1    1    2  502    0  0.17924010806E+02  0.20058532189E+02 -0.66568175862E+01  0.28024997722E+02  0.41800000000E+01 0.  1.
         -5    1    1    2    0  502 -0.11850936023E+02  0.70956177510E+02  0.25182723471E+03  0.26193444286E+03  0.41800000000E+01 0.  1.
        -11    1    3    3    0    0 -0.44233833646E+02 -0.45064107660E+02  0.88259258616E+02  0.10852235977E+03  0.00000000000E+00 0.  1.
         11    1    3    3    0    0  0.38160758863E+02 -0.45950602039E+02  0.35749513749E+02  0.69611271199E+02  0.00000000000E+00 0. -1.
</event>
<event>
 7    1  0.4274778E-006  0.2063899E+03  0.7561462E-02  0.1144457E+00
          1   -1    0    0  501    0  0.00000000000E+00  0.00000000000E+00  0.61120106585E+03  0.61120106585E+03  0.00000000000E+00 0. -1.
         -1   -1    0    0    0  501 -0.00000000000E+00 -0.00000000000E+00 -0.97545732690E+02  0.97545732690E+02  0.00000000000E+00 0.  1.
         23    2    1    2    0    0  0.18347925972E+03 -0.81396735425E+02  0.12419358868E+03  0.25309549225E+03  0.91341192483E+02 0.  0.
          5    1    1    2  502    0 -0.81589148139E+02  0.44483181536E+02  0.30298568276E+03  0.31694374720E+03  0.41800000000E+01 0. -1.
         -5    1    1    2    0  502 -0.10189011158E+03  0.36913553890E+02  0.86476061720E+02  0.13870755909E+03  0.41800000000E+01 0. -1.
        -11    1    3    3    0    0  0.14136036377E+02 -0.31878832834E+02 -0.38649899580E+01  0.35085975185E+02  0.00000000000E+00 0.  1.
         11    1    3    3    0    0  0.16934322334E+03 -0.49517902591E+02  0.12805857864E+03  0.21800951707E+03  0.00000000000E+00 0. -1.
</event>
<event>
 7    1  0.4274778E-006  0.9447357E+02  0.7561462E-02  0.1292366E+00
         -4   -1    0    0    0  501 -0.00000000000E+00  0.00000000000E+00  0.13514754194E+03  0.13514754194E+03  0.00000000000E+00 0. -1.
          4   -1    0    0  501    0  0.00000000000E+00 -0.00000000000E+00 -0.10968914763E+03  0.10968914763E+03  0.00000000000E+00 0.  1.
         23    2    1    2    0    0 -0.25070242175E+02 -0.48935993502E+02 -0.10679294905E+02  0.10349725345E+03  0.87030946389E+02 0.  0.
          5    1    1    2  502    0 -0.29086813910E+02  0.15656474784E+02  0.63741160097E+02  0.71913669331E+02  0.41800000000E+01 0.  1.
         -5    1    1    2    0  502  0.54157056085E+02  0.33279518718E+02 -0.27603470873E+02  0.69425766788E+02  0.41800000000E+01 0.  1.
        -11    1    3    3    0    0 -0.32295321282E+02  0.90300299889E+01 -0.26768074652E+02  0.42907563889E+02  0.00000000000E+00 0.  1.
         11    1    3    3    0    0  0.72250791071E+01 -0.57966023490E+02  0.16088779747E+02  0.60589689561E+02  0.00000000000E+00 0. -1.
</event>
<event>
 7    1  0.4274778E-006  0.1940024E+03  0.7561462E-02  0.1154900E+00
          2   -1    0    0  501    0  0.00000000000E+00  0.00000000000E+00  0.10337494278E+03  0.10337494278E+03  0.00000000000E+00 0.  1.
         -2   -1    0    0    0  501 -0.00000000000E+00 -0.00000000000E+00 -0.50469348993E+03  0.50469348993E+03  0.00000000000E+00 0. -1.
         23    2    1    2    0    0  0.29742639541E+02  0.17968859974E+03 -0.81916395791E+02  0.21968800006E+03  0.91541815518E+02 0.  0.
          5    1    1    2  502    0 -0.27281102997E+02 -0.35276529548E+02 -0.85668626358E+01  0.45602145269E+02  0.41800000000E+01 0.  1.
         -5    1    1    2    0  502 -0.24615365436E+01 -0.14441207019E+03 -0.31083528872E+03  0.34277828737E+03  0.41800000000E+01 0.  1.
        -11    1    3    3    0    0 -0.27520997999E+02  0.62429824577E+02 -0.54587571448E+01  0.68444768662E+02  0.00000000000E+00 0. -1.
         11    1    3    3    0    0  0.57263637540E+02  0.11725877516E+03 -0.76457638647E+02  0.15124323140E+03  0.00000000000E+00 0.  1.
</event>
<event>
 7    1  0.4274778E-006  0.1377303E+03  0.7561462E-02  0.1216416E+00
          3   -1    0    0  501    0  0.00000000000E+00  0.00000000000E+00  0.32524010747E+03  0.32524010747E+03  0.00000000000E+00 0. -1.
         -3   -1    0    0    0  501 -0.00000000000E+00 -0.00000000000E+00 -0.10204375607E+03  0.10204375607E+03  0.00000000000E+00 0.  1.
         23    2    1    2    0    0 -0.67302504754E+02 -0.79860503566E+02  0.22534140391E+03  0.26431226987E+03  0.90415156426E+02 0.  0.
          5    1    1    2  502    0 -0.17435238289E+02  0.57090701453E+02 -0.34837578252E+02  0.69242075251E+02  0.41800000000E+01 0.  1.
         -5    1    1    2    0  502  0.84737743043E+02  0.22769802113E+02  0.32692525736E+02  0.93729518420E+02  0.41800000000E+01 0.  1.
        -11    1    3    3    0    0 -0.71784570740E+02 -0.30139746525E+02  0.84566079126E+02  0.11494716463E+03  0.00000000000E+00 0.  1.
         11    1    3    3    0    0  0.44820659859E+01 -0.49720757041E+02  0.14077532478E+03  0.14936510524E+03  0.00000000000E+00 0. -1.
</event>
<event>
 7    1  0.4274778E-006  0.1080182E+03  0.7561462E-02  0.1264284E+00
          1   -1    0    0  501    0  0.00000000000E+00  0.00000000000E+00  0.11615784493E+04  0.11615784493E+04  0.00000000000E+00 0. -1.
         -1   -1    0    0    0  501 -0.00000000000E+00 -0.00000000000E+00 -0.13022791909E+02  0.13022791909E+02  0.00000000000E+00 0.  1.
         23    2    1    2    0    0  0.42115665475E+02 -0.40096805103E+02  0.50382873199E+03  0.51528218403E+03  0.91054131956E+02 0.  0.
          5    1    1    2  502    0  0.22980089627E+02 -0.10486615707E+02  0.31645908183E+02  0.40706136306E+02  0.41800000000E+01 0.  1.
         -5    1    1    2    0  502 -0.65095755102E+02  0.50583420810E+02  0.61308101725E+03  0.61861292090E+03  0.41800000000E+01 0.  1.
        -11    1    3    3    0    0 -0.26330275504E+02  0.37598819272E+01  0.13626743578E+03  0.13883887847E+03  0.00000000000E+00 0. -1.
         11    1    3    3    0    0  0.68445940979E+02 -0.43856687030E+02  0.36756129620E+03  0.37644330556E+03  0.00000000000E+00 0.  1.
</event>
<event>
 7    1  0.4274778E-006  0.9203048E+02  0.7561462E-02  0.1298008E+00
          2   -1    0    0  501    0  0.00000000000E+00  0.00000000000E+00  0.22265946201E+03  0.22265946201E+03  0.00000000000E+00 0. -1.
         -2   -1    0    0    0  501 -0.00000000000E+00 -0.00000000000E+00 -0.71791790284E+02  0.71791790284E+02  0.00000000000E+00 0.  1.
         23    2    1    2    0    0  0.19685390296E+02 -0.56038403896E+02  0.93395903127E+02  0.14453243703E+03  0.92946292722E+02 0.  0.
          5    1    1    2  502    0  0.15963654864E+00  0.62489489685E+02 -0.22970575644E+02  0.66708931563E+02  0.41800000000E+01 0. -1.
         -5    1    1    2    0  502 -0.19845026844E+02 -0.64510857884E+01  0.80442344246E+02  0.83209883705E+02  0.41800000000E+01 0. -1.
        -11    1    3    3    0    0  0.50994098572E+02 -0.28297710557E+02  0.82981212937E+02  0.10142504726E+03  0.00000000000E+00 0. -1.
         11    1    3    3    0    0 -0.31308708276E+02 -0.27740693339E+02  0.10414690191E+02  0.43107389768E+02  0.00000000000E+00 0.  1.
</event>
<event>
 7    1  0.4274778E-006  0.1057373E+03  0.7561462E-02  0.1268674E+00
         -1   -1    0    0    0  501 -0.00000000000E+00  0.00000000000E+00  0.25800132498E+03  0.25800132498E+03  0.00000000000E+00 0.  1.
          1   -1    0    0  501    0  0.00000000000E+00 -0.00000000000E+00 -0.51406314339E+02  0.51406314339E+02  0.00000000000E+00 0. -1.
         23    2    1    2    0    0  0.26478068631E+02  0.34334672373E+02  0.89336327118E+02  0.13255334423E+03  0.87803484432E+02 0.  0.
          5    1    1    2  502    0 -0.58683668018E+02 -0.60263566848E+02  0.50446223842E+02  0.98172115599E+02  0.41800000000E+01 0.  1.
         -5    1    1    2    0  502  0.32205599387E+02  0.25928894475E+02  0.66812459685E+02  0.78682179493E+02  0.41800000000E+01 0.  1.
        -11    1    3    3    0    0  0.51727079781E+02  0.30800824691E+02  0.28534928977E+02  0.66622997201E+02  0.00000000000E+00 0.  1.
         11    1    3    3    0    0 -0.25249011150E+02  0.35338476813E+01  0.60801398141E+02  0.65930347029E+02  0.00000000000E+00 0. -1.
</event>
<event>
 7    1  0.4274778E-006  0.8388272E+02  0.7561462E-02  0.1318380E+00
         -1   -1    0    0    0  501 -0.00000000000E+00  0.00000000000E+00  0.30543877503E+02  0.30543877503E+02  0.00000000000E+00 0.  1.
          1   -1    0    0  501    0  0.00000000000E+00 -0.00000000000E+00 -0.47696519757E+03  0.47696519757E+03  0.00000000000E+00 0. -1.
         23    2    1    2    0    0  0.28631047936E+02  0.25139905685E+02 -0.25866323732E+03  0.27869734406E+03  0.96507965885E+02 0.  0.
          5    1    1    2  502    0 -0.49505243282E+02 -0.18930672913E+02 -0.15848556033E+02  0.55477820953E+02  0.41800000000E+01 0.  1.
         -5    1    1    2    0  502  0.20874195346E+02 -0.62092327720E+01 -0.17190952672E+03  0.17333391007E+03  0.41800000000E+01 0.  1.
        -11    1    3    3    0    0  0.29904477404E+02 -0.26987146383E+02 -0.53249661245E+02  0.66769081628E+02  0.00000000000E+00 0.  1.
         11    1    3    3    0    0 -0.12734294678E+01  0.52127052068E+02 -0.20541357607E+03  0.21192826243E+03  0.00000000000E+00 0. -1.
</event>
<event>
 7    1  0.4274778E-006  0.9804894E+02  0.7561462E-02  0.1284453E+00
         -3   -1    0    0    0  501 -0.00000000000E+00  0.00000000000E+00  0.68266988886E+03  0.68266988886E+03  0.00000000000E+00 0.  1.
          3   -1    0    0  501    0  0.00000000000E+00 -0.00000000000E+00 -0.20328730287E+02  0.20328730287E+02  0.00000000000E+00 0. -1.
         23    2    1    2    0    0  0.25818836626E+02 -0.10109123519E+02  0.13928179929E+03  0.16585217846E+03  0.85666322339E+02 0.  0.
          5    1    1    2  502    0 -0.37544558422E+02  0.59374218411E+02  0.26880402303E+03  0.27786321613E+03  0.41800000000E+01 0. -1.
         -5    1    1    2    0  502  0.11725721797E+02 -0.49265094892E+02  0.25425533625E+03  0.25928322456E+03  0.41800000000E+01 0.  1.
        -11    1    3    3    0    0 -0.16692524805E+02 -0.24833399678E+02  0.10530734148E+03  0.10947590736E+03  0.00000000000E+00 0.  1.
         11    1    3    3    0    0  0.42511361431E+02  0.14724276159E+02  0.33974457816E+02  0.56376271099E+02  0.00000000000E+00 0. -1.
</event>
<event>
 7    1  0.4274778E-006  0.5541969E+03  0.7561462E-02  0.1000527E+00
         -1   -1    0    0    0  501 -0.00000000000E+00  0.00000000000E+00  0.59842261481E+03  0.59842261481E+03  0.00000000000E+00 0.  1.
          1   -1    0    0  501    0  0.00000000000E+00 -0.00000000000E+00 -0.55566376442E+03  0.55566376442E+03  0.00000000000E+00 0. -1.
         23    2    1    2    0    0 -0.36880449032E+03 -0.40326604962E+03 -0.12678350687E+03  0.56839430782E+03  0.91420854784E+02 0.  0.
          5    1    1    2  502    0  0.19848895992E+03  0.30211883115E+03  0.92930111248E+02  0.37326549977E+03  0.41800000000E+01 0.  1.
         -5    1    1    2    0  502  0.17031553040E+03  0.10114721847E+03  0.76612246005E+02  0.21242657164E+03  0.41800000000E+01 0.  1.
        -11    1    3    3    0    0 -0.32400499277E+03 -0.32722569819E+03 -0.13467922982E+03  0.47978577286E+03  0.00000000000E+00 0.  1.
         11    1    3    3    0    0 -0.44799497555E+02 -0.76040351428E+02  0.78957229513E+01  0.88608534958E+02  0.00000000000E+00 0. -1.
</event>
<event>
 7    1  0.4274778E-006  0.1100728E+03  0.7561462E-02  0.1260435E+00
         -1   -1    0    0    0  501 -0.00000000000E+00  0.00000000000E+00  0.44984855980E+02  0.44984855980E+02  0.00000000000E+00 0.  1.
          1   -1    0    0  501    0  0.00000000000E+00 -0.00000000000E+00 -0.48086321505E+03  0.48086321505E+03  0.00000000000E+00 0. -1.
         23    2    1    2    0    0  0.59467051572E+02  0.56083595477E+02 -0.32162383574E+03  0.34290352505E+03  0.86366867913E+02 0.  0.
          5    1    1    2  502    0  0.55289113233E+01 -0.44480400818E+02 -0.10737756361E+03  0.11643233436E+03  0.41800000000E+01 0. -1.
         -5    1    1    2    0  502 -0.64995962895E+02 -0.11603194659E+02 -0.68769597159E+01  0.66512211615E+02  0.41800000000E+01 0.  1.
        -11    1    3    3    0    0  0.38388531094E+02 -0.99495630174E+01 -0.57595067394E+02  0.69927569041E+02  0.00000000000E+00 0.  1.
         11    1    3    3    0    0  0.21078520477E+02  0.66033158494E+02 -0.26402876835E+03  0.27297595601E+03  0.00000000000E+00 0. -1.
</event>
<event>
 7    1  0.4274778E-006  0.1696908E+03  0.7561462E-02  0.1178171E+00
         -1   -1    0    0    0  501 -0.00000000000E+00  0.00000000000E+00  0.80788208245E+03  0.80788208245E+03  0.00000000000E+00 0.  1.
          1   -1    0    0  501    0  0.00000000000E+00 -0.00000000000E+00 -0.46568388408E+02  0.46568388408E+02  0.00000000000E+00 0. -1.
         23    2    1    2    0    0  0.66271541516E+02 -0.11252155738E+03  0.15638972806E+03  0.22307459645E+03  0.90837825000E+02 0.  0.
          5    1    1    2  502    0  0.23417227891E+02 -0.12526546806E+02  0.87505078532E+02  0.91541750616E+02  0.41800000000E+01 0.  1.
         -5    1    1    2    0  502 -0.89688769407E+02  0.12504810418E+03  0.51741888745E+03  0.53983412379E+03  0.41800000000E+01 0.  1.
        -11    1    3    3    0    0  0.50994187282E+01 -0.94702229587E+02  0.10228076137E+03  0.13948430201E+03  0.00000000000E+00 0. -1.
         11    1    3    3    0    0  0.61172122788E+02 -0.17819327789E+02  0.54108966689E+02  0.83590294445E+02  0.00000000000E+00 0.  1.
</event>
<event>
 7    1  0.4274778E-006  0.1855878E+03  0.7561462E-02  0.1162502E+00
          2   -1    0    0  501    0  0.00000000000E+00  0.00000000000E+00  0.50816030987E+03  0.50816030987E+03  0.00000000000E+00 0. -1.
         -2   -1    0    0    0  501 -0.00000000000E+00 -0.00000000000E+00 -0.74033020703E+02  0.74033020703E+02  0.00000000000E+00 0.  1.
         23    2    1    2    0    0  0.40890780655E+02 -0.95809941671E+02  0.90164221600E+02  0.16572238503E+03  0.92101689337E+02 0.  0.
          5    1    1    2  502    0  0.79175741118E+02 -0.10151103265E+01  0.13742743819E+03  0.15866190972E+03  0.41800000000E+01 0. -1.
         -5    1    1    2    0  502 -0.12006652177E+03  0.96825051997E+02  0.20653562938E+03  0.25780903582E+03  0.41800000000E+01 0.  1.
        -11    1    3    3    0    0 -0.17079265664E+02  0.78638205497E+01  0.46717163759E+01  0.19374362523E+02  0.00000000000E+00 0.  1.
         11    1    3    3    0    0  0.57970046319E+02 -0.10367376222E+03  0.85492505224E+02  0.14634802251E+03  0.00000000000E+00 0. -1.
</event>
<event>
 7    1  0.4274778E-006  0.1337301E+03  0.7561462E-02  0.1222024E+00
         -1   -1    0    0    0  501 -0.00000000000E+00  0.00000000000E+00  0.14417318924E+03  0.14417318924E+03  0.00000000000E+00 0. -1.
          1   -1    0    0  501    0  0.00000000000E+00 -0.00000000000E+00 -0.16584720763E+03  0.16584720763E+03  0.00000000000E+00 0.  1.
         23    2    1    2    0    0 -0.82907407370E+02 -0.15114359766E+01 -0.80305727595E+02  0.14889567243E+03  0.94047800337E+02 0.  0.
          5    1    1    2  502    0  0.10625645626E+03 -0.22244370486E+02  0.20921227950E+02  0.11063641667E+03  0.41800000000E+01 0.  1.
         -5    1    1    2    0  502 -0.23349048890E+02  0.23755806462E+02  0.37710481255E+02  0.50488307767E+02  0.41800000000E+01 0.  1.
        -11    1    3    3    0    0 -0.10272132434E+03  0.84572266086E+01 -0.68657049811E+02  0.12384258413E+03  0.00000000000E+00 0.  1.
         11    1    3    3    0    0  0.19813916966E+02 -0.99686625853E+01 -0.11648677784E+02  0.25053088300E+02  0.00000000000E+00 0. -1.
</event>
<event>
 7    1  0.4274778E-006  0.1669398E+03  0.7561462E-02  0.1181077E+00
          3   -1    0    0  501    0  0.00000000000E+00  0.00000000000E+00  0.15542706681E+03  0.15542706681E+03  0.00000000000E+00 0. -1.
         -3   -1    0    0    0  501 -0.00000000000E+00 -0.00000000000E+00 -0.21278108220E+03  0.21278108220E+03  0.00000000000E+00 0.  1.
         23    2    1    2    0    0 -0.11598587863E+03  0.85977098025E+02 -0.76612821373E+01  0.17082708348E+03  0.90985777908E+02 0.  0.
          5    1    1    2  502    0 -0.19202336139E+02 -0.31567157151E+02 -0.34639723534E+02  0.50819267707E+02  0.41800000000E+01 0. -1.
         -5    1    1    2    0  502  0.13518821477E+03 -0.54409940874E+02 -0.15053009718E+02  0.14656179782E+03  0.41800000000E+01 0. -1.
        -11    1    3    3    0    0 -0.10403725555E+03  0.54944099396E+02 -0.40169863578E+02  0.12432305716E+03  0.00000000000E+00 0.  1.
         11    1    3    3    0    0 -0.11948623080E+02  0.31032998629E+02  0.32508581441E+02  0.46504026328E+02  0.00000000000E+00 0. -1.
</event>
<event>
 7    1  0.4274778E-006  0.9634480E+02  0.7561462E-02  0.1288176E+00
          2   -1    0    0  501    0  0.00000000000E+00  0.00000000000E+00  0.44660753026E+02  0.44660753026E+02  0.00000000000E+00 0. -1.
         -2   -1    0    0    0  501 -0.00000000000E+00 -0.00000000000E+00 -0.40607193599E+03  0.40607193599E+03  0.00000000000E+00 0.  1.
         23    2    1    2    0    0  0.53690970630E+02  0.28121281971E+02 -0.75105652736E+02  0.13246975357E+03  0.90740562650E+02 0.  0.
          5    1    1    2  502    0 -0.48849120586E+02  0.35315913533E+02 -0.21155227629E+03  0.22001201861E+03  0.41800000000E+01 0. -1.
         -5    1    1    2    0  502 -0.48418500435E+01 -0.63437195504E+02 -0.74753253942E+02  0.98250916841E+02  0.41800000000E+01 0. -1.
        -11    1    3    3    0    0  0.83429521155E+01  0.21009733117E+02 -0.82885511619E+02  0.85912873145E+02  0.00000000000E+00 0.  1.
         11    1    3    3    0    0  0.45348018514E+02  0.71115488534E+01  0.77798588831E+01  0.46556880421E+02  0.00000000000E+00 0. -1.
</event>
<event>
 7    1  0.4274778E-006  0.1370318E+03  0.7561462E-02  0.1217380E+00
         -4   -1    0    0    0  501 -0.00000000000E+00  0.00000000000E+00  0.10496391372E+03  0.10496391372E+03  0.00000000000E+00 0.  1.
          4   -1    0    0  501    0  0.00000000000E+00 -0.00000000000E+00 -0.21550919266E+03  0.21550919266E+03  0.00000000000E+00 0. -1.
         23    2    1    2    0    0  0.85920558999E+01 -0.10281269460E+03 -0.69063312756E+02  0.15309255683E+03  0.89572965747E+02 0.  0.
          5    1    1    2  502    0 -0.48145549547E+02  0.11138530849E+03 -0.32944560157E+02  0.12580738187E+03  0.41800000000E+01 0.  1.
         -5    1    1    2    0  502  0.39553493647E+02 -0.85726138921E+01 -0.85374060311E+01  0.41573167673E+02  0.41800000000E+01 0.  1.
        -11    1    3    3    0    0  0.22941962274E+02 -0.30112276581E+02  0.15277102123E+02  0.40822453174E+02  0.00000000000E+00 0.  1.
         11    1    3    3    0    0 -0.14349906374E+02 -0.72700418020E+02 -0.84340414879E+02  0.11227010366E+03  0.00000000000E+00 0. -1.
</event>
<event>
 7    1  0.4274778E-006  0.2035406E+03  0.7561462E-02  0.1146786E+00
          2   -1    0    0  501    0  0.00000000000E+00  0.00000000000E+00  0.43105742946E+03  0.43105742946E+03  0.00000000000E+00 0. -1.
         -2   -1    0    0    0  501 -0.00000000000E+00 -0.00000000000E+00 -0.14132255312E+03  0.14132255312E+03  0.00000000000E+00 0.  1.
         23    2    1    2    0    0  0.14825862744E+03 -0.11269750547E+03  0.28008062491E+03  0.34782931456E+03  0.88649462853E+02 0.  0.
          5    1    1    2  502    0 -0.88488687849E+02  0.12230724626E+03  0.40673360872E+02  0.15640046371E+03  0.41800000000E+01 0.  1.
         -5    1    1    2    0  502 -0.59769939591E+02 -0.96097407910E+01 -0.31019109447E+02  0.68150204311E+02  0.41800000000E+01 0.  1.
        -11    1    3    3    0    0  0.60329506318E+02 -0.11671107767E+02  0.41254151409E+02  0.74011952397E+02  0.00000000000E+00 0.  1.
         11    1    3    3    0    0  0.87929121121E+02 -0.10102639770E+03  0.23882647350E+03  0.27381736216E+03  0.00000000000E+00 0. -1.
</event>
<event>
 7    1  0.4274778E-006  0.8312742E+02  0.7561462E-02  0.1320403E+00
         -2   -1    0    0    0  501 -0.00000000000E+00  0.00000000000E+00  0.51740408064E+02  0.51740408064E+02  0.00000000000E+00 0.  1.
          2   -1    0    0  501    0  0.00000000000E+00 -0.00000000000E+00 -0.32815603607E+03  0.32815603607E+03  0.00000000000E+00 0. -1.
         23    2    1    2    0    0  0.37998941378E+02  0.60615034990E+02 -0.13948145775E+03  0.18112491481E+03  0.90736187359E+02 0.  0.
          5    1    1    2  502    0 -0.16217873046E+02 -0.37890827620E+02 -0.15622041401E+03  0.16161999993E+03  0.41800000000E+01 0. -1.
         -5    1    1    2    0  502 -0.21781068332E+02 -0.22724207370E+02  0.19286243752E+02  0.37151529395E+02  0.41800000000E+01 0. -1.
        -11    1    3    3    0    0 -0.15839407187E+02  0.20643187829E+02  0.37719929152E+00  0.26022496096E+02  0.00000000000E+00 0.  1.
         11    1    3    3    0    0  0.53838348565E+02  0.39971847161E+02 -0.13985865704E+03  0.15510241871E+03  0.00000000000E+00 0. -1.
</event>
<event>
 7    1  0.4274778E-006  0.9496462E+02  0.7561462E-02  0.1291256E+00
          1   -1    0    0  501    0  0.00000000000E+00  0.00000000000E+00  0.44254017593E+03  0.44254017593E+03  0.00000000000E+00 0. -1.
         -1   -1    0    0    0  501 -0.00000000000E+00 -0.00000000000E+00 -0.25186087302E+02  0.25186087302E+02  0.00000000000E+00 0.  1.
         23    2    1    2    0    0 -0.79977901267E+01  0.44805653227E+01  0.17548812664E+03  0.19527394425E+03  0.85157445934E+02 0.  0.
          5    1    1    2  502    0 -0.32707570320E+02  0.46976176377E+02  0.13886628728E+03  0.15025932399E+03  0.41800000000E+01 0.  1.
         -5    1    1    2    0  502  0.40705360447E+02 -0.51456741699E+02  0.10299967471E+03  0.12219299499E+03  0.41800000000E+01 0.  1.
        -11    1    3    3    0    0  0.28591753950E+02 -0.49259107169E+01  0.14153913501E+03  0.14448210869E+03  0.00000000000E+00 0. -1.
         11    1    3    3    0    0 -0.36589544076E+02  0.94064760396E+01  0.33948991626E+02  0.50791835560E+02  0.00000000000E+00 0.  1.
</event>
<event>
 7    1  0.4274778E-006  0.1315633E+03  0.7561462E-02  0.1225154E+00
         -2   -1    0    0    0  501 -0.00000000000E+00  0.00000000000E+00  0.71793702011E+03  0.71793702011E+03  0.00000000000E+00 0.  1.
          2   -1    0    0  501    0  0.00000000000E+00 -0.00000000000E+00 -0.31630206726E+02  0.31630206726E+02  0.00000000000E+00 0. -1.
         23    2    1    2    0    0 -0.78875145343E+02  0.53980976186E+02  0.33642998832E+03  0.36588285509E+03  0.10747042510E+03 0.  0.
          5    1    1    2  502    0  0.10166120042E+03 -0.64093563273E+01  0.19539826527E+03  0.22039517687E+03  0.41800000000E+01 0. -1.
         -5    1    1    2    0  502 -0.22786055082E+02 -0.47571619859E+02  0.15447855980E+03  0.16328919486E+03  0.41800000000E+01 0. -1.
        -11    1    3    3    0    0 -0.50477306848E+02  0.38173720210E+01  0.28231649228E+03  0.28681898934E+03  0.00000000000E+00 0.  1.
         11    1    3    3    0    0 -0.28397838495E+02  0.50163604165E+02  0.54113496037E+02  0.79063865750E+02  0.00000000000E+00 0. -1.
</event>
<event>
 7    1  0.4274778E-006  0.3397066E+03  0.7561462E-02  0.1066921E+00
         -2   -1    0    0    0  501 -0.00000000000E+00  0.00000000000E+00  0.29949512135E+03  0.29949512135E+03  0.00000000000E+00 0.  1.
          2   -1    0    0  501    0  0.00000000000E+00 -0.00000000000E+00 -0.78333780084E+03  0.78333780084E+03  0.00000000000E+00 0. -1.
         23    2    1    2    0    0  0.31720093318E+03  0.81093853957E+02 -0.61986702660E+03  0.70687540893E+03  0.90802356405E+02 0.  0.
          5    1    1    2  502    0 -0.29198573569E+03 -0.10300600925E+03  0.14378979295E+03  0.34140721249E+03  0.41800000000E+01 0. -1.
         -5    1    1    2    0  502 -0.25215197494E+02  0.21912155290E+02 -0.77654458427E+01  0.34550300770E+02  0.41800000000E+01 0. -1.
        -11    1    3    3    0    0  0.23232279344E+03  0.23468323940E+02 -0.47583977073E+03  0.53004540371E+03  0.00000000000E+00 0. -1.
         11    1    3    3    0    0  0.84878139742E+02  0.57625530016E+02 -0.14402725586E+03  0.17683000522E+03  0.00000000000E+00 0.  1.
</event>
<event>
 7    1  0.4274778E-006  0.1261080E+03  0.7561462E-02  0.1233348E+00
          1   -1    0    0  501    0  0.00000000000E+00  0.00000000000E+00  0.20010833882E+03  0.20010833882E+03  0.00000000000E+00 0. -1.
         -1   -1    0    0    0  501 -0.00000000000E+00 -0.00000000000E+00 -0.13822398221E+03  0.13822398221E+03  0.00000000000E+00 0.  1.
         23    2    1    2    0    0 -0.46278327696E+02 -0.65939377363E+02  0.12685063571E+03  0.17597870797E+03  0.91584588107E+02 0.  0.
          5    1    1    2  502    0  0.63331865492E+02 -0.15476933891E+02 -0.24702809830E+02  0.69843839262E+02  0.41800000000E+01 0. -1.
         -5    1    1    2    0  502 -0.17053537797E+02  0.81416311254E+02 -0.40263469265E+02  0.92509773791E+02  0.41800000000E+01 0. -1.
        -11    1    3    3    0    0 -0.59934759052E+02 -0.34105793089E+02  0.12314938887E+03  0.14114231273E+03  0.00000000000E+00 0. -1.
         11    1    3    3    0    0  0.13656431357E+02 -0.31833584274E+02  0.37012468402E+01  0.34836395240E+02  0.00000000000E+00 0.  1.
</event>
<event>
 7    1  0.4274778E-006  0.1258565E+03  0.7561462E-02  0.1233737E+00
         -2   -1    0    0    0  501 -0.00000000000E+00  0.00000000000E+00  0.33111576500E+02  0.33111576500E+02  0.00000000000E+00 0.  1.
          2   -1    0    0  501    0  0.00000000000E+00 -0.00000000000E+00 -0.64061462364E+03  0.64061462364E+03  0.00000000000E+00 0. -1.
         23    2    1    2    0    0 -0.19992054693E+02  0.93824817552E+02 -0.24796073323E+03  0.28114450565E+03  0.91405301792E+02 0.  0.
          5    1    1    2  502    0  0.55322249586E+02 -0.50783084892E+02 -0.89878660872E+02  0.11719692441E+03  0.41800000000E+01 0.  1.
         -5    1    1    2    0  502 -0.35330194893E+02 -0.43041732660E+02 -0.26966365304E+03  0.27538477008E+03  0.41800000000E+01 0.  1.
        -11    1    3    3    0    0 -0.46559696631E+02  0.43337162211E+02 -0.71538789677E+02  0.95727286640E+02  0.00000000000E+00 0.  1.
         11    1    3    3    0    0  0.26567641938E+02  0.50487655340E+02 -0.17642194355E+03  0.18541721901E+03  0.00000000000E+00 0. -1.
</event>
<event>
 7    1  0.4274778E-006  0.9070756E+02  0.7561462E-02  0.1301147E+00
          2   -1    0    0  501    0  0.00000000000E+00  0.00000000000E+00  0.43143696296E+02  0.43143696296E+02  0.00000000000E+00 0.  1.
         -2   -1    0    0    0  501 -0.00000000000E+00 -0.00000000000E+00 -0.35644799664E+03  0.35644799664E+03  0.00000000000E+00 0. -1.
         23    2    1    2    0    0  0.42806207537E+02 -0.22244456239E+02 -0.86475570986E+02  0.13610301654E+03  0.93374619128E+02 0.  0.
          5    1    1    2  502    0 -0.23929906785E+02  0.57235598679E+02 -0.21186905525E+03  0.22080426438E+03  0.41800000000E+01 0.  1.
         -5    1    1    2    0  502 -0.18876300752E+02 -0.34991142440E+02 -0.14959674101E+02  0.42684412009E+02  0.41800000000E+01 0.  1.
        -11    1    3    3    0    0  0.20289653735E+02 -0.43686307112E+02 -0.44393256718E+01  0.48372214030E+02  0.00000000000E+00 0.  1.
         11    1    3    3    0    0  0.22516553802E+02  0.21441850873E+02 -0.82036245314E+02  0.87730802511E+02  0.00000000000E+00 0. -1.
</event>
<event>
 7    1  0.4274778E-006  0.9768523E+02  0.7561462E-02  0.1285240E+00
          1   -1    0    0  501    0  0.00000000000E+00  0.00000000000E+00  0.79821670777E+02  0.79821670777E+02  0.00000000000E+00 0. -1.
         -1   -1    0    0    0  501 -0.00000000000E+00 -0.00000000000E+00 -0.56114991224E+03  0.56114991224E+03  0.00000000000E+00 0.  1.
         23    2    1    2    0    0 -0.98312022801E+01 -0.17425424105E+02  0.43044904533E+02  0.10151387057E+03  0.89732403110E+02 0.  0.
          5    1    1    2  502    0 -0.44481035357E+02  0.19893584208E+02 -0.40825243483E+03  0.41117130267E+03  0.41800000000E+01 0.  1.
         -5    1    1    2    0  502  0.54312237637E+02 -0.24681601033E+01 -0.11612071117E+03  0.12828640978E+03  0.41800000000E+01 0.  1.
        -11    1    3    3    0    0  0.28953324474E+02 -0.38204107246E+02  0.22389001865E+02  0.52906674561E+02  0.00000000000E+00 0.  1.
         11    1    3    3    0    0 -0.38784526754E+02  0.20778683141E+02  0.20655902667E+02  0.48607196007E+02  0.00000000000E+00 0. -1.
</event>
<event>
 7    1  0.4274778E-006  0.1169052E+03  0.7561462E-02  0.1248292E+00
          1   -1    0    0  501    0  0.00000000000E+00  0.00000000000E+00  0.20719000893E+03  0.20719000893E+03  0.00000000000E+00 0. -1.
         -1   -1    0    0    0  501 -0.00000000000E+00 -0.00000000000E+00 -0.85259627550E+02  0.85259627550E+02  0.00000000000E+00 0.  1.
         23    2    1    2    0    0 -0.24743308422E+02  0.72472368355E+02  0.69727372526E+02  0.13901712280E+03  0.92732833802E+02 0.  0.
          5    1    1    2  502    0  0.10257264929E+02 -0.95338167231E+02  0.71707546119E+02  0.11980827261E+03  0.41800000000E+01 0. -1.
         -5    1    1    2    0  502  0.14486043494E+02  0.22865798875E+02 -0.19504537261E+02  0.33624241078E+02  0.41800000000E+01 0.  1.
        -11    1    3    3    0    0 -0.64077395570E+01  0.86884313708E+02  0.28523137929E+02  0.91670674112E+02  0.00000000000E+00 0.  1.
         11    1    3    3    0    0 -0.18335568865E+02 -0.14411945353E+02  0.41204234597E+02  0.47346448686E+02  0.00000000000E+00 0. -1.
</event>
<event>
 7    1  0.4274778E-006  0.2605671E+03  0.7561462E-02  0.1106803E+00
         -2   -1    0    0    0  501 -0.00000000000E+00  0.00000000000E+00  0.35575764890E+02  0.35575764890E+02  0.00000000000E+00 0.  1.
          2   -1    0    0  501    0  0.00000000000E+00 -0.00000000000E+00 -0.19614101845E+04  0.19614101845E+04  0.00000000000E+00 0. -1.
         23    2    1    2    0    0  0.98210350068E+02  0.21648516422E+03 -0.10968979386E+04  0.11256107518E+04  0.85459801165E+02 0.  0.
          5    1    1    2  502    0 -0.12517346340E+03 -0.14246318442E+03 -0.59269419573E+03  0.62230863477E+03  0.41800000000E+01 0.  1.
         -5    1    1    2    0  502  0.26963113337E+02 -0.74021979799E+02 -0.23624228525E+03  0.24906656282E+03  0.41800000000E+01 0.  1.
        -11    1    3    3    0    0 -0.15920714019E+02  0.25114482372E+02 -0.13725063746E+03  0.14043483843E+03  0.00000000000E+00 0. -1.
         11    1    3    3    0    0  0.11413106409E+03  0.19137068185E+03 -0.95964730118E+03  0.98517591339E+03  0.00000000000E+00 0.  1.
</event>
<event>
 7    1  0.4274778E-006  0.1062367E+03  0.7561462E-02  0.1267702E+00
          2   -1    0    0  501    0  0.00000000000E+00  0.00000000000E+00  0.23939513846E+02  0.23939513846E+02  0.00000000000E+00 0. -1.
         -2   -1    0    0    0  501 -0.00000000000E+00 -0.00000000000E+00 -0.60172666607E+03  0.60172666607E+03  0.00000000000E+00 0.  1.
         23    2    1    2    0    0 -0.25873867493E+02  0.43001426783E+02 -0.26146424845E+03  0.28182557651E+03  0.92431177812E+02 0.  0.
          5    1    1    2  502    0  0.14864274762E+02 -0.80541351880E+02 -0.13227313029E+03  0.15563261041E+03  0.41800000000E+01 0.  1.
         -5    1    1    2    0  502  0.11009592731E+02  0.37539925098E+02 -0.18404977349E+03  0.18820799300E+03  0.41800000000E+01 0.  1.
        -11    1    3    3    0    0  0.19279147837E+02  0.41709913646E+02 -0.20194150119E+03  0.20710328906E+03  0.00000000000E+00 0.  1.
         11    1    3    3    0    0 -0.45153015330E+02  0.12915131361E+01 -0.59522747259E+02  0.74722287444E+02  0.00000000000E+00 0. -1.
</event>
<event>
 7    1  0.4274778E-006  0.1303314E+03  0.7561462E-02  0.1226965E+00
         -3   -1    0    0    0  501 -0.00000000000E+00  0.00000000000E+00  0.45448155193E+02  0.45448155193E+02  0.00000000000E+00 0.  1.
          3   -1    0    0  501    0  0.00000000000E+00 -0.00000000000E+00 -0.41837307464E+03  0.41837307464E+03  0.00000000000E+00 0. -1.
         23    2    1    2    0    0  0.61950100706E+02  0.57128134041E+02 -0.21840965151E+03  0.25134387680E+03  0.91485134612E+02 0.  0.
          5    1    1    2  502    0  0.22916129172E+02  0.14327546397E+02 -0.76999839022E+01  0.28411084352E+02  0.41800000000E+01 0. -1.
         -5    1    1    2    0  502 -0.84866229878E+02 -0.71455680438E+02 -0.14681528404E+03  0.18406626869E+03  0.41800000000E+01 0.  1.
        -11    1    3    3    0    0 -0.20826486183E+02 -0.14658142140E+01 -0.22205957989E+02  0.30479430904E+02  0.00000000000E+00 0.  1.
         11    1    3    3    0    0  0.82776586889E+02  0.58593948255E+02 -0.19620369352E+03  0.22086444590E+03  0.00000000000E+00 0. -1.
</event>
<event>
 7    1  0.4274778E-006  0.1386832E+03  0.7561462E-02  0.1215112E+00
          1   -1    0    0  501    0  0.00000000000E+00  0.00000000000E+00  0.78413833088E+03  0.78413833088E+03  0.00000000000E+00 0. -1.
         -1   -1    0    0    0  501 -0.00000000000E+00 -0.00000000000E+00 -0.27508431350E+02  0.27508431350E+02  0.00000000000E+00 0.  1.
         23    2    1    2    0    0 -0.29032260231E+02  0.89613463624E+02  0.43336153909E+03  0.45244906451E+03  0.89635302279E+02 0.  0.
          5    1    1    2  502    0  0.62987011450E+02 -0.97799426156E+01  0.90672253192E+02  0.11091411447E+03  0.41800000000E+01 0.  1.
         -5    1    1    2    0  502 -0.33954751220E+02 -0.79833521008E+02  0.23259610725E+03  0.24828358325E+03  0.41800000000E+01 0.  1.
        -11    1    3    3    0    0 -0.20228434971E+01 -0.16761154695E+02  0.30010810056E+02  0.34433659735E+02  0.00000000000E+00 0.  1.
         11    1    3    3    0    0 -0.27009416733E+02  0.10637461832E+03  0.40335072904E+03  0.41801540478E+03  0.00000000000E+00 0. -1.
</event>
<event>
 7    1  0.4274778E-006  0.5950624E+02  0.7561462E-02  0.1399916E+00
         -1   -1    0    0    0  501 -0.00000000000E+00  0.00000000000E+00  0.26104394584E+02  0.26104394584E+02  0.00000000000E+00 0.  1.
          1   -1    0    0  501    0  0.00000000000E+00 -0.00000000000E+00 -0.48170715849E+03  0.48170715849E+03  0.00000000000E+00 0. -1.
         23    2    1    2    0    0 -0.17395447313E+02  0.39252374039E+00 -0.24691044217E+03  0.26388021633E+03  0.91461721239E+02 0.  0.
          5    1    1    2  502    0  0.15091480395E+02 -0.75260604192E+01 -0.22491126517E+03  0.22558134668E+03  0.41800000000E+01 0.  1.
         -5    1    1    2    0  502  0.23039669172E+01  0.71335366788E+01  0.16218943444E+02  0.18349990069E+02  0.41800000000E+01 0.  1.
        -11    1    3    3    0    0 -0.53005334873E+02  0.14180053822E+02 -0.14968840377E+03  0.15942790745E+03  0.00000000000E+00 0.  1.
         11    1    3    3    0    0  0.35609887560E+02 -0.13787530081E+02 -0.97222038407E+02  0.10445230888E+03  0.00000000000E+00 0. -1.
</event>
<event>
 7    1  0.4274778E-006  0.1091444E+03  0.7561462E-02  0.1262162E+00
         -2   -1    0    0    0  501 -0.00000000000E+00  0.00000000000E+00  0.25205632711E+03  0.25205632711E+03  0.00000000000E+00 0.  1.
          2   -1    0    0  501    0  0.00000000000E+00 -0.00000000000E+00 -0.68217240496E+02  0.68217240496E+02  0.00000000000E+00 0. -1.
         23    2    1    2    0    0  0.21281945915E+02  0.61863791522E+02  0.44473189823E+02  0.12190344029E+03  0.92749847536E+02 0.  0.
          5    1    1    2  502    0 -0.34331009190E+02 -0.81711944446E+02  0.42196258705E+02  0.98252006116E+02  0.41800000000E+01 0. -1.
         -5    1    1    2    0  502  0.13049063274E+02  0.19848152923E+02  0.97169638085E+02  0.10011812120E+03  0.41800000000E+01 0. -1.
        -11    1    3    3    0    0 -0.31372977450E+02  0.14277023362E+02 -0.57681506159E+01  0.34948085379E+02  0.00000000000E+00 0. -1.
         11    1    3    3    0    0  0.52654923365E+02  0.47586768160E+02  0.50241340439E+02  0.86955354910E+02  0.00000000000E+00 0.  1.
</event>
<event>
 7    1  0.4274778E-006  0.1215727E+03  0.7561462E-02  0.1240525E+00
          1   -1    0    0  501    0  0.00000000000E+00  0.00000000000E+00  0.63059936103E+03  0.63059936103E+03  0.00000000000E+00 0. -1.
         -1   -1    0    0    0  501 -0.00000000000E+00 -0.00000000000E+00 -0.27381322894E+02  0.27381322894E+02  0.00000000000E+00 0.  1.
         23    2    1    2    0    0  0.38791489933E+02 -0.59573824226E+02  0.32238027300E+03  0.34243225332E+03  0.90977950478E+02 0.  0.
          5    1    1    2  502    0 -0.69013630218E+02  0.28390350544E+01  0.20323608346E+03  0.21469354741E+03  0.41800000000E+01 0.  1.
         -5    1    1    2    0  502  0.30222140285E+02  0.56734789171E+02  0.77601681675E+02  0.10085488320E+03  0.41800000000E+01 0.  1.
        -11    1    3    3    0    0 -0.72721353676E+01  0.17941829304E+02  0.11019457924E+03  0.11188225278E+03  0.00000000000E+00 0. -1.
         11    1    3    3    0    0  0.46063625300E+02 -0.77515653530E+02  0.21218569376E+03  0.23055000055E+03  0.00000000000E+00 0.  1.
</event>
<event>
 7    1  0.4274778E-006  0.8990452E+02  0.7561462E-02  0.1303083E+00
         -2   -1    0    0    0  501 -0.00000000000E+00  0.00000000000E+00  0.11289179272E+03  0.11289179272E+03  0.00000000000E+00 0. -1.
          2   -1    0    0  501    0  0.00000000000E+00 -0.00000000000E+00 -0.23290213866E+03  0.23290213866E+03  0.00000000000E+00 0.  1.
         23    2    1    2    0    0  0.95226558473E+01 -0.60500476864E+02 -0.16577431790E+03  0.19919055061E+03  0.91895387823E+02 0.  0.
          5    1    1    2  502    0 -0.17222932253E+02  0.15222753902E+02 -0.41658428537E+02  0.47762524011E+02  0.41800000000E+01 0.  1.
         -5    1    1    2    0  502  0.77002764053E+01  0.45277722962E+02  0.87422400499E+02  0.98840856746E+02  0.41800000000E+01 0.  1.
        -11    1    3    3    0    0  0.49954332527E+02 -0.44313755121E+02 -0.96035629017E+02  0.11697002296E+03  0.00000000000E+00 0. -1.
         11    1    3    3    0    0 -0.40431676680E+02 -0.16186721743E+02 -0.69738688883E+02  0.82220527650E+02  0.00000000000E+00 0.  1.
</event>
<event>
 7    1  0.4274778E-006  0.9023890E+02  0.7561462E-02  0.1302274E+00
         -1   -1    0    0    0  501 -0.00000000000E+00  0.00000000000E+00  0.58624296851E+02  0.58624296851E+02  0.00000000000E+00 0.  1.
          1   -1    0    0  501    0  0.00000000000E+00 -0.00000000000E+00 -0.25811724649E+03  0.25811724649E+03  0.00000000000E+00 0. -1.
         23    2    1    2    0    0  0.34513883857E+02  0.19611877446E+02 -0.14724135888E+03  0.17548349466E+03  0.86825141632E+02 0.  0.
          5    1    1    2  502    0 -0.26754633074E+00  0.29543885970E+02 -0.72081864036E+02  0.78013975044E+02  0.41800000000E+01 0. -1.
         -5    1    1    2    0  502 -0.34246337526E+02 -0.49155763416E+02  0.19830273277E+02  0.63244073630E+02  0.41800000000E+01 0. -1.
        -11    1    3    3    0    0 -0.15185633425E+01  0.45935177298E+02 -0.10230563156E+03  0.11215519960E+03  0.00000000000E+00 0. -1.
         11    1    3    3    0    0  0.36032447200E+02 -0.26323299852E+02 -0.44935727315E+02  0.63328295063E+02  0.00000000000E+00 0.  1.
</event>
<event>
 7    1  0.4274778E-006  0.1230180E+03  0.7561462E-02  0.1238200E+00
          1   -1    0    0  501    0  0.00000000000E+00  0.00000000000E+00  0.20636207885E+03  0.20636207885E+03  0.00000000000E+00 0. -1.
         -1   -1    0    0    0  501 -0.00000000000E+00 -0.00000000000E+00 -0.34409507621E+03  0.34409507621E+03  0.00000000000E+00 0.  1.
         23    2    1    2    0    0  0.18057277032E+02  0.33508643820E+02  0.17687334085E+03  0.20244227793E+03  0.90828424651E+02 0.  0.
          5    1    1    2  502    0  0.56822027852E+02 -0.45401213564E+02 -0.15368919689E+03  0.17008190580E+03  0.41800000000E+01 0. -1.
         -5    1    1    2    0  502 -0.74879304884E+02  0.11892569744E+02 -0.16091714132E+03  0.17793297133E+03  0.41800000000E+01 0.  1.
        -11    1    3    3    0    0  0.36056947416E+02 -0.19694499373E+02  0.90832831242E+02  0.99692426964E+02  0.00000000000E+00 0.  1.
         11    1    3    3    0    0 -0.17999670384E+02  0.53203143193E+02  0.86040509610E+02  0.10274985097E+03  0.00000000000E+00 0. -1.
</event>
<event>
 7    1  0.4274778E-006  0.1824153E+03  0.7561462E-02  0.1165486E+00
          2   -1    0    0  501    0  0.00000000000E+00  0.00000000000E+00  0.48707256875E+03  0.48707256875E+03  0.00000000000E+00 0. -1.
         -2   -1    0    0    0  501 -0.00000000000E+00 -0.00000000000E+00 -0.73009126250E+02  0.73009126250E+02  0.00000000000E+00 0.  1.
         23    2    1    2    0    0 -0.14587753578E+03  0.56290324710E+02  0.21869265971E+03  0.28032113029E+03  0.79401514953E+02 0.  0.
          5    1    1    2  502    0 -0.16957002813E+02  0.26394482354E+01 -0.12662755554E+01  0.17708260366E+02  0.41800000000E+01 0.  1.
         -5    1    1    2    0  502  0.16283453859E+03 -0.58929772946E+02  0.19663705834E+03  0.26205230434E+03  0.41800000000E+01 0.  1.
        -11    1    3    3    0    0 -0.64389044636E+02 -0.14503535013E+02  0.66126120910E+02  0.93428932690E+02  0.00000000000E+00 0.  1.
         11    1    3    3    0    0 -0.81488491140E+02  0.70793859723E+02  0.15256653880E+03  0.18689219760E+03  0.00000000000E+00 0. -1.
</event>
<event>
 7    1  0.4274778E-006  0.2003505E+03  0.7561462E-02  0.1149444E+00
          1   -1    0    0  501    0  0.00000000000E+00  0.00000000000E+00  0.25673343807E+03  0.25673343807E+03  0.00000000000E+00 0. -1.
         -1   -1    0    0    0  501 -0.00000000000E+00 -0.00000000000E+00 -0.62711214755E+03  0.62711214755E+03  0.00000000000E+00 0.  1.
         23    2    1    2    0    0  0.18512777258E+03  0.35315033027E+01 -0.14297006034E+02  0.20566344866E+03  0.88364506656E+02 0.  0.
          5    1    1    2  502    0 -0.16491736433E+03  0.17964609278E+02  0.11771006131E+03  0.20345415990E+03  0.41800000000E+01 0. -1.
         -5    1    1    2    0  502 -0.20210408245E+02 -0.21496112581E+02 -0.47379176476E+03  0.47472797707E+03  0.41800000000E+01 0.  1.
        -11    1    3    3    0    0  0.96955345599E+02  0.45737983524E+02 -0.12125710346E+02  0.10788574989E+03  0.00000000000E+00 0.  1.
         11    1    3    3    0    0  0.88172426979E+02 -0.42206480221E+02 -0.21712956880E+01  0.97777698771E+02  0.00000000000E+00 0. -1.
</event>
<event>
 7    1  0.4274778E-006  0.1136611E+03  0.7561462E-02  0.1253936E+00
          1   -1    0    0  501    0  0.00000000000E+00  0.00000000000E+00  0.37638953113E+03  0.37638953113E+03  0.00000000000E+00 0. -1.
         -1   -1    0    0    0  501 -0.00000000000E+00 -0.00000000000E+00 -0.42209397949E+02  0.42209397949E+02  0.00000000000E+00 0.  1.
         23    2    1    2    0    0 -0.43980952998E+02 -0.41808547068E+02  0.18140034507E+03  0.21202485648E+03  0.91466801289E+02 0.  0.
          5    1    1    2  502    0  0.75887272516E+02  0.63748216342E+02  0.11981013321E+03  0.15554630705E+03  0.41800000000E+01 0. -1.
         -5    1    1    2    0  502 -0.31906319518E+02 -0.21939669274E+02  0.32969654900E+02  0.51027765552E+02  0.41800000000E+01 0. -1.
        -11    1    3    3    0    0 -0.52957630134E+02 -0.72247239145E+01  0.41595797955E+02  0.67726786669E+02  0.00000000000E+00 0.  1.
         11    1    3    3    0    0  0.89766771353E+01 -0.34583823154E+02  0.13980454711E+03  0.14429806981E+03  0.00000000000E+00 0. -1.
</event>
<event>
 7    1  0.4274778E-006  0.1122524E+03  0.7561462E-02  0.1256455E+00
         -2   -1    0    0    0  501 -0.00000000000E+00  0.00000000000E+00  0.91628374627E+03  0.91628374627E+03  0.00000000000E+00 0.  1.
          2   -1    0    0  501    0  0.00000000000E+00 -0.00000000000E+00 -0.19806377970E+02  0.19806377970E+02  0.00000000000E+00 0. -1.
         23    2    1    2    0    0  0.52257837606E+02  0.57315233410E+02  0.33004007573E+03  0.35084071209E+03  0.90259825501E+02 0.  0.
          5    1    1    2  502    0 -0.62951542119E+02 -0.78978215996E+01  0.48605184850E+03  0.49019296616E+03  0.41800000000E+01 0. -1.
         -5    1    1    2    0  502  0.10693704513E+02 -0.49417411811E+02  0.80385444075E+02  0.95056445996E+02  0.41800000000E+01 0. -1.
        -11    1    3    3    0    0  0.25193408356E+01  0.60307444416E+02  0.11253143050E+03  0.12769752457E+03  0.00000000000E+00 0. -1.
         11    1    3    3    0    0  0.49738496771E+02 -0.29922110057E+01  0.21750864523E+03  0.22314318753E+03  0.00000000000E+00 0.  1.
</event>
<event>
 7    1  0.4274778E-006  0.9873901E+02  0.7561462E-02  0.1282970E+00
         -4   -1    0    0    0  501 -0.00000000000E+00  0.00000000000E+00  0.10206845233E+03  0.10206845233E+03  0.00000000000E+00 0. -1.
          4   -1    0    0  501    0  0.00000000000E+00 -0.00000000000E+00 -0.16160192438E+03  0.16160192438E+03  0.00000000000E+00 0.  1.
         23    2    1    2    0    0  0.44511874430E+02 -0.46406672626E+02 -0.71690138719E+02  0.13271644121E+03  0.91319721573E+02 0.  0.
          5    1    1    2  502    0  0.60187054916E+00  0.65248363906E+02  0.37866033321E+02  0.75558057942E+02  0.41800000000E+01 0. -1.
         -5    1    1    2    0  502 -0.45113744980E+02 -0.18841691279E+02 -0.25709366649E+02  0.55395877553E+02  0.41800000000E+01 0.  1.
        -11    1    3    3    0    0  0.17561112166E+02  0.10215005298E+02 -0.66796009731E+02  0.69817232183E+02  0.00000000000E+00 0. -1.
         11    1    3    3    0    0  0.26950762264E+02 -0.56621677924E+02 -0.48941289875E+01  0.62899209026E+02  0.00000000000E+00 0.  1.
</event>
<event>
 7    1  0.4274778E-006  0.8757641E+02  0.7561462E-02  0.1308829E+00
          1   -1    0    0  501    0  0.00000000000E+00  0.00000000000E+00  0.21924015238E+03  0.21924015238E+03  0.00000000000E+00 0. -1.
         -1   -1    0    0    0  501 -0.00000000000E+00 -0.00000000000E+00 -0.59517871111E+02  0.59517871111E+02  0.00000000000E+00 0.  1.
         23    2    1    2    0    0 -0.31800715045E+02 -0.12684699101E+02  0.74202555199E+02  0.12340991718E+03  0.92475950337E+02 0.  0.
          5    1    1    2  502    0  0.25083955545E+02  0.43191618435E+02 -0.13107911643E+02  0.51807436497E+02  0.41800000000E+01 0. -1.
         -5    1    1    2    0  502  0.67167595003E+01 -0.30506919334E+02  0.98627637714E+02  0.10354066982E+03  0.41800000000E+01 0. -1.
        -11    1    3    3    0    0  0.41878849165E-01  0.35641359630E+02  0.10094642231E+02  0.37043353950E+02  0.00000000000E+00 0.  1.
         11    1    3    3    0    0 -0.31842593895E+02 -0.48326058730E+02  0.64107912968E+02  0.86366563226E+02  0.00000000000E+00 0. -1.
</event>
<event>
 7    1  0.4274778E-006  0.2187972E+03  0.7561462E-02  0.1134783E+00
         -2   -1    0    0    0  501 -0.00000000000E+00  0.00000000000E+00  0.11382464263E+03  0.11382464263E+03  0.00000000000E+00 0.  1.
          2   -1    0    0  501    0  0.00000000000E+00 -0.00000000000E+00 -0.65366723767E+03  0.65366723767E+03  0.00000000000E+00 0. -1.
         23    2    1    2    0    0  0.16458427770E+03 -0.11628402938E+03 -0.47187658636E+03  0.52075423297E+03  0.88924116242E+02 0.  0.
          5    1    1    2  502    0  0.16002536202E+02  0.31453220737E+02 -0.22501006833E+02  0.42061312012E+02  0.41800000000E+01 0.  1.
         -5    1    1    2    0  502 -0.18058681390E+03  0.84830808639E+02 -0.45465001843E+02  0.20467633532E+03  0.41800000000E+01 0.  1.
        -11    1    3    3    0    0  0.55993295094E+02 -0.28328412322E+02 -0.64122230794E+02  0.89718495987E+02  0.00000000000E+00 0.  1.
         11    1    3    3    0    0  0.10859098260E+03 -0.87955617054E+02 -0.40775435557E+03  0.43103573699E+03  0.00000000000E+00 0. -1.
</event>
<event>
 7    1  0.4274778E-006  0.1333700E+03  0.7561462E-02  0.1222539E+00
         -1   -1    0    0    0  501 -0.00000000000E+00  0.00000000000E+00  0.81616174635E+02  0.81616174635E+02  0.00000000000E+00 0.  1.
          1   -1    0    0  501    0  0.00000000000E+00 -0.00000000000E+00 -0.30764385361E+03  0.30764385361E+03  0.00000000000E+00 0. -1.
         23    2    1    2    0    0  0.15693951903E+02  0.82469813404E+02 -0.20131430661E+03  0.23659617139E+03  0.91666395263E+02 0.  0.
          5    1    1    2  502    0 -0.38339942481E+02 -0.10506937977E+03 -0.37380183981E+02  0.11800117079E+03  0.41800000000E+01 0. -1.
         -5    1    1    2    0  502  0.22645990578E+02  0.22599566362E+02  0.12666811613E+02  0.34662686068E+02  0.41800000000E+01 0. -1.
        -11    1    3    3    0    0 -0.35276831720E+02  0.15864840563E+02 -0.82997731741E+02  0.91568397913E+02  0.00000000000E+00 0. -1.
         11    1    3    3    0    0  0.50970783623E+02  0.66604972841E+02 -0.11831657487E+03  0.14502777348E+03  0.00000000000E+00 0.  1.
</event>
<event>
 6    1  0.4274778E-006  0.1937676E+03  0.7561462E-02  0.1155106E+00
         -1   -1    0    0    0  501 -0.00000000000E+00  0.00000000000E+00  0.17110980780E+04  0.17110980780E+04  0.00000000000E+00 0.  1.
          1   -1    0    0  501    0  0.00000000000E+00 -0.00000000000E+00 -0.26683142851E+02  0.26683142851E+02  0.00000000000E+00 0. -1.
          5    1    1    2  502    0  0.24920459025E+02 -0.10254196485E+03  0.33099669383E+03  0.34743656624E+03  0.41800000000E+01 0. -1.
         -5    1    1    2    0  502  0.44489768703E+02  0.41576551481E+02  0.53569167069E+03  0.53915766488E+03  0.41800000000E+01 0.  1.
        -11    1    1    2    0    0  0.71095571820E+02  0.29068451848E+02  0.44503091099E+03  0.45161052574E+03  0.00000000000E+00 0.  1.
         11    1    1    2    0    0 -0.14050579955E+03  0.31896961523E+02  0.37269565965E+03  0.39957646400E+03  0.00000000000E+00 0. -1.
</event>
<event>
 7    1  0.4274778E-006  0.7979695E+02  0.7561462E-02  0.1329629E+00
         -2   -1    0    0    0  501 -0.00000000000E+00  0.00000000000E+00  0.41256284138E+02  0.41256284138E+02  0.00000000000E+00 0.  1.
          2   -1    0    0  501    0  0.00000000000E+00 -0.00000000000E+00 -0.33498489035E+03  0.33498489035E+03  0.00000000000E+00 0. -1.
         23    2    1    2    0    0 -0.16822990658E+02 -0.36719248437E+02 -0.16930893342E+03  0.19523057612E+03  0.88420284425E+02 0.  0.
          5    1    1    2  502    0  0.14635719626E+01  0.48013995365E+02 -0.14490432018E+03  0.15271614257E+03  0.41800000000E+01 0. -1.
         -5    1    1    2    0  502  0.15359418695E+02 -0.11294746928E+02  0.20484647381E+02  0.28294455802E+02  0.41800000000E+01 0. -1.
        -11    1    3    3    0    0 -0.47644699893E+02 -0.54558204045E+01 -0.56080115647E+02  0.73788635813E+02  0.00000000000E+00 0.  1.
         11    1    3    3    0    0  0.30821709235E+02 -0.31263428033E+02 -0.11322881777E+03  0.12144194031E+03  0.00000000000E+00 0. -1.
</event>
<event>
 7    1  0.4274778E-006  0.1304695E+03  0.7561462E-02  0.1226761E+00
          2   -1    0    0  501    0  0.00000000000E+00  0.00000000000E+00  0.84262075751E+03  0.84262075751E+03  0.00000000000E+00 0.  1.
         -2   -1    0    0    0  501 -0.00000000000E+00 -0.00000000000E+00 -0.23375363508E+02  0.23375363508E+02  0.00000000000E+00 0. -1.
         23    2    1    2    0    0 -0.33746699558E+01  0.85441679404E+02  0.38180652607E+03  0.40305742837E+03  0.96785320402E+02 0.  0.
          5    1    1    2  502    0 -0.46180703577E+02  0.64045029893E+01  0.12293709618E+03  0.13154724268E+03  0.41800000000E+01 0. -1.
         -5    1    1    2    0  502  0.49555373533E+02 -0.91846182393E+02  0.31450177176E+03  0.33139144996E+03  0.41800000000E+01 0. -1.
        -11    1    3    3    0    0  0.26441959091E+02  0.94976064828E+01  0.26912131051E+02  0.38905584782E+02  0.00000000000E+00 0. -1.
         11    1    3    3    0    0 -0.29816629047E+02  0.75944072921E+02  0.35489439501E+03  0.36415184359E+03  0.00000000000E+00 0.  1.
</event>
<event>
 7    1  0.4274778E-006  0.1010781E+03  0.7561462E-02  0.1278045E+00
         -1   -1    0    0    0  501 -0.00000000000E+00  0.00000000000E+00  0.17597399208E+03  0.17597399208E+03  0.00000000000E+00 0.  1.
          1   -1    0    0  501    0  0.00000000000E+00 -0.00000000000E+00 -0.92211406866E+02  0.92211406866E+02  0.00000000000E+00 0. -1.
         23    2    1    2    0    0  0.79098541769E+02  0.16861225259E+01  0.11586112847E+01  0.98688288082E+02  0.58979772001E+02 0.  0.
          5    1    1    2  502    0 -0.48865613631E+01  0.32086380962E+02 -0.20017410657E+02  0.38361223320E+02  0.41800000000E+01 0.  1.
         -5    1    1    2    0  502 -0.74211980406E+02 -0.33772503487E+02  0.10262138459E+03  0.13113588755E+03  0.41800000000E+01 0.  1.
        -11    1    3    3    0    0  0.36867486817E+02  0.19787960703E+02 -0.21957814392E+02  0.47253789116E+02  0.00000000000E+00 0. -1.
         11    1    3    3    0    0  0.42231054952E+02 -0.18101838177E+02  0.23116425677E+02  0.51434498966E+02  0.00000000000E+00 0.  1.
</event>
<event>
 7    1  0.4274778E-006  0.1061819E+03  0.7561462E-02  0.1267808E+00
         -2   -1    0    0    0  501 -0.00000000000E+00  0.00000000000E+00  0.19270880931E+02  0.19270880931E+02  0.00000000000E+00 0. -1.
          2   -1    0    0  501    0  0.00000000000E+00 -0.00000000000E+00 -0.64858995779E+03  0.64858995779E+03  0.00000000000E+00 0.  1.
         23    2    1    2    0    0 -0.63314146929E+01 -0.28452340891E+02 -0.27617741381E+03  0.29207608876E+03  0.90470189664E+02 0.  0.
          5    1    1    2  502    0  0.59070784642E+02  0.42228511003E+02 -0.22515498411E+03  0.23661116628E+03  0.41800000000E+01 0.  1.
         -5    1    1    2    0  502 -0.52739369949E+02 -0.13776170112E+02 -0.12798667894E+03  0.13917358367E+03  0.41800000000E+01 0.  1.
        -11    1    3    3    0    0  0.67345880600E+01 -0.54980033828E+02 -0.23463065954E+03  0.24108028785E+03  0.00000000000E+00 0.  1.
         11    1    3    3    0    0 -0.13066002753E+02  0.26527692937E+02 -0.41546754268E+02  0.50995800913E+02  0.00000000000E+00 0. -1.
</event>
<event>
 7    1  0.4274778E-006  0.1979202E+03  0.7561462E-02  0.1151506E+00
          2   -1    0    0  501    0  0.00000000000E+00  0.00000000000E+00  0.14502267928E+03  0.14502267928E+03  0.00000000000E+00 0. -1.
         -2   -1    0    0    0  501 -0.00000000000E+00 -0.00000000000E+00 -0.35702271269E+03  0.35702271269E+03  0.00000000000E+00 0.  1.
         23    2    1    2    0    0 -0.78973032619E+02  0.16555636008E+03 -0.14902511148E+02  0.20516250700E+03  0.90685837892E+02 0.  0.
          5    1    1    2  502    0  0.80505823363E+02 -0.17174554361E+03 -0.13149278540E+03  0.23083661832E+03  0.41800000000E+01 0. -1.
         -5    1    1    2    0  502 -0.15327907435E+01  0.61891835243E+01 -0.65604736862E+02  0.66046266653E+02  0.41800000000E+01 0. -1.
        -11    1    3    3    0    0 -0.81243377762E+02  0.83845739992E+02  0.15862002356E+02  0.11782273831E+03  0.00000000000E+00 0. -1.
         11    1    3    3    0    0  0.22703451422E+01  0.81710620090E+02 -0.30764513504E+02  0.87339768684E+02  0.00000000000E+00 0.  1.
</event>
<event>
 7    1  0.4274778E-006  0.1088838E+03  0.7561462E-02  0.1262651E+00
         -1   -1    0    0    0  501 -0.00000000000E+00  0.00000000000E+00  0.74444258554E+03  0.74444258554E+03  0.00000000000E+00 0.  1.
          1   -1    0    0  501    0  0.00000000000E+00 -0.00000000000E+00 -0.29513839665E+02  0.29513839665E+02  0.00000000000E+00 0. -1.
         23    2    1    2    0    0  0.25322296440E+02  0.68990312414E+02  0.15561485803E+03  0.19613166844E+03  0.94078506687E+02 0.  0.
          5    1    1    2  502    0  0.49158164379E+02 -0.40219145646E+02  0.28943530404E+03  0.29635177142E+03  0.41800000000E+01 0.  1.
         -5    1    1    2    0  502 -0.74480460819E+02 -0.28771166768E+02  0.26987858381E+03  0.28147298535E+03  0.41800000000E+01 0.  1.
        -11    1    3    3    0    0  0.12913978539E+02  0.48656372073E+02  0.16347257195E+03  0.17104822468E+03  0.00000000000E+00 0.  1.
         11    1    3    3    0    0  0.12408317901E+02  0.20333940341E+02 -0.78577139190E+01  0.25083443762E+02  0.00000000000E+00 0. -1.
</event>
<event>
 7    1  0.4274778E-006  0.1114202E+03  0.7561462E-02  0.1257962E+00
          1   -1    0    0  501    0  0.00000000000E+00  0.00000000000E+00  0.14059015361E+02  0.14059015361E+02  0.00000000000E+00 0. -1.
         -1   -1    0    0    0  501 -0.00000000000E+00 -0.00000000000E+00 -0.92235407186E+03  0.92235407186E+03  0.00000000000E+00 0.  1.
         23    2    1    2    0    0  0.26972042218E+02 -0.20745399649E+02 -0.43965207722E+03  0.45016905652E+03  0.90555882090E+02 0.  0.
          5    1    1    2  502    0  0.41127812737E+02  0.37542466415E+02 -0.15293512370E+03  0.16281141922E+03  0.41800000000E+01 0. -1.
         -5    1    1    2    0  502 -0.68099854955E+02 -0.16797066766E+02 -0.31570785558E+03  0.32343261149E+03  0.41800000000E+01 0. -1.
        -11    1    3    3    0    0  0.44077892465E+02 -0.47611893019E+02 -0.29712009100E+03  0.30412185294E+03  0.00000000000E+00 0. -1.
         11    1    3    3    0    0 -0.17105850247E+02  0.26866493370E+02 -0.14253198621E+03  0.14604720358E+03  0.00000000000E+00 0.  1.
</event>
<event>
 7    1  0.4274778E-006  0.7091574E+02  0.7561462E-02  0.1357006E+00
          2   -1    0    0  501    0  0.00000000000E+00  0.00000000000E+00  0.10930905842E+03  0.10930905842E+03  0.00000000000E+00 0. -1.
         -2   -1    0    0    0  501 -0.00000000000E+00 -0.00000000000E+00 -0.20388921563E+03  0.20388921563E+03  0.00000000000E+00 0.  1.
         23    2    1    2    0    0 -0.18538052652E+02 -0.35946693518E+02  0.55192764257E+02  0.11391057388E+03  0.91068948853E+02 0.  0.
          5    1    1    2  502    0 -0.16914967232E+02  0.38475226185E+02  0.30344076395E+01  0.42345474093E+02  0.41800000000E+01 0.  1.
         -5    1    1    2    0  502  0.35453019884E+02 -0.25285326670E+01 -0.15280732910E+03  0.15694222607E+03  0.41800000000E+01 0.  1.
        -11    1    3    3    0    0 -0.24618278039E+02  0.26259514064E+01 -0.18232862742E+02  0.30747235943E+02  0.00000000000E+00 0.  1.
         11    1    3    3    0    0  0.60802253870E+01 -0.38572644924E+02  0.73425626999E+02  0.83163337941E+02  0.00000000000E+00 0. -1.
</event>
<event>
 7    1  0.4274778E-006  0.9453437E+02  0.7561462E-02  0.1292228E+00
          2   -1    0    0  501    0  0.00000000000E+00  0.00000000000E+00  0.69773296863E+02  0.69773296863E+02  0.00000000000E+00 0. -1.
         -2   -1    0    0    0  501 -0.00000000000E+00 -0.00000000000E+00 -0.38887793775E+03  0.38887793775E+03  0.00000000000E+00 0.  1.
         23    2    1    2    0    0  0.28324850110E+02 -0.79752130865E+01  0.17964821066E+02  0.97919867204E+02  0.91649683250E+02 0.  0.
          5    1    1    2  502    0  0.14601310994E+02  0.52171509966E+02 -0.23693900774E+03  0.24308975816E+03  0.41800000000E+01 0. -1.
         -5    1    1    2    0  502 -0.42926161104E+02 -0.44196296879E+02 -0.10013045421E+03  0.11764160924E+03  0.41800000000E+01 0. -1.
        -11    1    3    3    0    0 -0.26287882641E+01  0.26509316741E+02 -0.23661044051E+02  0.35630035187E+02  0.00000000000E+00 0.  1.
         11    1    3    3    0    0  0.30953638374E+02 -0.34484529828E+02  0.41625865117E+02  0.62289832017E+02  0.00000000000E+00 0. -1.
</event>
<event>
 7    1  0.4274778E-006  0.1434218E+03  0.7561462E-02  0.1208798E+00
          2   -1    0    0  501    0  0.00000000000E+00  0.00000000000E+00  0.71113924632E+02  0.71113924632E+02  0.00000000000E+00 0. -1.
         -2   -1    0    0    0  501 -0.00000000000E+00 -0.00000000000E+00 -0.37239264955E+03  0.37239264955E+03  0.00000000000E+00 0.  1.
         23    2    1    2    0    0  0.50979053462E+00 -0.10085337751E+03 -0.48930928352E+02  0.14434249736E+03  0.90933256589E+02 0.  0.
          5    1    1    2  502    0 -0.47381294256E+02  0.10304143582E+03 -0.17379430614E+03  0.20756795944E+03  0.41800000000E+01 0. -1.
         -5    1    1    2    0  502  0.46871503722E+02 -0.21880583079E+01 -0.78553490433E+02  0.91596117383E+02  0.41800000000E+01 0. -1.
        -11    1    3    3    0    0 -0.37664309060E+02 -0.53302932087E+02  0.13906281945E+01  0.65281977550E+02  0.00000000000E+00 0. -1.
         11    1    3    3    0    0  0.38174099594E+02 -0.47550445423E+02 -0.50321556546E+02  0.79060519812E+02  0.00000000000E+00 0.  1.
</event>
<event>
 7    1  0.4274778E-006  0.6441662E+02  0.7561462E-02  0.1380179E+00
          2   -1    0    0  501    0  0.00000000000E+00  0.00000000000E+00  0.13858174919E+03  0.13858174919E+03  0.00000000000E+00 0. -1.
         -2   -1    0    0    0  501 -0.00000000000E+00 -0.00000000000E+00 -0.89519748396E+02  0.89519748396E+02  0.00000000000E+00 0.  1.
         23    2    1    2    0    0 -0.12624187972E+02  0.23265231832E+02  0.16052302479E+02  0.96049765436E+02  0.90924363574E+02 0.  0.
          5    1    1    2  502    0 -0.15019287985E+02  0.39004896632E+01  0.73858859933E+02  0.75587012256E+02  0.41800000000E+01 0.  1.
         -5    1    1    2    0  502  0.27643475956E+02 -0.27165721495E+02 -0.40849161621E+02  0.56464719892E+02  0.41800000000E+01 0.  1.
        -11    1    3    3    0    0 -0.20730020206E+02 -0.20568994865E+02  0.36717983419E+02  0.46915110507E+02  0.00000000000E+00 0. -1.
         11    1    3    3    0    0  0.81058322345E+01  0.43834226697E+02 -0.20665680940E+02  0.49134654929E+02  0.00000000000E+00 0.  1.
</event>
<event>
 7    1  0.4274778E-006  0.1411318E+03  0.7561462E-02  0.1211814E+00
         -3   -1    0    0    0  501 -0.00000000000E+00  0.00000000000E+00  0.14692466251E+03  0.14692466251E+03  0.00000000000E+00 0.  1.
          3   -1    0    0  501    0  0.00000000000E+00 -0.00000000000E+00 -0.15980771726E+03  0.15980771726E+03  0.00000000000E+00 0. -1.
         23    2    1    2    0    0  0.10327166798E+03 -0.19609983461E+02 -0.28644722658E+02  0.14259239519E+03  0.91991750564E+02 0.  0.
          5    1    1    2  502    0 -0.54480639708E+02  0.62084025805E+02 -0.26394885420E+02  0.86814334873E+02  0.41800000000E+01 0.  1.
         -5    1    1    2    0  502 -0.48791028271E+02 -0.42474042344E+02  0.42156553330E+02  0.77325649699E+02  0.41800000000E+01 0.  1.
        -11    1    3    3    0    0  0.11805867615E+03 -0.20892815684E+02 -0.12313024062E+02  0.12052373759E+03  0.00000000000E+00 0. -1.
         11    1    3    3    0    0 -0.14787008172E+02  0.12828322223E+01 -0.16331698596E+02  0.22068657599E+02  0.00000000000E+00 0.  1.
</event>
<event>
 7    1  0.4274778E-006  0.1048936E+03  0.7561462E-02  0.1270329E+00
          1   -1    0    0  501    0  0.00000000000E+00  0.00000000000E+00  0.34793761581E+03  0.34793761581E+03  0.00000000000E+00 0. -1.
         -1   -1    0    0    0  501 -0.00000000000E+00 -0.00000000000E+00 -0.50254628667E+02  0.50254628667E+02  0.00000000000E+00 0.  1.
         23    2    1    2    0    0  0.24080310268E+02 -0.20999190444E+02  0.23708105868E+03  0.25557599278E+03  0.89949054220E+02 0.  0.
          5    1    1    2  502    0  0.11607632566E+02 -0.42527098064E+02  0.53260763675E+02  0.69263789607E+02  0.41800000000E+01 0.  1.
         -5    1    1    2    0  502 -0.35687942834E+02  0.63526288509E+02  0.73411647898E+01  0.73352462098E+02  0.41800000000E+01 0.  1.
        -11    1    3    3    0    0 -0.32221591244E+02  0.57991765708E+00  0.11479642285E+03  0.11923416434E+03  0.00000000000E+00 0. -1.
         11    1    3    3    0    0  0.56301901512E+02 -0.21579108101E+02  0.12228463584E+03  0.13634182844E+03  0.00000000000E+00 0.  1.
</event>
<event>
 7    1  0.4274778E-006  0.5636803E+02  0.7561462E-02  0.1413738E+00
         -2   -1    0    0    0  501 -0.00000000000E+00  0.00000000000E+00  0.14983199552E+03  0.14983199552E+03  0.00000000000E+00 0. -1.
          2   -1    0    0  501    0  0.00000000000E+00 -0.00000000000E+00 -0.79089133001E+02  0.79089133001E+02  0.00000000000E+00 0.  1.
         23    2    1    2    0    0  0.72539628764E+00  0.11952729702E+02  0.28788922439E+02  0.96442859047E+02  0.91263514390E+02 0.  0.
          5    1    1    2  502    0  0.85387103921E+01  0.91044401399E+01 -0.42685269745E+02  0.44668837668E+02  0.41800000000E+01 0.  1.
         -5    1    1    2    0  502 -0.92641066798E+01 -0.21057169842E+02  0.84639209821E+02  0.87809431802E+02  0.41800000000E+01 0.  1.
        -11    1    3    3    0    0  0.84562268696E+01 -0.31213193061E+02  0.39748146821E+02  0.51241451674E+02  0.00000000000E+00 0. -1.
         11    1    3    3    0    0 -0.77308305820E+01  0.43165922762E+02 -0.10959224383E+02  0.45201407373E+02  0.00000000000E+00 0.  1.
</event>
<event>
 7    1  0.4274778E-006  0.9156371E+02  0.7561462E-02  0.1299109E+00
         -1   -1    0    0    0  501 -0.00000000000E+00  0.00000000000E+00  0.68139964360E+03  0.68139964360E+03  0.00000000000E+00 0.  1.
          1   -1    0    0  501    0  0.00000000000E+00 -0.00000000000E+00 -0.18283967152E+02  0.18283967152E+02  0.00000000000E+00 0. -1.
         23    2    1    2    0    0 -0.12434038637E+02 -0.36277666362E+01  0.21877193504E+03  0.23788597219E+03  0.92524646427E+02 0.  0.
          5    1    1    2  502    0 -0.40444893105E+02 -0.11090779418E+02  0.35030885359E+03  0.35283503238E+03  0.41800000000E+01 0.  1.
         -5    1    1    2    0  502  0.52878931742E+02  0.14718546054E+02  0.94034887813E+02  0.10896260618E+03  0.41800000000E+01 0.  1.
        -11    1    3    3    0    0 -0.29611272925E+02  0.33689208274E+02  0.16008355224E+03  0.16624841032E+03  0.00000000000E+00 0.  1.
         11    1    3    3    0    0  0.17177234288E+02 -0.37316974910E+02  0.58688382801E+02  0.71637561865E+02  0.00000000000E+00 0. -1.
</event>
<event>
 7    1  0.4274778E-006  0.1024145E+03  0.7561462E-02  0.1275299E+00
          1   -1    0    0  501    0  0.00000000000E+00  0.00000000000E+00  0.11197802518E+03  0.11197802518E+03  0.00000000000E+00 0. -1.
         -1   -1    0    0    0  501 -0.00000000000E+00 -0.00000000000E+00 -0.15257797275E+03  0.15257797275E+03  0.00000000000E+00 0.  1.
         23    2    1    2    0    0  0.56732735301E+02  0.42634393845E+02  0.19090271935E+01  0.11458687686E+03  0.89945612296E+02 0.  0.
          5    1    1    2  502    0  0.27740800088E+02 -0.26597014240E+02  0.20056194446E+02  0.43550849494E+02  0.41800000000E+01 0. -1.
         -5    1    1    2    0  502 -0.84473535389E+02 -0.16037379606E+02 -0.62565169212E+02  0.10641827157E+03  0.41800000000E+01 0. -1.
        -11    1    3    3    0    0  0.28835907386E+02 -0.35678715449E+00  0.41003261194E+02  0.50128876712E+02  0.00000000000E+00 0. -1.
         11    1    3    3    0    0  0.27896827915E+02  0.42991181000E+02 -0.39094234001E+02  0.64458000152E+02  0.00000000000E+00 0.  1.
</event>
<event>
 7    1  0.4274778E-006  0.1847980E+03  0.7561462E-02  0.1163239E+00
          2   -1    0    0  501    0  0.00000000000E+00  0.00000000000E+00  0.38090252789E+03  0.38090252789E+03  0.00000000000E+00 0. -1.
         -2   -1    0    0    0  501 -0.00000000000E+00 -0.00000000000E+00 -0.10710797320E+03  0.10710797320E+03  0.00000000000E+00 0.  1.
         23    2    1    2    0    0 -0.15927550335E+03  0.59874898417E+02  0.17556094926E+03  0.25509401280E+03  0.72784744513E+02 0.  0.
          5    1    1    2  502    0  0.23145860575E+02  0.27548586012E+02 -0.10772288626E+02  0.37791137258E+02  0.41800000000E+01 0. -1.
         -5    1    1    2    0  502  0.13612964278E+03 -0.87423484430E+02  0.10900589405E+03  0.19512535102E+03  0.41800000000E+01 0. -1.
        -11    1    3    3    0    0 -0.88500077932E+02  0.21707204894E+02  0.44686964265E+02  0.10149084350E+03  0.00000000000E+00 0.  1.
         11    1    3    3    0    0 -0.70775425421E+02  0.38167693523E+02  0.13087398500E+03  0.15360316931E+03  0.00000000000E+00 0. -1.
</event>
<event>
 7    1  0.4274778E-006  0.8722765E+02  0.7561462E-02  0.1309708E+00
         -4   -1    0    0    0  501 -0.00000000000E+00  0.00000000000E+00  0.55430259140E+02  0.55430259140E+02  0.00000000000E+00 0.  1.
          4   -1    0    0  501    0  0.00000000000E+00 -0.00000000000E+00 -0.22700847379E+03  0.22700847379E+03  0.00000000000E+00 0. -1.
         23    2    1    2    0    0 -0.21821995961E+01 -0.30309166339E+02 -0.84863537643E+02  0.12723265059E+03  0.89793762572E+02 0.  0.
          5    1    1    2  502    0 -0.40215587036E+02 -0.10011359349E+01 -0.93527309947E+02  0.10189762421E+03  0.41800000000E+01 0. -1.
         -5    1    1    2    0  502  0.42397786632E+02  0.31310302274E+02  0.68126329417E+01  0.53308458122E+02  0.41800000000E+01 0. -1.
        -11    1    3    3    0    0  0.29296978074E+02 -0.38721190760E+02 -0.16126177344E+02  0.51163435517E+02  0.00000000000E+00 0.  1.
         11    1    3    3    0    0 -0.31479177670E+02  0.84120244212E+01 -0.68737360299E+02  0.76069215078E+02  0.00000000000E+00 0. -1.
</event>
<event>
 7    1  0.4274778E-006  0.1270324E+03  0.7561462E-02  0.1231927E+00
          1   -1    0    0  501    0  0.00000000000E+00  0.00000000000E+00  0.96468047964E+02  0.96468047964E+02  0.00000000000E+00 0. -1.
         -1   -1    0    0    0  501 -0.00000000000E+00 -0.00000000000E+00 -0.23141633622E+03  0.23141633622E+03  0.00000000000E+00 0.  1.
         23    2    1    2    0    0 -0.62158699636E+02 -0.33266129694E+02  0.12843507228E+02  0.11601767325E+03  0.91240372115E+02 0.  0.
          5    1    1    2  502    0 -0.37482917110E+02 -0.15448032650E+02 -0.42332708784E+02  0.58763436088E+02  0.41800000000E+01 0. -1.
         -5    1    1    2    0  502  0.99641616746E+02  0.48714162344E+02 -0.10545908670E+03  0.15310327485E+03  0.41800000000E+01 0.  1.
        -11    1    3    3    0    0  0.93753196112E+01 -0.29199677024E+02 -0.20603132820E+02  0.36945998946E+02  0.00000000000E+00 0.  1.
         11    1    3    3    0    0 -0.71534019247E+02 -0.40664526694E+01  0.33446640048E+02  0.79071674306E+02  0.00000000000E+00 0. -1.
</event>
<event>
 7    1  0.4274778E-006  0.1202206E+03  0.7561462E-02  0.1242734E+00
         -2   -1    0    0    0  501 -0.00000000000E+00  0.00000000000E+00  0.55106918372E+02  0.55106918372E+02  0.00000000000E+00 0.  1.
          2   -1    0    0  501    0  0.00000000000E+00 -0.00000000000E+00 -0.51367491672E+03  0.51367491672E+03  0.00000000000E+00 0. -1.
         23    2    1    2    0    0  0.31409465170E+02 -0.11372174980E+03 -0.29822541984E+03  0.33367259488E+03  0.92085876545E+02 0.  0.
          5    1    1    2  502    0 -0.12180284259E+02  0.63699452630E+02  0.10539329309E+01  0.64996636564E+02  0.41800000000E+01 0. -1.
         -5    1    1    2    0  502 -0.19229180911E+02  0.50022297173E+02 -0.16139651144E+03  0.17011260365E+03  0.41800000000E+01 0. -1.
        -11    1    3    3    0    0 -0.47995407171E+01 -0.31420334209E+02 -0.12535466723E+02  0.34167395553E+02  0.00000000000E+00 0.  1.
         11    1    3    3    0    0  0.36209005887E+02 -0.82301415595E+02 -0.28568995311E+03  0.29950519933E+03  0.00000000000E+00 0. -1.
</event>
<event>
 7    1  0.4274778E-006  0.1357786E+03  0.7561462E-02  0.1219125E+00
         -1   -1    0    0    0  501 -0.00000000000E+00  0.00000000000E+00  0.60849177722E+02  0.60849177722E+02  0.00000000000E+00 0.  1.
          1   -1    0    0  501    0  0.00000000000E+00 -0.00000000000E+00 -0.55574746029E+03  0.55574746029E+03  0.00000000000E+00 0. -1.
         23    2    1    2    0    0 -0.75726846615E+02 -0.91434343119E+02 -0.37859227211E+03  0.40858643150E+03  0.97549828803E+02 0.  0.
          5    1    1    2  502    0  0.53886015520E+02  0.35154196234E+01  0.73558701692E+01  0.54659327381E+02  0.41800000000E+01 0. -1.
         -5    1    1    2    0  502  0.21840831095E+02  0.87918923496E+02 -0.12366188062E+03  0.15335087913E+03  0.41800000000E+01 0. -1.
        -11    1    3    3    0    0 -0.58952970583E+02 -0.36659104221E+02 -0.31683277218E+03  0.32434911467E+03  0.00000000000E+00 0. -1.
         11    1    3    3    0    0 -0.16773876032E+02 -0.54775238898E+02 -0.61759499936E+02  0.84237316825E+02  0.00000000000E+00 0.  1.
</event>
<event>
 7    1  0.4274778E-006  0.1085958E+03  0.7561462E-02  0.1263193E+00
         -1   -1    0    0    0  501 -0.00000000000E+00  0.00000000000E+00  0.36367702980E+03  0.36367702980E+03  0.00000000000E+00 0.  1.
          1   -1    0    0  501    0  0.00000000000E+00 -0.00000000000E+00 -0.78727377312E+02  0.78727377312E+02  0.00000000000E+00 0. -1.
         23    2    1    2    0    0  0.90196191483E+02  0.28140751688E+02  0.17771314957E+02  0.13263241635E+03  0.91368940942E+02 0.  0.
          5    1    1    2  502    0  0.16986984643E+01  0.12023749298E+02  0.16858624044E+03  0.16907468465E+03  0.41800000000E+01 0.  1.
         -5    1    1    2    0  502 -0.91894889947E+02 -0.40164500986E+02  0.98592097095E+02  0.14069730611E+03  0.41800000000E+01 0.  1.
        -11    1    3    3    0    0  0.52753105741E+02  0.38283445695E+02 -0.29445951967E+02  0.71523258223E+02  0.00000000000E+00 0. -1.
         11    1    3    3    0    0  0.37443085742E+02 -0.10142694007E+02  0.47217266924E+02  0.61109158130E+02  0.00000000000E+00 0.  1.
</event>
<event>
 7    1  0.4274778E-006  0.1177161E+03  0.7561462E-02  0.1246913E+00
         -2   -1    0    0    0  501 -0.00000000000E+00  0.00000000000E+00  0.12877025845E+03  0.12877025845E+03  0.00000000000E+00 0.  1.
          2   -1    0    0  501    0  0.00000000000E+00 -0.00000000000E+00 -0.13817411238E+03  0.13817411238E+03  0.00000000000E+00 0. -1.
         23    2    1    2    0    0 -0.40450361592E+02  0.31170398429E+02 -0.63080155525E+02  0.12155969688E+03  0.90497670648E+02 0.  0.
          5    1    1    2  502    0 -0.40110145609E+02  0.13792323006E+02  0.20037253873E+02  0.47095816136E+02  0.41800000000E+01 0.  1.
         -5    1    1    2    0  502  0.80560507201E+02 -0.44962721434E+02  0.33639047715E+02  0.98288857815E+02  0.41800000000E+01 0.  1.
        -11    1    3    3    0    0 -0.15784308561E+02 -0.30332418681E+02 -0.36909836607E+02  0.50314372282E+02  0.00000000000E+00 0. -1.
         11    1    3    3    0    0 -0.24666053030E+02  0.61502817109E+02 -0.26170318919E+02  0.71245324596E+02  0.00000000000E+00 0.  1.
</event>
<event>
 7    1  0.4274778E-006  0.1244969E+03  0.7561462E-02  0.1235858E+00
         -1   -1    0    0    0  501 -0.00000000000E+00  0.00000000000E+00  0.24022717272E+02  0.24022717272E+02  0.00000000000E+00 0.  1.
          1   -1    0    0  501    0  0.00000000000E+00 -0.00000000000E+00 -0.77497022808E+03  0.77497022808E+03  0.00000000000E+00 0. -1.
         23    2    1    2    0    0  0.20926897063E+02  0.22659459704E+02 -0.30654797889E+03  0.31946677503E+03  0.84474675822E+02 0.  0.
          5    1    1    2  502    0  0.50978572322E+02 -0.61473478426E+02 -0.32560260000E+03  0.33527947881E+03  0.41800000000E+01 0. -1.
         -5    1    1    2    0  502 -0.71905469385E+02  0.38814018722E+02 -0.11879693192E+03  0.14424669151E+03  0.41800000000E+01 0.  1.
        -11    1    3    3    0    0  0.13557015282E+01  0.51954928651E+02 -0.21928835708E+03  0.22536312052E+03  0.00000000000E+00 0.  1.
         11    1    3    3    0    0  0.19571195535E+02 -0.29295468947E+02 -0.87259621804E+02  0.94103654514E+02  0.00000000000E+00 0. -1.
</event>
<event>
 7    1  0.4274778E-006  0.6521416E+02  0.7561462E-02  0.1377168E+00
         -1   -1    0    0    0  501 -0.00000000000E+00  0.00000000000E+00  0.12710410525E+03  0.12710410525E+03  0.00000000000E+00 0.  1.
          1   -1    0    0  501    0  0.00000000000E+00 -0.00000000000E+00 -0.10176467706E+03  0.10176467706E+03  0.00000000000E+00 0. -1.
         23    2    1    2    0    0  0.22221463685E+02 -0.24752446679E+02  0.51852116254E+01  0.97872725321E+02  0.91900527078E+02 0.  0.
          5    1    1    2  502    0 -0.45106490049E+02  0.76858798453E+01 -0.42139587670E+02  0.62344891070E+02  0.41800000000E+01 0. -1.
         -5    1    1    2    0  502  0.22885026364E+02  0.17066566833E+02  0.62293804242E+02  0.68651165919E+02  0.41800000000E+01 0. -1.
        -11    1    3    3    0    0 -0.70503349636E+01 -0.25389263138E+02 -0.37669741840E+02  0.45970983849E+02  0.00000000000E+00 0.  1.
         11    1    3    3    0    0  0.29271798649E+02  0.63681645906E+00  0.42854953465E+02  0.51901741472E+02  0.00000000000E+00 0. -1.
</event>
<event>
 7    1  0.4274778E-006  0.1993275E+03  0.7561462E-02  0.1150308E+00
          1   -1    0    0  501    0  0.00000000000E+00  0.00000000000E+00  0.26952402752E+03  0.26952402752E+03  0.00000000000E+00 0. -1.
         -1   -1    0    0    0  501 -0.00000000000E+00 -0.00000000000E+00 -0.15191451188E+03  0.15191451188E+03  0.00000000000E+00 0.  1.
         23    2    1    2    0    0 -0.15041536610E+03  0.73840222108E+02  0.21510352811E+02  0.19130837844E+03  0.89772153949E+02 0.  0.
          5    1    1    2  502    0 -0.73287769347E+01 -0.48413760487E+02  0.19233712402E+02  0.52773205972E+02  0.41800000000E+01 0.  1.
         -5    1    1    2    0  502  0.15774414303E+03 -0.25426461622E+02  0.76865450434E+02  0.17735695499E+03  0.41800000000E+01 0.  1.
        -11    1    3    3    0    0 -0.83798549241E+02  0.88059352024E+02  0.76836933535E+01  0.12180182871E+03  0.00000000000E+00 0.  1.
         11    1    3    3    0    0 -0.66616816857E+02 -0.14219129916E+02  0.13826659458E+02  0.69506549731E+02  0.00000000000E+00 0. -1.
</event>
<event>
 7    1  0.4274778E-006  0.8287320E+02  0.7561462E-02  0.1321090E+00
         -1   -1    0    0    0  501 -0.00000000000E+00  0.00000000000E+00  0.20991067941E+03  0.20991067941E+03  0.00000000000E+00 0.  1.
          1   -1    0    0  501    0  0.00000000000E+00 -0.00000000000E+00 -0.78841931566E+02  0.78841931566E+02  0.00000000000E+00 0. -1.
         23    2    1    2    0    0 -0.33532435829E+02 -0.39514023882E+02 -0.83769884176E+00  0.99723207294E+02  0.85195269808E+02 0.  0.
          5    1    1    2  502    0 -0.11389896977E+02  0.96575430116E+01 -0.21416678896E+02  0.26441339321E+02  0.41800000000E+01 0. -1.
         -5    1    1    2    0  502  0.44922332807E+02  0.29856480870E+02  0.15332312559E+03  0.16258806437E+03  0.41800000000E+01 0. -1.
        -11    1    3    3    0    0 -0.34852779821E+02 -0.63329452034E+02  0.10960600116E+02  0.73112724686E+02  0.00000000000E+00 0.  1.
         11    1    3    3    0    0  0.13203439916E+01  0.23815428152E+02 -0.11798298958E+02  0.26610482608E+02  0.00000000000E+00 0. -1.
</event>
<event>
 7    1  0.4274778E-006  0.1240757E+03  0.7561462E-02  0.1236521E+00
         -1   -1    0    0    0  501 -0.00000000000E+00  0.00000000000E+00  0.13400560690E+03  0.13400560690E+03  0.00000000000E+00 0.  1.
          1   -1    0    0  501    0  0.00000000000E+00 -0.00000000000E+00 -0.34765093520E+03  0.34765093520E+03  0.00000000000E+00 0. -1.
         23    2    1    2    0    0 -0.50139203400E+02  0.66814773074E+02 -0.29553234153E+03  0.32075638480E+03  0.92558845496E+02 0.  0.
          5    1    1    2  502    0 -0.15321360157E+02 -0.63153815146E+02  0.14352369895E+02  0.66682916599E+02  0.41800000000E+01 0. -1.
         -5    1    1    2    0  502  0.65460563557E+02 -0.36609579275E+01  0.67534643336E+02  0.94217240698E+02  0.41800000000E+01 0.  1.
        -11    1    3    3    0    0 -0.61826078516E+02  0.14196784079E+02 -0.10432496774E+03  0.12209713984E+03  0.00000000000E+00 0.  1.
         11    1    3    3    0    0  0.11686875116E+02  0.52617988995E+02 -0.19120737379E+03  0.19865924496E+03  0.00000000000E+00 0. -1.
</event>
<event>
 7    1  0.4274778E-006  0.1371489E+03  0.7561462E-02  0.1217218E+00
          2   -1    0    0  501    0  0.00000000000E+00  0.00000000000E+00  0.47939551499E+02  0.47939551499E+02  0.00000000000E+00 0. -1.
         -2   -1    0    0    0  501 -0.00000000000E+00 -0.00000000000E+00 -0.48704924587E+03  0.48704924587E+03  0.00000000000E+00 0.  1.
         23    2    1    2    0    0  0.69435643247E+02  0.83042256237E+02 -0.16455927444E+03  0.21445227011E+03  0.84809766407E+02 0.  0.
          5    1    1    2  502    0 -0.62571254204E+02 -0.11351506217E+03 -0.18768909381E+03  0.22813482752E+03  0.41800000000E+01 0. -1.
         -5    1    1    2    0  502 -0.68643890433E+01  0.30472805935E+02 -0.86861326123E+02  0.92401699737E+02  0.41800000000E+01 0. -1.
        -11    1    3    3    0    0  0.53319133979E+02  0.38604175971E+02 -0.30974356825E+02  0.72750417397E+02  0.00000000000E+00 0. -1.
         11    1    3    3    0    0  0.16116509268E+02  0.44438080266E+02 -0.13358491762E+03  0.14170185272E+03  0.00000000000E+00 0.  1.
</event>
<event>
 7    1  0.4274778E-006  0.2350137E+03  0.7561462E-02  0.1123160E+00
         -2   -1    0    0    0  501 -0.00000000000E+00  0.00000000000E+00  0.29617374537E+03  0.29617374537E+03  0.00000000000E+00 0.  1.
          2   -1    0    0  501    0  0.00000000000E+00 -0.00000000000E+00 -0.58459080919E+03  0.58459080919E+03  0.00000000000E+00 0. -1.
         23    2    1    2    0    0  0.61730423239E+02 -0.19931873622E+03 -0.50569281201E+03  0.55458270386E+03  0.91094190508E+02 0.  0.
          5    1    1    2  502    0  0.38277368333E+02  0.50011686729E+02  0.48337884018E+02  0.79500623691E+02  0.41800000000E+01 0. -1.
         -5    1    1    2    0  502 -0.10000779157E+03  0.14930704949E+03  0.16893786417E+03  0.24668122700E+03  0.41800000000E+01 0. -1.
        -11    1    3    3    0    0 -0.97665972737E+01 -0.11989290172E+03 -0.24900350306E+03  0.27653650544E+03  0.00000000000E+00 0.  1.
         11    1    3    3    0    0  0.71497020513E+02 -0.79425834503E+02 -0.25668930895E+03  0.27804619842E+03  0.00000000000E+00 0. -1.
</event>
<event>
 7    1  0.4274778E-006  0.7100986E+02  0.7561462E-02  0.1356692E+00
          1   -1    0    0  501    0  0.00000000000E+00  0.00000000000E+00  0.28705474260E+03  0.28705474260E+03  0.00000000000E+00 0. -1.
         -1   -1    0    0    0  501 -0.00000000000E+00 -0.00000000000E+00 -0.30330924749E+02  0.30330924749E+02  0.00000000000E+00 0.  1.
         23    2    1    2    0    0 -0.45783311080E+01 -0.18497790876E+02  0.60017829614E+02  0.83494838455E+02  0.54828083990E+02 0.  0.
          5    1    1    2  502    0  0.48359155405E+02  0.19042776290E+01  0.22647471045E+02  0.53596777231E+02  0.41800000000E+01 0.  1.
         -5    1    1    2    0  502 -0.43780824297E+02  0.16593513247E+02  0.17405851719E+03  0.18029405166E+03  0.41800000000E+01 0.  1.
        -11    1    3    3    0    0 -0.17497025717E+02  0.62010627651E+01  0.14347081461E+01  0.18618739910E+02  0.00000000000E+00 0.  1.
         11    1    3    3    0    0  0.12918694609E+02 -0.24698853641E+02  0.58583121468E+02  0.64876098546E+02  0.00000000000E+00 0. -1.
</event>
<event>
 7    1  0.4274778E-006  0.7892425E+02  0.7561462E-02  0.1332132E+00
         -2   -1    0    0    0  501 -0.00000000000E+00  0.00000000000E+00  0.94049046494E+02  0.94049046494E+02  0.00000000000E+00 0. -1.
          2   -1    0    0  501    0  0.00000000000E+00 -0.00000000000E+00 -0.15734369313E+03  0.15734369313E+03  0.00000000000E+00 0.  1.
         23    2    1    2    0    0  0.37624397812E+02  0.18542450784E+02 -0.66157522605E+02  0.11941875541E+03  0.90136582777E+02 0.  0.
          5    1    1    2  502    0  0.33025352194E+02  0.15945975557E+02  0.31168949632E+02  0.48310701146E+02  0.41800000000E+01 0.  1.
         -5    1    1    2    0  502 -0.70649750006E+02 -0.34488426341E+02 -0.28306073663E+02  0.83663283067E+02  0.41800000000E+01 0.  1.
        -11    1    3    3    0    0  0.18632203452E+02  0.11800994787E+02  0.20703818021E+02  0.30250133290E+02  0.00000000000E+00 0. -1.
         11    1    3    3    0    0  0.18992194360E+02  0.67414559975E+01 -0.86861340625E+02  0.89168622120E+02  0.00000000000E+00 0.  1.
</event>
<event>
 7    1  0.4274778E-006  0.1382216E+03  0.7561462E-02  0.1215742E+00
         -2   -1    0    0    0  501 -0.00000000000E+00  0.00000000000E+00  0.11372189996E+03  0.11372189996E+03  0.00000000000E+00 0. -1.
          2   -1    0    0  501    0  0.00000000000E+00 -0.00000000000E+00 -0.22657203919E+03  0.22657203919E+03  0.00000000000E+00 0.  1.
         23    2    1    2    0    0  0.49374740214E+02  0.84428794160E+02 -0.12064960239E+03  0.18131472224E+03  0.93555415068E+02 0.  0.
          5    1    1    2  502    0  0.35391823145E+02 -0.34178608354E+02 -0.24595810241E+02  0.55165067714E+02  0.41800000000E+01 0.  1.
         -5    1    1    2    0  502 -0.84766563358E+02 -0.50250185807E+02  0.32395273395E+02  0.10381414921E+03  0.41800000000E+01 0.  1.
        -11    1    3    3    0    0  0.29450426001E+02  0.99298111000E+02 -0.11688278066E+03  0.15616986538E+03  0.00000000000E+00 0.  1.
         11    1    3    3    0    0  0.19924314213E+02 -0.14869316840E+02 -0.37668217297E+01  0.25144856852E+02  0.00000000000E+00 0. -1.
</event>
<event>
 7    1  0.4274778E-006  0.1353258E+03  0.7561462E-02  0.1219761E+00
         -1   -1    0    0    0  501 -0.00000000000E+00  0.00000000000E+00  0.16368041368E+03  0.16368041368E+03  0.00000000000E+00 0.  1.
          1   -1    0    0  501    0  0.00000000000E+00 -0.00000000000E+00 -0.29498278446E+03  0.29498278446E+03  0.00000000000E+00 0. -1.
         23    2    1    2    0    0 -0.91471846888E+02  0.25862168464E+02 -0.23506365409E+03  0.27038154335E+03  0.93889866228E+02 0.  0.
          5    1    1    2  502    0  0.92694748468E+02 -0.58498514938E+02  0.40431587186E+02  0.11690414144E+03  0.41800000000E+01 0.  1.
         -5    1    1    2    0  502 -0.12229015799E+01  0.32636346473E+02  0.63329696131E+02  0.71377513346E+02  0.41800000000E+01 0.  1.
        -11    1    3    3    0    0  0.16488501292E+02  0.89440048094E+01 -0.12807157679E+02  0.22713194066E+02  0.00000000000E+00 0.  1.
         11    1    3    3    0    0 -0.10796034818E+03  0.16918163655E+02 -0.22225649641E+03  0.24766834929E+03  0.00000000000E+00 0. -1.
</event>
<event>
 7    1  0.4274778E-006  0.7767771E+02  0.7561462E-02  0.1335774E+00
         -2   -1    0    0    0  501 -0.00000000000E+00  0.00000000000E+00  0.43490042500E+03  0.43490042500E+03  0.00000000000E+00 0.  1.
          2   -1    0    0  501    0  0.00000000000E+00 -0.00000000000E+00 -0.40329084767E+02  0.40329084767E+02  0.00000000000E+00 0. -1.
         23    2    1    2    0    0 -0.21467695212E+02 -0.50010348765E+02  0.77108087270E+02  0.12969781815E+03  0.88960496783E+02 0.  0.
          5    1    1    2  502    0  0.41873233877E+02  0.76115603853E+01  0.25538464715E+02  0.49809528674E+02  0.41800000000E+01 0. -1.
         -5    1    1    2    0  502 -0.20405538665E+02  0.42398788380E+02  0.29192478825E+03  0.29572216294E+03  0.41800000000E+01 0. -1.
        -11    1    3    3    0    0 -0.31768879375E+02 -0.37757392812E+02  0.94162054217E+02  0.10630792474E+03  0.00000000000E+00 0.  1.
         11    1    3    3    0    0  0.10301184163E+02 -0.12252955953E+02 -0.17053966947E+02  0.23389893403E+02  0.00000000000E+00 0. -1.
</event>
<event>
 7    1  0.4274778E-006  0.7208876E+02  0.7561462E-02  0.1353131E+00
          1   -1    0    0  501    0  0.00000000000E+00  0.00000000000E+00  0.35619801700E+03  0.35619801700E+03  0.00000000000E+00 0. -1.
         -1   -1    0    0    0  501 -0.00000000000E+00 -0.00000000000E+00 -0.35481869510E+02  0.35481869510E+02  0.00000000000E+00 0.  1.
         23    2    1    2    0    0 -0.26834521802E+02 -0.52907375002E+01  0.14026500431E+03  0.17028834064E+03  0.92605421340E+02 0.  0.
          5    1    1    2  502    0 -0.97597208869E+01  0.23713365939E+01  0.18395652264E+03  0.18427791515E+03  0.41800000000E+01 0.  1.
         -5    1    1    2    0  502  0.36594242689E+02  0.29194009063E+01 -0.35053794653E+01  0.37113630715E+02  0.41800000000E+01 0.  1.
        -11    1    3    3    0    0  0.28821721038E+02  0.20138786126E+02  0.56659880236E+02  0.66682863905E+02  0.00000000000E+00 0. -1.
         11    1    3    3    0    0 -0.55656242840E+02 -0.25429523626E+02  0.83605124073E+02  0.10360547674E+03  0.00000000000E+00 0.  1.
</event>
<event>
 7    1  0.4274778E-006  0.1613579E+03  0.7561462E-02  0.1187172E+00
          2   -1    0    0  501    0  0.00000000000E+00  0.00000000000E+00  0.37894076431E+03  0.37894076431E+03  0.00000000000E+00 0.  1.
         -2   -1    0    0    0  501 -0.00000000000E+00 -0.00000000000E+00 -0.16796434522E+03  0.16796434522E+03  0.00000000000E+00 0. -1.
         23    2    1    2    0    0 -0.11662165918E+03  0.64575555781E+02  0.30244144112E+03  0.34249364316E+03  0.89780045130E+02 0.  0.
          5    1    1    2  502    0  0.52911522809E+02 -0.96333549636E+02 -0.68139541776E+02  0.12938412416E+03  0.41800000000E+01 0. -1.
         -5    1    1    2    0  502  0.63710136367E+02  0.31757993856E+02 -0.23325480254E+02  0.75027342208E+02  0.41800000000E+01 0. -1.
        -11    1    3    3    0    0 -0.23662186429E+02  0.37948246944E+02  0.18518437989E+03  0.19050780317E+03  0.00000000000E+00 0.  1.
         11    1    3    3    0    0 -0.92959472747E+02  0.26627308836E+02  0.11725706123E+03  0.15198583999E+03  0.00000000000E+00 0. -1.
</event>
<event>
 7    1  0.4274778E-006  0.1238532E+03  0.7561462E-02  0.1236873E+00
          1   -1    0    0  501    0  0.00000000000E+00  0.00000000000E+00  0.61701778388E+03  0.61701778388E+03  0.00000000000E+00 0. -1.
         -1   -1    0    0    0  501 -0.00000000000E+00 -0.00000000000E+00 -0.35503816206E+02  0.35503816206E+02  0.00000000000E+00 0.  1.
         23    2    1    2    0    0 -0.33339484998E+02  0.84588911399E+02  0.36364531776E+03  0.38559439941E+03  0.90434056257E+02 0.  0.
          5    1    1    2  502    0  0.19487083921E+02  0.21212792980E+02  0.11509574527E+03  0.11871913075E+03  0.41800000000E+01 0. -1.
         -5    1    1    2    0  502  0.13852401077E+02 -0.10580170438E+03  0.10277290464E+03  0.14820806993E+03  0.41800000000E+01 0.  1.
        -11    1    3    3    0    0 -0.93070307866E+01  0.87149089307E+02  0.34232290086E+03  0.35336461770E+03  0.00000000000E+00 0. -1.
         11    1    3    3    0    0 -0.24032454212E+02 -0.25601779086E+01  0.21322416908E+02  0.32229781711E+02  0.00000000000E+00 0.  1.
</event>
<event>
 7    1  0.4274778E-006  0.9873734E+02  0.7561462E-02  0.1282974E+00
          2   -1    0    0  501    0  0.00000000000E+00  0.00000000000E+00  0.10716078901E+03  0.10716078901E+03  0.00000000000E+00 0. -1.
         -2   -1    0    0    0  501 -0.00000000000E+00 -0.00000000000E+00 -0.12756182983E+03  0.12756182983E+03  0.00000000000E+00 0.  1.
         23    2    1    2    0    0  0.33125059186E+02  0.12645392008E+02 -0.35898212743E+02  0.10381247003E+03  0.90725805432E+02 0.  0.
          5    1    1    2  502    0  0.34985168422E+02  0.17791473457E+02 -0.24201656385E+02  0.46300011977E+02  0.41800000000E+01 0. -1.
         -5    1    1    2    0  502 -0.68110227608E+02 -0.30436865465E+02  0.39698828310E+02  0.84610136824E+02  0.41800000000E+01 0. -1.
        -11    1    3    3    0    0  0.56150521255E+02  0.19203732816E+02 -0.48605142822E+02  0.76708045862E+02  0.00000000000E+00 0.  1.
         11    1    3    3    0    0 -0.23025462069E+02 -0.65583408080E+01  0.12706930079E+02  0.27104424172E+02  0.00000000000E+00 0. -1.
</event>
<event>
 7    1  0.4274778E-006  0.1448356E+03  0.7561462E-02  0.1206967E+00
         -2   -1    0    0    0  501 -0.00000000000E+00  0.00000000000E+00  0.57668233130E+02  0.57668233130E+02  0.00000000000E+00 0.  1.
          2   -1    0    0  501    0  0.00000000000E+00 -0.00000000000E+00 -0.51685631618E+03  0.51685631618E+03  0.00000000000E+00 0. -1.
         23    2    1    2    0    0 -0.15862797860E+02  0.12875682123E+03 -0.27115608099E+03  0.31406080947E+03  0.90986946401E+02 0.  0.
          5    1    1    2  502    0  0.57837128089E+01 -0.10912231320E+03 -0.49351329101E+02  0.11997565026E+03  0.41800000000E+01 0. -1.
         -5    1    1    2    0  502  0.10079085051E+02 -0.19634508035E+02 -0.13868067296E+03  0.14048808958E+03  0.41800000000E+01 0. -1.
        -11    1    3    3    0    0 -0.52932446589E+02  0.88555196739E+02 -0.16386582905E+03  0.19363852071E+03  0.00000000000E+00 0.  1.
         11    1    3    3    0    0  0.37069648730E+02  0.40201624496E+02 -0.10729025194E+03  0.12042228876E+03  0.00000000000E+00 0. -1.
</event>
<event>
 7    1  0.4274778E-006  0.1012933E+03  0.7561462E-02  0.1277600E+00
         -1   -1    0    0    0  501 -0.00000000000E+00  0.00000000000E+00  0.47619459632E+02  0.47619459632E+02  0.00000000000E+00 0.  1.
          1   -1    0    0  501    0  0.00000000000E+00 -0.00000000000E+00 -0.37625156423E+03  0.37625156423E+03  0.00000000000E+00 0. -1.
         23    2    1    2    0    0  0.53074257160E+02  0.29456964592E+02 -0.22483756202E+03  0.25039700385E+03  0.91989894591E+02 0.  0.
          5    1    1    2  502    0 -0.23703222241E+02 -0.58826417876E+02 -0.11397980346E+03  0.13050386271E+03  0.41800000000E+01 0.  1.
         -5    1    1    2    0  502 -0.29371034919E+02  0.29369453284E+02  0.10185260892E+02  0.42970157294E+02  0.41800000000E+01 0.  1.
        -11    1    3    3    0    0  0.71923602910E+02  0.14864839059E+02 -0.10453649863E+03  0.12775698666E+03  0.00000000000E+00 0.  1.
         11    1    3    3    0    0 -0.18849345750E+02  0.14592125533E+02 -0.12030106339E+03  0.12264001719E+03  0.00000000000E+00 0. -1.
</event>
<event>
 7    1  0.4274778E-006  0.1091871E+03  0.7561462E-02  0.1262083E+00
          1   -1    0    0  501    0  0.00000000000E+00  0.00000000000E+00  0.86854656251E+03  0.86854656251E+03  0.00000000000E+00 0. -1.
         -1   -1    0    0    0  501 -0.00000000000E+00 -0.00000000000E+00 -0.15078997064E+02  0.15078997064E+02  0.00000000000E+00 0.  1.
         23    2    1    2    0    0  0.36315767224E+02  0.87017588916E+01  0.37860485024E+03  0.39114526335E+03  0.90875898100E+02 0.  0.
          5    1    1    2  502    0 -0.41945464600E+02  0.49874557193E+02  0.32354087360E+03  0.33006524013E+03  0.41800000000E+01 0.  1.
         -5    1    1    2    0  502  0.56296973756E+01 -0.58576316084E+02  0.15132184161E+03  0.16241505610E+03  0.41800000000E+01 0.  1.
        -11    1    3    3    0    0  0.16690161959E+02 -0.39040765457E+02  0.22854240261E+03  0.23245294720E+03  0.00000000000E+00 0.  1.
         11    1    3    3    0    0  0.19625605266E+02  0.47742524349E+02  0.15006244764E+03  0.15869231615E+03  0.00000000000E+00 0. -1.
</event>
<event>
 7    1  0.4274778E-006  0.1207870E+03  0.7561462E-02  0.1241804E+00
          1   -1    0    0  501    0  0.00000000000E+00  0.00000000000E+00  0.33228124362E+03  0.33228124362E+03  0.00000000000E+00 0. -1.
         -1   -1    0    0    0  501 -0.00000000000E+00 -0.00000000000E+00 -0.93329034231E+02  0.93329034231E+02  0.00000000000E+00 0.  1.
         23    2    1    2    0    0 -0.63168134888E+02 -0.98004703119E+01  0.26291228207E+03  0.28310613954E+03  0.83306396507E+02 0.  0.
          5    1    1    2  502    0 -0.18456032130E+02  0.44375738798E+02  0.65010507655E+01  0.48678202277E+02  0.41800000000E+01 0. -1.
         -5    1    1    2    0  502  0.81624167018E+02 -0.34575268486E+02 -0.30461123440E+02  0.93825936039E+02  0.41800000000E+01 0. -1.
        -11    1    3    3    0    0 -0.47803373741E+02  0.33677635996E+02  0.15939297229E+03  0.16978063883E+03  0.00000000000E+00 0. -1.
         11    1    3    3    0    0 -0.15364761147E+02 -0.43478106308E+02  0.10351930978E+03  0.11332550071E+03  0.00000000000E+00 0.  1.
</event>
<event>
 7    1  0.4274778E-006  0.9632359E+02  0.7561462E-02  0.1288223E+00
          1   -1    0    0  501    0  0.00000000000E+00  0.00000000000E+00  0.39870821348E+03  0.39870821348E+03  0.00000000000E+00 0. -1.
         -1   -1    0    0    0  501 -0.00000000000E+00 -0.00000000000E+00 -0.38892910472E+02  0.38892910472E+02  0.00000000000E+00 0.  1.
         23    2    1    2    0    0 -0.31430643130E+02 -0.41044526961E+02  0.22160481923E+03  0.24415313187E+03  0.88484560083E+02 0.  0.
          5    1    1    2  502    0  0.37713256641E+02 -0.11851635890E+02 -0.54955680839E+01  0.40130096789E+02  0.41800000000E+01 0. -1.
         -5    1    1    2    0  502 -0.62826135106E+01  0.52896162851E+02  0.14370605186E+03  0.15331789529E+03  0.41800000000E+01 0. -1.
        -11    1    3    3    0    0  0.26825747321E+02 -0.29865174835E+02  0.11955971641E+03  0.12611928947E+03  0.00000000000E+00 0.  1.
         11    1    3    3    0    0 -0.58256390451E+02 -0.11179352126E+02  0.10204510282E+03  0.11803384240E+03  0.00000000000E+00 0. -1.
</event>
<event>
 7    1  0.4274778E-006  0.1292780E+03  0.7561462E-02  0.1228531E+00
          2   -1    0    0  501    0  0.00000000000E+00  0.00000000000E+00  0.49229331417E+02  0.49229331417E+02  0.00000000000E+00 0. -1.
         -2   -1    0    0    0  501 -0.00000000000E+00 -0.00000000000E+00 -0.36878492955E+03  0.36878492955E+03  0.00000000000E+00 0.  1.
         23    2    1    2    0    0 -0.70421262097E+02 -0.28826570202E+02 -0.10779259110E+03  0.16056724692E+03  0.91501217395E+02 0.  0.
          5    1    1    2  502    0  0.99991221791E+02 -0.39201174811E+01 -0.16500440293E+03  0.19302211568E+03  0.41800000000E+01 0. -1.
         -5    1    1    2    0  502 -0.29569959694E+02  0.32746687683E+02 -0.46758604102E+02  0.64424898356E+02  0.41800000000E+01 0. -1.
        -11    1    3    3    0    0 -0.60615317605E+02  0.20347392068E+02 -0.37182732050E+02  0.73964779828E+02  0.00000000000E+00 0. -1.
         11    1    3    3    0    0 -0.98059444922E+01 -0.49173962270E+02 -0.70609859045E+02  0.86602467096E+02  0.00000000000E+00 0.  1.
</event>
<event>
 7    1  0.4274778E-006  0.9093155E+02  0.7561462E-02  0.1300611E+00
          1   -1    0    0  501    0  0.00000000000E+00  0.00000000000E+00  0.20881407427E+03  0.20881407427E+03  0.00000000000E+00 0. -1.
         -1   -1    0    0    0  501 -0.00000000000E+00 -0.00000000000E+00 -0.71196345991E+02  0.71196345991E+02  0.00000000000E+00 0.  1.
         23    2    1    2    0    0  0.32046552830E+02 -0.46091467481E+02  0.79627805854E+02  0.13114151216E+03  0.87784416750E+02 0.  0.
          5    1    1    2  502    0  0.67796173391E+01  0.49981272676E+02  0.86598777486E+02  0.10030409509E+03  0.41800000000E+01 0. -1.
         -5    1    1    2    0  502 -0.38826170169E+02 -0.38898051947E+01 -0.28608855063E+02  0.48564813008E+02  0.41800000000E+01 0. -1.
        -11    1    3    3    0    0  0.57862523236E+01  0.20036941143E+02  0.49799688305E+02  0.53990449912E+02  0.00000000000E+00 0. -1.
         11    1    3    3    0    0  0.26260300506E+02 -0.66128408624E+02  0.29828117548E+02  0.77151062250E+02  0.00000000000E+00 0.  1.
</event>
<event>
 7    1  0.4274778E-006  0.1180770E+03  0.7561462E-02  0.1246304E+00
         -2   -1    0    0    0  501 -0.00000000000E+00  0.00000000000E+00  0.19709086542E+03  0.19709086542E+03  0.00000000000E+00 0.  1.
          2   -1    0    0  501    0  0.00000000000E+00 -0.00000000000E+00 -0.10955598204E+03  0.10955598204E+03  0.00000000000E+00 0. -1.
         23    2    1    2    0    0  0.96975120949E+02  0.63383752468E+00  0.50912506652E+02  0.14417781253E+03  0.93758106094E+02 0.  0.
          5    1    1    2  502    0 -0.10007358642E+03  0.12296130261E+02  0.72317097457E+02  0.12414971810E+03  0.41800000000E+01 0.  1.
         -5    1    1    2    0  502  0.30984654753E+01 -0.12929967786E+02 -0.35694720729E+02  0.38319316841E+02  0.41800000000E+01 0.  1.
        -11    1    3    3    0    0  0.10111510626E+03  0.18647585190E+02  0.64376161298E+02  0.12131070559E+03  0.00000000000E+00 0.  1.
         11    1    3    3    0    0 -0.41399853081E+01 -0.18013747665E+02 -0.13463654646E+02  0.22867106938E+02  0.00000000000E+00 0. -1.
</event>
<event>
 7    1  0.4274778E-006  0.1635680E+03  0.7561462E-02  0.1184726E+00
          1   -1    0    0  501    0  0.00000000000E+00  0.00000000000E+00  0.47533863053E+03  0.47533863053E+03  0.00000000000E+00 0. -1.
         -1   -1    0    0    0  501 -0.00000000000E+00 -0.00000000000E+00 -0.62581739196E+02  0.62581739196E+02  0.00000000000E+00 0.  1.
         23    2    1    2    0    0 -0.60988640513E+01 -0.13057619277E+03  0.23241930954E+03  0.28246730927E+03  0.93175678674E+02 0.  0.
          5    1    1    2  502    0 -0.22619210182E+02 -0.96177227095E+01 -0.33454618700E+00  0.24934184978E+02  0.41800000000E+01 0.  1.
         -5    1    1    2    0  502  0.28718074233E+02  0.14019391548E+03  0.18067212798E+03  0.23051887548E+03  0.41800000000E+01 0.  1.
        -11    1    3    3    0    0  0.41109446114E+02 -0.79412238159E+02  0.11136625715E+03  0.14282413438E+03  0.00000000000E+00 0.  1.
         11    1    3    3    0    0 -0.47208310165E+02 -0.51163954608E+02  0.12105305239E+03  0.13964317489E+03  0.00000000000E+00 0. -1.
</event>
<event>
 7    1  0.4274778E-006  0.7705622E+02  0.7561462E-02  0.1337619E+00
          2   -1    0    0  501    0  0.00000000000E+00  0.00000000000E+00  0.29542682628E+03  0.29542682628E+03  0.00000000000E+00 0. -1.
         -2   -1    0    0    0  501 -0.00000000000E+00 -0.00000000000E+00 -0.41840412654E+02  0.41840412654E+02  0.00000000000E+00 0.  1.
         23    2    1    2    0    0 -0.14416280106E+02 -0.36190422742E+01  0.13697155689E+03  0.16560631996E+03  0.91887535690E+02 0.  0.
          5    1    1    2  502    0  0.33541238701E+02  0.19005769336E+02  0.13516084345E+03  0.14061351274E+03  0.41800000000E+01 0. -1.
         -5    1    1    2    0  502 -0.19124958594E+02 -0.15386727061E+02 -0.18545986714E+02  0.31047406238E+02  0.41800000000E+01 0. -1.
        -11    1    3    3    0    0  0.44733396577E+01  0.41385821090E+02  0.43805389670E+02  0.60429372983E+02  0.00000000000E+00 0.  1.
         11    1    3    3    0    0 -0.18889619764E+02 -0.45004863364E+02  0.93166167218E+02  0.10517694698E+03  0.00000000000E+00 0. -1.
</event>
<event>
 7    1  0.4274778E-006  0.1198008E+03  0.7561462E-02  0.1243426E+00
          1   -1    0    0  501    0  0.00000000000E+00  0.00000000000E+00  0.67423060817E+02  0.67423060817E+02  0.00000000000E+00 0. -1.
         -1   -1    0    0    0  501 -0.00000000000E+00 -0.00000000000E+00 -0.25150451554E+03  0.25150451554E+03  0.00000000000E+00 0.  1.
         23    2    1    2    0    0  0.90496911422E+01  0.60579675619E+02 -0.36560526151E+02  0.11604436480E+03  0.91530478653E+02 0.  0.
          5    1    1    2  502    0  0.37207253709E+02 -0.73137663786E+02 -0.12541898319E+03  0.14993629093E+03  0.41800000000E+01 0.  1.
         -5    1    1    2    0  502 -0.46256944851E+02  0.12557988167E+02 -0.22101945377E+02  0.52946920621E+02  0.41800000000E+01 0.  1.
        -11    1    3    3    0    0 -0.30048078005E+02 -0.73612859783E+01 -0.41221086255E+01  0.31210051306E+02  0.00000000000E+00 0. -1.
         11    1    3    3    0    0  0.39097769147E+02  0.67940961597E+02 -0.32438417525E+02  0.84834313497E+02  0.00000000000E+00 0.  1.
</event>
<event>
 7    1  0.4274778E-006  0.1768678E+03  0.7561462E-02  0.1170869E+00
          2   -1    0    0  501    0  0.00000000000E+00  0.00000000000E+00  0.69053754252E+03  0.69053754252E+03  0.00000000000E+00 0. -1.
         -2   -1    0    0    0  501 -0.00000000000E+00 -0.00000000000E+00 -0.12268949453E+03  0.12268949453E+03  0.00000000000E+00 0.  1.
         23    2    1    2    0    0 -0.15726157451E+03  0.16787001858E+02  0.56304099682E+03  0.59199361959E+03  0.91805638662E+02 0.  0.
          5    1    1    2  502    0  0.73144122003E+01 -0.38540235036E+02 -0.46712718255E+02  0.61142463061E+02  0.41800000000E+01 0. -1.
         -5    1    1    2    0  502  0.14994716231E+03  0.21753233178E+02  0.51519769419E+02  0.16009095439E+03  0.41800000000E+01 0.  1.
        -11    1    3    3    0    0 -0.10662660166E+03  0.29247573899E+02  0.48956089207E+03  0.50189094414E+03  0.00000000000E+00 0. -1.
         11    1    3    3    0    0 -0.50634972842E+02 -0.12460572041E+02  0.73480104752E+02  0.90102675458E+02  0.00000000000E+00 0.  1.
</event>
<event>
 7    1  0.4274778E-006  0.8981364E+02  0.7561462E-02  0.1303304E+00
          1   -1    0    0  501    0  0.00000000000E+00  0.00000000000E+00  0.77800083836E+02  0.77800083836E+02  0.00000000000E+00 0. -1.
         -1   -1    0    0    0  501 -0.00000000000E+00 -0.00000000000E+00 -0.20719398367E+03  0.20719398367E+03  0.00000000000E+00 0.  1.
         23    2    1    2    0    0 -0.32566756145E+02  0.58713127563E+02 -0.59054451354E+02  0.12655507293E+03  0.89559663387E+02 0.  0.
          5    1    1    2  502    0  0.59464674847E+02 -0.46218569082E+02 -0.93819065295E+02  0.12038144830E+03  0.41800000000E+01 0. -1.
         -5    1    1    2    0  502 -0.26897918702E+02 -0.12494558481E+02  0.23479616818E+02  0.38057546269E+02  0.41800000000E+01 0. -1.
        -11    1    3    3    0    0  0.60455303467E+01  0.13481091451E+02 -0.65120144918E+02  0.66775156593E+02  0.00000000000E+00 0.  1.
         11    1    3    3    0    0 -0.38612286492E+02  0.45232036112E+02  0.60656935645E+01  0.59779916338E+02  0.00000000000E+00 0. -1.
</event>
<event>
 7    1  0.4274778E-006  0.1209386E+03  0.7561462E-02  0.1241557E+00
         -3   -1    0    0    0  501 -0.00000000000E+00  0.00000000000E+00  0.71414672067E+02  0.71414672067E+02  0.00000000000E+00 0.  1.
          3   -1    0    0  501    0  0.00000000000E+00 -0.00000000000E+00 -0.21627306609E+03  0.21627306609E+03  0.00000000000E+00 0. -1.
         23    2    1    2    0    0  0.54906810848E+02  0.17044484061E+02 -0.71571473336E+02  0.13172601939E+03  0.94466904653E+02 0.  0.
          5    1    1    2  502    0 -0.35516789990E+02 -0.67884588896E+02 -0.65407123849E+02  0.10082323160E+03  0.41800000000E+01 0.  1.
         -5    1    1    2    0  502 -0.19390020858E+02  0.50840104835E+02 -0.78797968400E+01  0.55138487164E+02  0.41800000000E+01 0.  1.
        -11    1    3    3    0    0 -0.10890420822E+02  0.39561416119E+02 -0.27399026996E+02  0.49339776969E+02  0.00000000000E+00 0.  1.
         11    1    3    3    0    0  0.65797231669E+02 -0.22516932058E+02 -0.44172446340E+02  0.82386242422E+02  0.00000000000E+00 0. -1.
</event>
<event>
 7    1  0.4274778E-006  0.1097071E+03  0.7561462E-02  0.1261113E+00
         -2   -1    0    0    0  501 -0.00000000000E+00  0.00000000000E+00  0.54884978309E+03  0.54884978309E+03  0.00000000000E+00 0.  1.
          2   -1    0    0  501    0  0.00000000000E+00 -0.00000000000E+00 -0.43607240529E+02  0.43607240529E+02  0.00000000000E+00 0. -1.
         23    2    1    2    0    0  0.61039582806E+02 -0.13598642910E+02  0.63114506451E+02  0.12873742163E+03  0.93161843292E+02 0.  0.
          5    1    1    2  502    0 -0.22864044232E+02  0.60175998865E+02  0.12256706405E+03  0.13850658088E+03  0.41800000000E+01 0.  1.
         -5    1    1    2    0  502 -0.38175538573E+02 -0.46577355955E+02  0.31956097206E+03  0.32521302111E+03  0.41800000000E+01 0.  1.
        -11    1    3    3    0    0  0.30307286448E+02 -0.42600459961E+02 -0.59922200069E+00  0.52284700130E+02  0.00000000000E+00 0.  1.
         11    1    3    3    0    0  0.30732296358E+02  0.29001817051E+02  0.63713728452E+02  0.76452721501E+02  0.00000000000E+00 0. -1.
</event>
<event>
 7    1  0.4274778E-006  0.1740801E+03  0.7561462E-02  0.1173659E+00
          1   -1    0    0  501    0  0.00000000000E+00  0.00000000000E+00  0.33696171025E+02  0.33696171025E+02  0.00000000000E+00 0. -1.
         -1   -1    0    0    0  501 -0.00000000000E+00 -0.00000000000E+00 -0.98517098760E+03  0.98517098760E+03  0.00000000000E+00 0.  1.
         23    2    1    2    0    0 -0.91392530545E+01 -0.14180695857E+03 -0.35336215411E+03  0.39150930672E+03  0.90675166641E+02 0.  0.
          5    1    1    2  502    0  0.22387461957E+02  0.16157073674E+03 -0.48557914352E+03  0.51226055718E+03  0.41800000000E+01 0. -1.
         -5    1    1    2    0  502 -0.13248208902E+02 -0.19763778168E+02 -0.11253351895E+03  0.11509729473E+03  0.41800000000E+01 0. -1.
        -11    1    3    3    0    0 -0.40257672129E+02 -0.10604325591E+03 -0.18878049926E+03  0.22023607604E+03  0.00000000000E+00 0.  1.
         11    1    3    3    0    0  0.31118419074E+02 -0.35763702659E+02 -0.16458165485E+03  0.17127323068E+03  0.00000000000E+00 0. -1.
</event>
<event>
 7    1  0.4274778E-006  0.9686268E+02  0.7561462E-02  0.1287035E+00
          1   -1    0    0  501    0  0.00000000000E+00  0.00000000000E+00  0.62251109609E+02  0.62251109609E+02  0.00000000000E+00 0. -1.
         -1   -1    0    0    0  501 -0.00000000000E+00 -0.00000000000E+00 -0.42866184159E+03  0.42866184159E+03  0.00000000000E+00 0.  1.
         23    2    1    2    0    0  0.24413801574E+02 -0.83742883143E+02 -0.44426420590E+02  0.13463610387E+03  0.92435217498E+02 0.  0.
          5    1    1    2  502    0 -0.22029944467E+02  0.44265124773E+02 -0.23057329104E+02  0.54715925925E+02  0.41800000000E+01 0. -1.
         -5    1    1    2    0  502 -0.23838571065E+01  0.39477758370E+02 -0.29892698229E+03  0.30156092141E+03  0.41800000000E+01 0. -1.
        -11    1    3    3    0    0  0.42681079800E+02 -0.67657043662E+02  0.43615531249E+01  0.80113502455E+02  0.00000000000E+00 0. -1.
         11    1    3    3    0    0 -0.18267278226E+02 -0.16085839481E+02 -0.48787973715E+02  0.54522601413E+02  0.00000000000E+00 0.  1.
</event>
<event>
 7    1  0.4274778E-006  0.1179227E+03  0.7561462E-02  0.1246564E+00
          1   -1    0    0  501    0  0.00000000000E+00  0.00000000000E+00  0.31389331581E+03  0.31389331581E+03  0.00000000000E+00 0. -1.
         -1   -1    0    0    0  501 -0.00000000000E+00 -0.00000000000E+00 -0.69495634059E+02  0.69495634059E+02  0.00000000000E+00 0.  1.
         23    2    1    2    0    0 -0.33553650086E+02  0.93023849239E+02  0.12778139930E+03  0.18583710875E+03  0.91804471687E+02 0.  0.
          5    1    1    2  502    0  0.15103149958E+02 -0.86590563017E+02  0.14088914785E+03  0.16611217633E+03  0.41800000000E+01 0. -1.
         -5    1    1    2    0  502  0.18450500129E+02 -0.64332862214E+01 -0.24272865406E+02  0.31439664782E+02  0.41800000000E+01 0. -1.
        -11    1    3    3    0    0 -0.40006416821E+02  0.10604136958E+03  0.12843710594E+03  0.17129324456E+03  0.00000000000E+00 0. -1.
         11    1    3    3    0    0  0.64527667343E+01 -0.13017520345E+02 -0.65570663926E+00  0.14543864193E+02  0.00000000000E+00 0.  1.
</event>
<event>
 7    1  0.4274778E-006  0.7094496E+02  0.7561462E-02  0.1356909E+00
         -1   -1    0    0    0  501 -0.00000000000E+00  0.00000000000E+00  0.63853671714E+02  0.63853671714E+02  0.00000000000E+00 0.  1.
          1   -1    0    0  501    0  0.00000000000E+00 -0.00000000000E+00 -0.33004322074E+03  0.33004322074E+03  0.00000000000E+00 0. -1.
         23    2    1    2    0    0 -0.17652637953E+02  0.10196901794E+02 -0.24874324028E+03  0.26596041718E+03  0.91902946047E+02 0.  0.
          5    1    1    2  502    0 -0.22329817807E+01 -0.28693652751E+02  0.48468176651E+02  0.56523875165E+02  0.41800000000E+01 0. -1.
         -5    1    1    2    0  502  0.19885619734E+02  0.18496750957E+02 -0.65914485397E+02  0.71412600102E+02  0.41800000000E+01 0. -1.
        -11    1    3    3    0    0 -0.80676348748E+01  0.46801026956E+02 -0.80066213701E+02  0.93091468100E+02  0.00000000000E+00 0.  1.
         11    1    3    3    0    0 -0.95850030782E+01 -0.36604125162E+02 -0.16867702657E+03  0.17286894908E+03  0.00000000000E+00 0. -1.
</event>
<event>
 7    1  0.4274778E-006  0.1473064E+03  0.7561462E-02  0.1203822E+00
         -1   -1    0    0    0  501 -0.00000000000E+00  0.00000000000E+00  0.17316847528E+04  0.17316847528E+04  0.00000000000E+00 0.  1.
          1   -1    0    0  501    0  0.00000000000E+00 -0.00000000000E+00 -0.20353649884E+02  0.20353649884E+02  0.00000000000E+00 0. -1.
         23    2    1    2    0    0  0.10211222688E+03  0.95454947361E+02  0.53270828104E+03  0.55858250571E+03  0.93261723923E+02 0.  0.
          5    1    1    2  502    0 -0.27883488877E+02 -0.97456413143E+01  0.73328990937E+03  0.73389647094E+03  0.41800000000E+01 0.  1.
         -5    1    1    2    0  502 -0.74228738005E+02 -0.85709306047E+02  0.44533291254E+03  0.45955942606E+03  0.41800000000E+01 0.  1.
        -11    1    3    3    0    0  0.48815723353E+02  0.83463364019E+02  0.20881744602E+03  0.23011700011E+03  0.00000000000E+00 0. -1.
         11    1    3    3    0    0  0.53296503530E+02  0.11991583342E+02  0.32389083502E+03  0.32846550560E+03  0.00000000000E+00 0.  1.
</event>
<event>
 7    1  0.4274778E-006  0.9350393E+02  0.7561462E-02  0.1294582E+00
         -1   -1    0    0    0  501 -0.00000000000E+00  0.00000000000E+00  0.81948461014E+02  0.81948461014E+02  0.00000000000E+00 0.  1.
          1   -1    0    0  501    0  0.00000000000E+00 -0.00000000000E+00 -0.19666532010E+03  0.19666532010E+03  0.00000000000E+00 0. -1.
         23    2    1    2    0    0  0.35565503656E+02 -0.52788498887E+02 -0.62072586929E+02  0.12872094434E+03  0.93083536668E+02 0.  0.
          5    1    1    2  502    0 -0.49275745575E+02  0.11020709243E+02 -0.82338960265E+02  0.96678497670E+02  0.41800000000E+01 0.  1.
         -5    1    1    2    0  502  0.13710241919E+02  0.41767789644E+02  0.29694688104E+02  0.53214339109E+02  0.41800000000E+01 0.  1.
        -11    1    3    3    0    0  0.41409022157E+01 -0.59835209904E+02 -0.73212299210E+02  0.94643753999E+02  0.00000000000E+00 0. -1.
         11    1    3    3    0    0  0.31424601440E+02  0.70467110166E+01  0.11139712281E+02  0.34077190341E+02  0.00000000000E+00 0.  1.
</event>
<event>
 7    1  0.5501082E-006  0.2250962E+03  0.7561462E-02  0.1130140E+00
          2   -1    0    0  501    0  0.00000000000E+00  0.00000000000E+00  0.20373651003E+04  0.20373651003E+04  0.00000000000E+00 0. -1.
         -2   -1    0    0    0  501 -0.00000000000E+00 -0.00000000000E+00 -0.27278960363E+02  0.27278960363E+02  0.00000000000E+00 0.  1.
         23    2    1    2    0    0 -0.26687318450E+02 -0.20766338861E+03  0.99607103825E+03  0.10217105780E+04  0.88874608251E+02 0.  0.
          5    1    1    2  502    0 -0.26827898983E+02  0.65740378390E+02  0.15395490755E+03  0.16959103594E+03  0.41800000000E+01 0.  1.
         -5    1    1    2    0  502  0.53515217433E+02  0.14192301021E+03  0.86006019413E+03  0.87334244673E+03  0.41800000000E+01 0.  1.
        -11    1    3    3    0    0  0.32900061397E+02 -0.75218328535E+02  0.37597298382E+03  0.38483229536E+03  0.00000000000E+00 0. -1.
         11    1    3    3    0    0 -0.59587379847E+02 -0.13244506007E+03  0.62009805443E+03  0.63687828263E+03  0.00000000000E+00 0.  1.
</event>
<event>
 7    1  0.4274778E-006  0.7504513E+02  0.7561462E-02  0.1343731E+00
          2   -1    0    0  501    0  0.00000000000E+00  0.00000000000E+00  0.15547809015E+03  0.15547809015E+03  0.00000000000E+00 0. -1.
         -2   -1    0    0    0  501 -0.00000000000E+00 -0.00000000000E+00 -0.85920703742E+02  0.85920703742E+02  0.00000000000E+00 0.  1.
         23    2    1    2    0    0  0.32236157698E+02  0.22941625627E+02  0.43823609801E+02  0.10770149323E+03  0.90075606123E+02 0.  0.
          5    1    1    2  502    0 -0.38548556300E+02 -0.15232466462E+02 -0.45475672364E+02  0.61672752528E+02  0.41800000000E+01 0.  1.
         -5    1    1    2    0  502  0.63123986021E+01 -0.77091591654E+01  0.71209448975E+02  0.72024548138E+02  0.41800000000E+01 0.  1.
        -11    1    3    3    0    0  0.24114963205E+02 -0.33125589701E+02  0.11866623683E+02  0.42657389759E+02  0.00000000000E+00 0.  1.
         11    1    3    3    0    0  0.81211944934E+01  0.56067215328E+02  0.31956986118E+02  0.65044103471E+02  0.00000000000E+00 0. -1.
</event>
<event>
 7    1  0.4274778E-006  0.1012321E+03  0.7561462E-02  0.1277726E+00
         -3   -1    0    0    0  501 -0.00000000000E+00  0.00000000000E+00  0.68284422233E+03  0.68284422233E+03  0.00000000000E+00 0.  1.
          3   -1    0    0  501    0  0.00000000000E+00 -0.00000000000E+00 -0.21459733379E+02  0.21459733379E+02  0.00000000000E+00 0. -1.
         23    2    1    2    0    0 -0.40237306548E+01  0.47862160628E+02  0.23577316603E+03  0.25809856522E+03  0.93375086179E+02 0.  0.
          5    1    1    2  502    0  0.19564770784E+02  0.29137108510E+02  0.26519703561E+03  0.26754194334E+03  0.41800000000E+01 0.  1.
         -5    1    1    2    0  502 -0.15541040129E+02 -0.76999269138E+02  0.16041428731E+03  0.17866344716E+03  0.41800000000E+01 0.  1.
        -11    1    3    3    0    0 -0.37405767176E+02  0.38738462154E+02  0.67728266260E+02  0.86527324694E+02  0.00000000000E+00 0. -1.
         11    1    3    3    0    0  0.33382036521E+02  0.91236984744E+01  0.16804489977E+03  0.17157124052E+03  0.00000000000E+00 0.  1.
</event>
<event>
 7    1  0.4274778E-006  0.1039086E+03  0.7561462E-02  0.1272285E+00
         -1   -1    0    0    0  501 -0.00000000000E+00  0.00000000000E+00  0.10905673537E+04  0.10905673537E+04  0.00000000000E+00 0.  1.
          1   -1    0    0  501    0  0.00000000000E+00 -0.00000000000E+00 -0.16397678691E+02  0.16397678691E+02  0.00000000000E+00 0. -1.
         23    2    1    2    0    0 -0.29391931939E+02  0.37819079809E+02  0.26724066348E+03  0.28674837901E+03  0.92265335774E+02 0.  0.
          5    1    1    2  502    0 -0.35489774381E+02 -0.75484250900E+01  0.62868360177E+02  0.72707674412E+02  0.41800000000E+01 0. -1.
         -5    1    1    2    0  502  0.64881706320E+02 -0.30270654719E+02  0.74406065140E+03  0.74750897902E+03  0.41800000000E+01 0.  1.
        -11    1    3    3    0    0 -0.55566521027E+00 -0.27849485194E+02  0.11695139676E+03  0.12022284223E+03  0.00000000000E+00 0.  1.
         11    1    3    3    0    0 -0.28836266728E+02  0.65668565003E+02  0.15028926672E+03  0.16652553678E+03  0.00000000000E+00 0. -1.
</event>
<event>
 7    1  0.4274778E-006  0.2066687E+03  0.7561462E-02  0.1144231E+00
          1   -1    0    0  501    0  0.00000000000E+00  0.00000000000E+00  0.53539061248E+02  0.53539061248E+02  0.00000000000E+00 0.  1.
         -1   -1    0    0    0  501 -0.00000000000E+00 -0.00000000000E+00 -0.98771922057E+03  0.98771922057E+03  0.00000000000E+00 0. -1.
         23    2    1    2    0    0  0.13703101253E+03  0.14502853488E+03 -0.38394295752E+03  0.44274404522E+03  0.93804694032E+02 0.  0.
          5    1    1    2  502    0 -0.70610741896E+02 -0.33192158080E+02 -0.35760343877E+03  0.36604000881E+03  0.41800000000E+01 0. -1.
         -5    1    1    2    0  502 -0.66420270635E+02 -0.11183637680E+03 -0.19263376304E+03  0.23247422779E+03  0.41800000000E+01 0. -1.
        -11    1    3    3    0    0  0.49832518585E+02  0.22508123471E+02 -0.41208936727E+02  0.68469496836E+02  0.00000000000E+00 0.  1.
         11    1    3    3    0    0  0.87198493946E+02  0.12252041141E+03 -0.34273402079E+03  0.37427454838E+03  0.00000000000E+00 0. -1.
</event>
<event>
 7    1  0.4274778E-006  0.1259409E+03  0.7561462E-02  0.1233606E+00
          2   -1    0    0  501    0  0.00000000000E+00  0.00000000000E+00  0.28196483549E+03  0.28196483549E+03  0.00000000000E+00 0. -1.
         -2   -1    0    0    0  501 -0.00000000000E+00 -0.00000000000E+00 -0.10415945704E+03  0.10415945704E+03  0.00000000000E+00 0.  1.
         23    2    1    2    0    0 -0.54206925308E+02 -0.10075052599E+03  0.15856450294E+03  0.21551425784E+03  0.90634620874E+02 0.  0.
          5    1    1    2  502    0 -0.73469064084E+01  0.34867389158E+02  0.61303207314E+02  0.71030046371E+02  0.41800000000E+01 0. -1.
         -5    1    1    2    0  502  0.61553831716E+02  0.65883136833E+02 -0.42062331802E+02  0.99579988324E+02  0.41800000000E+01 0. -1.
        -11    1    3    3    0    0 -0.27838127716E+02 -0.74909566948E+01  0.95815021022E+02  0.10005795341E+03  0.00000000000E+00 0. -1.
         11    1    3    3    0    0 -0.26368797592E+02 -0.93259569296E+02  0.62749481915E+02  0.11545630443E+03  0.00000000000E+00 0.  1.
</event>
<event>
 7    1  0.4274778E-006  0.1116077E+03  0.7561462E-02  0.1257621E+00
          2   -1    0    0  501    0  0.00000000000E+00  0.00000000000E+00  0.27426671361E+03  0.27426671361E+03  0.00000000000E+00 0. -1.
         -2   -1    0    0    0  501 -0.00000000000E+00 -0.00000000000E+00 -0.11045610533E+03  0.11045610533E+03  0.00000000000E+00 0.  1.
         23    2    1    2    0    0 -0.10153389929E+03 -0.22141912563E+02  0.17414814483E+03  0.22176925286E+03  0.89747580308E+02 0.  0.
          5    1    1    2  502    0  0.57586069368E+01  0.54635869055E+01  0.48445941870E+02  0.49269605432E+02  0.41800000000E+01 0. -1.
         -5    1    1    2    0  502  0.95775292353E+02  0.16678325658E+02 -0.58783478416E+02  0.11368396064E+03  0.41800000000E+01 0. -1.
        -11    1    3    3    0    0 -0.46306048360E+02 -0.37531240913E+02  0.14641308093E+03  0.15808110079E+03  0.00000000000E+00 0. -1.
         11    1    3    3    0    0 -0.55227850930E+02  0.15389328350E+02  0.27735063903E+02  0.63688152078E+02  0.00000000000E+00 0.  1.
</event>
<event>
 7    1  0.4274778E-006  0.1221226E+03  0.7561462E-02  0.1239636E+00
          2   -1    0    0  501    0  0.00000000000E+00  0.00000000000E+00  0.67276739710E+03  0.67276739710E+03  0.00000000000E+00 0. -1.
         -2   -1    0    0    0  501 -0.00000000000E+00 -0.00000000000E+00 -0.30920431343E+02  0.30920431343E+02  0.00000000000E+00 0.  1.
         23    2    1    2    0    0  0.17833568185E+02 -0.92015416014E+02  0.31966187464E+03  0.34558926390E+03  0.91996479752E+02 0.  0.
          5    1    1    2  502    0 -0.49577658420E+02  0.32169801834E+02  0.25788830783E+03  0.26460667429E+03  0.41800000000E+01 0.  1.
         -5    1    1    2    0  502  0.31744090234E+02  0.59845614180E+02  0.64296783286E+02  0.93491890249E+02  0.41800000000E+01 0.  1.
        -11    1    3    3    0    0  0.40110512063E+02 -0.26877822870E+02  0.60310906585E+02  0.77257206740E+02  0.00000000000E+00 0.  1.
         11    1    3    3    0    0 -0.22276943878E+02 -0.65137593144E+02  0.25935096805E+03  0.26833205716E+03  0.00000000000E+00 0. -1.
</event>
<event>
 7    1  0.4274778E-006  0.1098262E+03  0.7561462E-02  0.1260892E+00
          1   -1    0    0  501    0  0.00000000000E+00  0.00000000000E+00  0.72405915542E+03  0.72405915542E+03  0.00000000000E+00 0. -1.
         -1   -1    0    0    0  501 -0.00000000000E+00 -0.00000000000E+00 -0.25675841934E+02  0.25675841934E+02  0.00000000000E+00 0.  1.
         23    2    1    2    0    0 -0.56393092156E+02 -0.57066459581E+02  0.26295814972E+03  0.28964735795E+03  0.91169303023E+02 0.  0.
          5    1    1    2  502    0  0.62565144242E+02 -0.11571327942E+02  0.31398091828E+03  0.32039004720E+03  0.41800000000E+01 0.  1.
         -5    1    1    2    0  502 -0.61720520859E+01  0.68637787523E+02  0.12144424549E+03  0.13969759220E+03  0.41800000000E+01 0.  1.
        -11    1    3    3    0    0 -0.52426897003E+02 -0.31897202615E+02  0.25597426873E+03  0.26322772900E+03  0.00000000000E+00 0. -1.
         11    1    3    3    0    0 -0.39661951528E+01 -0.25169256966E+02  0.69838809881E+01  0.26419628950E+02  0.00000000000E+00 0.  1.
</event>
<event>
 7    1  0.4274778E-006  0.1114537E+03  0.7561462E-02  0.1257901E+00
          1   -1    0    0  501    0  0.00000000000E+00  0.00000000000E+00  0.24824014911E+03  0.24824014911E+03  0.00000000000E+00 0. -1.
         -1   -1    0    0    0  501 -0.00000000000E+00 -0.00000000000E+00 -0.12754319138E+03  0.12754319138E+03  0.00000000000E+00 0.  1.
         23    2    1    2    0    0  0.59667684110E+02 -0.27720081676E+02  0.18847868209E+03  0.21904450367E+03  0.90153455470E+02 0.  0.
          5    1    1    2  502    0 -0.97673252603E+02  0.31000119724E+02 -0.54421794880E+02  0.11610459015E+03  0.41800000000E+01 0.  1.
         -5    1    1    2    0  502  0.38005568494E+02 -0.32800380483E+01 -0.13359929474E+02  0.40634246661E+02  0.41800000000E+01 0.  1.
        -11    1    3    3    0    0  0.23177451500E+02  0.13578692758E+02  0.48143047299E+01  0.27290157293E+02  0.00000000000E+00 0.  1.
         11    1    3    3    0    0  0.36490232610E+02 -0.41298774434E+02  0.18366437736E+03  0.19175434638E+03  0.00000000000E+00 0. -1.
</event>
<event>
 7    1  0.4274778E-006  0.1692166E+03  0.7561462E-02  0.1178667E+00
          3   -1    0    0  501    0  0.00000000000E+00  0.00000000000E+00  0.96605598267E+03  0.96605598267E+03  0.00000000000E+00 0. -1.
         -3   -1    0    0    0  501 -0.00000000000E+00 -0.00000000000E+00 -0.39046099832E+02  0.39046099832E+02  0.00000000000E+00 0.  1.
         23    2    1    2    0    0  0.14093167490E+03 -0.32359994308E+02  0.62164504138E+03  0.64481819084E+03  0.91864223361E+02 0.  0.
          5    1    1    2  502    0 -0.49640162521E+02 -0.31553155186E+02  0.19366812944E+03  0.20244644749E+03  0.41800000000E+01 0.  1.
         -5    1    1    2    0  502 -0.91291512383E+02  0.63913149494E+02  0.11169671201E+03  0.15783744418E+03  0.41800000000E+01 0.  1.
        -11    1    3    3    0    0  0.14283615796E+02 -0.38586302445E+02  0.21354478943E+03  0.21747253047E+03  0.00000000000E+00 0.  1.
         11    1    3    3    0    0  0.12664805911E+03  0.62263081370E+01  0.40810025196E+03  0.42734566037E+03  0.00000000000E+00 0. -1.
</event>
<event>
 7    1  0.4274778E-006  0.4561724E+03  0.7561462E-02  0.1025897E+00
          1   -1    0    0  501    0  0.00000000000E+00  0.00000000000E+00  0.54705676314E+03  0.54705676314E+03  0.00000000000E+00 0. -1.
         -1   -1    0    0    0  501 -0.00000000000E+00 -0.00000000000E+00 -0.44311042935E+03  0.44311042935E+03  0.00000000000E+00 0.  1.
         23    2    1    2    0    0  0.47189723194E+02 -0.45057211430E+03  0.21083221275E+03  0.50817838245E+03  0.92482140435E+02 0.  0.
          5    1    1    2  502    0 -0.33287689674E+02  0.12200946150E+03  0.22587195995E+02  0.12853805975E+03  0.41800000000E+01 0. -1.
         -5    1    1    2    0  502 -0.13902033520E+02  0.32856265279E+03 -0.12947307495E+03  0.35345075029E+03  0.41800000000E+01 0. -1.
        -11    1    3    3    0    0  0.30806749450E+01 -0.30019976823E+03  0.10075125046E+03  0.31667050048E+03  0.00000000000E+00 0.  1.
         11    1    3    3    0    0  0.44109048249E+02 -0.15037234606E+03  0.11008096229E+03  0.19150788197E+03  0.00000000000E+00 0. -1.
</event>
<event>
 7    1  0.4274778E-006  0.1468137E+03  0.7561462E-02  0.1204444E+00
         -2   -1    0    0    0  501 -0.00000000000E+00  0.00000000000E+00  0.22141737571E+03  0.22141737571E+03  0.00000000000E+00 0.  1.
          2   -1    0    0  501    0  0.00000000000E+00 -0.00000000000E+00 -0.10846093134E+03  0.10846093134E+03  0.00000000000E+00 0. -1.
         23    2    1    2    0    0  0.70748302211E+02  0.83623695740E+02  0.42810694631E+02  0.14941817286E+03  0.92167185320E+02 0.  0.
          5    1    1    2  502    0 -0.84596604148E+02 -0.10047955320E+03  0.82379707991E+02  0.15510194948E+03  0.41800000000E+01 0.  1.
         -5    1    1    2    0  502  0.13848301938E+02  0.16855857456E+02 -0.12233958256E+02  0.25358184709E+02  0.41800000000E+01 0.  1.
        -11    1    3    3    0    0  0.51613571779E+01 -0.18179505602E+02  0.17381269403E+02  0.25675719229E+02  0.00000000000E+00 0.  1.
         11    1    3    3    0    0  0.65586945033E+02  0.10180320134E+03  0.25429425228E+02  0.12374245363E+03  0.00000000000E+00 0. -1.
</event>
<event>
 7    1  0.4274778E-006  0.9477144E+02  0.7561462E-02  0.1291692E+00
          1   -1    0    0  501    0  0.00000000000E+00  0.00000000000E+00  0.11799579001E+03  0.11799579001E+03  0.00000000000E+00 0. -1.
         -1   -1    0    0    0  501 -0.00000000000E+00 -0.00000000000E+00 -0.12364869586E+03  0.12364869586E+03  0.00000000000E+00 0.  1.
         23    2    1    2    0    0 -0.53462878325E+01  0.52746938698E+02  0.92452310115E+01  0.10496551329E+03  0.90119156385E+02 0.  0.
          5    1    1    2  502    0 -0.27157166841E+02 -0.43258380098E+02  0.44702475084E+02  0.68004285439E+02  0.41800000000E+01 0.  1.
         -5    1    1    2    0  502  0.32503454673E+02 -0.94885586002E+01 -0.59600611943E+02  0.68674687142E+02  0.41800000000E+01 0.  1.
        -11    1    3    3    0    0 -0.23079554970E+02  0.73408132254E+02  0.10740343725E+02  0.77696684112E+02  0.00000000000E+00 0. -1.
         11    1    3    3    0    0  0.17733267137E+02 -0.20661193556E+02 -0.14951127135E+01  0.27268829175E+02  0.00000000000E+00 0.  1.
</event>
<event>
 7    1  0.4274778E-006  0.4503307E+03  0.7561462E-02  0.1027623E+00
         -2   -1    0    0    0  501 -0.00000000000E+00  0.00000000000E+00  0.16996628143E+03  0.16996628143E+03  0.00000000000E+00 0.  1.
          2   -1    0    0  501    0  0.00000000000E+00 -0.00000000000E+00 -0.12234875007E+04  0.12234875007E+04  0.00000000000E+00 0. -1.
         23    2    1    2    0    0  0.43795076646E+03 -0.75233681674E+02 -0.54003942841E+03  0.70535834268E+03  0.91797748631E+02 0.  0.
          5    1    1    2  502    0 -0.39707253764E+03  0.81490491496E+02 -0.40993018712E+03  0.57651325316E+03  0.41800000000E+01 0. -1.
         -5    1    1    2    0  502 -0.40878228811E+02 -0.62568098223E+01 -0.10355160378E+03  0.11158218632E+03  0.41800000000E+01 0.  1.
        -11    1    3    3    0    0  0.21380356047E+03  0.97093232221E+01 -0.25125502760E+03  0.33005351433E+03  0.00000000000E+00 0. -1.
         11    1    3    3    0    0  0.22414720599E+03 -0.84943004896E+02 -0.28878440082E+03  0.37530482836E+03  0.00000000000E+00 0.  1.
</event>
<event>
 7    1  0.4274778E-006  0.1222684E+03  0.7561462E-02  0.1239401E+00
          1   -1    0    0  501    0  0.00000000000E+00  0.00000000000E+00  0.19740507614E+03  0.19740507614E+03  0.00000000000E+00 0. -1.
         -1   -1    0    0    0  501 -0.00000000000E+00 -0.00000000000E+00 -0.13767714494E+03  0.13767714494E+03  0.00000000000E+00 0.  1.
         23    2    1    2    0    0  0.56387467486E+02 -0.47297866817E+02  0.12889194252E+03  0.17430830659E+03  0.91398130211E+02 0.  0.
          5    1    1    2  502    0 -0.87084854140E+02  0.25835928752E+02 -0.80470707877E+02  0.12142600323E+03  0.41800000000E+01 0.  1.
         -5    1    1    2    0  502  0.30697386654E+02  0.21461938065E+02  0.11306696559E+02  0.39347911253E+02  0.41800000000E+01 0.  1.
        -11    1    3    3    0    0  0.79791346013E+02 -0.25066367318E+02  0.10450730709E+03  0.13385349791E+03  0.00000000000E+00 0.  1.
         11    1    3    3    0    0 -0.23403878528E+02 -0.22231499500E+02  0.24384635434E+02  0.40454808681E+02  0.00000000000E+00 0. -1.
</event>
<event>
 7    1  0.4274778E-006  0.1126450E+03  0.7561462E-02  0.1255749E+00
         -1   -1    0    0    0  501 -0.00000000000E+00  0.00000000000E+00  0.62233015022E+02  0.62233015022E+02  0.00000000000E+00 0.  1.
          1   -1    0    0  501    0  0.00000000000E+00 -0.00000000000E+00 -0.22623444828E+03  0.22623444828E+03  0.00000000000E+00 0. -1.
         23    2    1    2    0    0 -0.33091174683E+02 -0.43160295993E+02 -0.79954294417E+02  0.12825476543E+03  0.84254131451E+02 0.  0.
          5    1    1    2  502    0  0.55982433026E+02 -0.18500851656E+02 -0.72101343263E+02  0.93232989976E+02  0.41800000000E+01 0. -1.
         -5    1    1    2    0  502 -0.22891258343E+02  0.61661147649E+02 -0.11945795573E+02  0.66979707896E+02  0.41800000000E+01 0. -1.
        -11    1    3    3    0    0 -0.54839165079E+02 -0.53126667640E+02 -0.60243208829E+02  0.97257498688E+02  0.00000000000E+00 0.  1.
         11    1    3    3    0    0  0.21747990397E+02  0.99663716469E+01 -0.19711085589E+02  0.30997266737E+02  0.00000000000E+00 0. -1.
</event>
<event>
 7    1  0.4274778E-006  0.9230482E+02  0.7561462E-02  0.1297364E+00
          1   -1    0    0  501    0  0.00000000000E+00  0.00000000000E+00  0.57613008268E+03  0.57613008268E+03  0.00000000000E+00 0. -1.
         -1   -1    0    0    0  501 -0.00000000000E+00 -0.00000000000E+00 -0.21531581061E+02  0.21531581061E+02  0.00000000000E+00 0.  1.
         23    2    1    2    0    0 -0.25863954754E+02  0.70326295215E+01  0.28670323846E+03  0.30078838492E+03  0.86928151504E+02 0.  0.
          5    1    1    2  502    0 -0.11727184323E+02 -0.46406935093E+02  0.39968849938E+02  0.62498894727E+02  0.41800000000E+01 0.  1.
         -5    1    1    2    0  502  0.37591139077E+02  0.39374305571E+02  0.22792641322E+03  0.23437438410E+03  0.41800000000E+01 0.  1.
        -11    1    3    3    0    0 -0.28448841591E+02 -0.32016315241E+02  0.83419754362E+02  0.93772258409E+02  0.00000000000E+00 0.  1.
         11    1    3    3    0    0  0.25848868366E+01  0.39048944762E+02  0.20328348410E+03  0.20701612651E+03  0.00000000000E+00 0. -1.
</event>
<event>
 7    1  0.4274778E-006  0.1507164E+03  0.7561462E-02  0.1199596E+00
          1   -1    0    0  501    0  0.00000000000E+00  0.00000000000E+00  0.60467651303E+02  0.60467651303E+02  0.00000000000E+00 0. -1.
         -1   -1    0    0    0  501 -0.00000000000E+00 -0.00000000000E+00 -0.73700072418E+03  0.73700072418E+03  0.00000000000E+00 0.  1.
         23    2    1    2    0    0 -0.76209336356E+02  0.11764126327E+03 -0.11049310724E+03  0.20106533835E+03  0.92580849892E+02 0.  0.
          5    1    1    2  502    0  0.30711508079E+02 -0.92446000728E+02 -0.16252786607E+03  0.18953163173E+03  0.41800000000E+01 0.  1.
         -5    1    1    2    0  502  0.45497828277E+02 -0.25195262542E+02 -0.40351209957E+03  0.40687140540E+03  0.41800000000E+01 0.  1.
        -11    1    3    3    0    0 -0.63951168067E+02  0.12279965033E+03 -0.12118731454E+03  0.18399965006E+03  0.00000000000E+00 0.  1.
         11    1    3    3    0    0 -0.12258168289E+02 -0.51583870555E+01  0.10694207304E+02  0.17065688286E+02  0.00000000000E+00 0. -1.
</event>
<event>
 7    1  0.4274778E-006  0.8924441E+02  0.7561462E-02  0.1304692E+00
         -2   -1    0    0    0  501 -0.00000000000E+00  0.00000000000E+00  0.12177254718E+03  0.12177254718E+03  0.00000000000E+00 0.  1.
          2   -1    0    0  501    0  0.00000000000E+00 -0.00000000000E+00 -0.13090556116E+03  0.13090556116E+03  0.00000000000E+00 0. -1.
         23    2    1    2    0    0  0.28247223457E+02 -0.79508809855E+01 -0.62079372951E+02  0.11371068270E+03  0.90637457342E+02 0.  0.
          5    1    1    2  502    0  0.32531730860E+02  0.19158127084E+02 -0.20276302041E+02  0.43057498424E+02  0.41800000000E+01 0.  1.
         -5    1    1    2    0  502 -0.60778954316E+02 -0.11207246099E+02  0.73222661011E+02  0.95909927215E+02  0.41800000000E+01 0.  1.
        -11    1    3    3    0    0 -0.16693734431E+02  0.19677902483E+02  0.70506449171E+01  0.26750929126E+02  0.00000000000E+00 0.  1.
         11    1    3    3    0    0  0.44940957888E+02 -0.27628783468E+02 -0.69130017868E+02  0.86959753578E+02  0.00000000000E+00 0. -1.
</event>
<event>
 7    1  0.4274778E-006  0.1172740E+03  0.7561462E-02  0.1247663E+00
          2   -1    0    0  501    0  0.00000000000E+00  0.00000000000E+00  0.42807123079E+02  0.42807123079E+02  0.00000000000E+00 0. -1.
         -2   -1    0    0    0  501 -0.00000000000E+00 -0.00000000000E+00 -0.59537201683E+03  0.59537201683E+03  0.00000000000E+00 0.  1.
         23    2    1    2    0    0 -0.10732009079E+02 -0.11278266062E+03 -0.19640816661E+03  0.24405886982E+03  0.90296508628E+02 0.  0.
          5    1    1    2  502    0  0.25291553866E+02  0.86229403176E+02 -0.35194657398E+03  0.36326166327E+03  0.41800000000E+01 0.  1.
         -5    1    1    2    0  502 -0.14559544787E+02  0.26553257440E+02 -0.42101531603E+01  0.30858606817E+02  0.41800000000E+01 0.  1.
        -11    1    3    3    0    0 -0.13462105161E+02 -0.80194191617E+02 -0.53220381733E+02  0.97184081394E+02  0.00000000000E+00 0. -1.
         11    1    3    3    0    0  0.27300960826E+01 -0.32588468999E+02 -0.14318778488E+03  0.14687478842E+03  0.00000000000E+00 0.  1.
</event>
<event>
 7    1  0.4274778E-006  0.1792525E+03  0.7561462E-02  0.1168528E+00
         -4   -1    0    0    0  501 -0.00000000000E+00  0.00000000000E+00  0.59234360323E+03  0.59234360323E+03  0.00000000000E+00 0.  1.
          4   -1    0    0  501    0  0.00000000000E+00 -0.00000000000E+00 -0.70782247411E+02  0.70782247411E+02  0.00000000000E+00 0. -1.
         23    2    1    2    0    0 -0.11726938053E+03  0.11557061270E+03  0.16143100949E+03  0.24785451269E+03  0.90902224980E+02 0.  0.
          5    1    1    2  502    0  0.53551084886E+02 -0.83018843523E+02  0.83232545184E+02  0.12924773132E+03  0.41800000000E+01 0.  1.
         -5    1    1    2    0  502  0.63718295643E+02 -0.32551769173E+02  0.27689780115E+03  0.28602360664E+03  0.41800000000E+01 0.  1.
        -11    1    3    3    0    0 -0.63915084102E+02  0.11836977784E+03  0.11954126168E+03  0.17996292820E+03  0.00000000000E+00 0. -1.
         11    1    3    3    0    0 -0.53354296427E+02 -0.27991651470E+01  0.41889747817E+02  0.67891584493E+02  0.00000000000E+00 0.  1.
</event>
<event>
 7    1  0.4274778E-006  0.1445557E+03  0.7561462E-02  0.1207327E+00
          2   -1    0    0  501    0  0.00000000000E+00  0.00000000000E+00  0.25875720265E+03  0.25875720265E+03  0.00000000000E+00 0. -1.
         -2   -1    0    0    0  501 -0.00000000000E+00 -0.00000000000E+00 -0.15198745139E+03  0.15198745139E+03  0.00000000000E+00 0.  1.
         23    2    1    2    0    0 -0.91695713424E+02 -0.54868718433E+02  0.18273179057E+03  0.22952666854E+03  0.88729387256E+02 0.  0.
          5    1    1    2  502    0  0.72148077579E+02  0.87730524764E+02 -0.84727105757E+02  0.14176792629E+03  0.41800000000E+01 0. -1.
         -5    1    1    2    0  502  0.19547635845E+02 -0.32861806331E+02  0.87650664425E+01  0.39450059217E+02  0.41800000000E+01 0. -1.
        -11    1    3    3    0    0 -0.22893836369E+02 -0.63632693582E+02  0.10921029161E+03  0.12845285217E+03  0.00000000000E+00 0. -1.
         11    1    3    3    0    0 -0.68801877055E+02  0.87639751488E+01  0.73521498957E+02  0.10107381637E+03  0.00000000000E+00 0.  1.
</event>
<event>
 7    1  0.4274778E-006  0.2408707E+03  0.7561462E-02  0.1119214E+00
         -2   -1    0    0    0  501 -0.00000000000E+00  0.00000000000E+00  0.42403869697E+02  0.42403869697E+02  0.00000000000E+00 0.  1.
          2   -1    0    0  501    0  0.00000000000E+00 -0.00000000000E+00 -0.14828540135E+04  0.14828540135E+04  0.00000000000E+00 0. -1.
         23    2    1    2    0    0  0.42912591074E+02 -0.22161856170E+03 -0.69721776828E+03  0.73849364374E+03  0.91126110810E+02 0.  0.
          5    1    1    2  502    0 -0.40558446751E+02  0.28540960936E+02 -0.66818454458E+02  0.83317178962E+02  0.41800000000E+01 0.  1.
         -5    1    1    2    0  502 -0.23541443227E+01  0.19307760076E+03 -0.67641392102E+03  0.70344706046E+03  0.41800000000E+01 0.  1.
        -11    1    3    3    0    0  0.56185625906E+02 -0.87016414915E+02 -0.37494002841E+03  0.38898419753E+03  0.00000000000E+00 0.  1.
         11    1    3    3    0    0 -0.13273034831E+02 -0.13460214678E+03 -0.32227773987E+03  0.34950944621E+03  0.00000000000E+00 0. -1.
</event>
<event>
 7    1  0.4274778E-006  0.1171319E+03  0.7561462E-02  0.1247905E+00
          1   -1    0    0  501    0  0.00000000000E+00  0.00000000000E+00  0.66284524443E+02  0.66284524443E+02  0.00000000000E+00 0. -1.
         -1   -1    0    0    0  501 -0.00000000000E+00 -0.00000000000E+00 -0.21574493126E+03  0.21574493126E+03  0.00000000000E+00 0.  1.
         23    2    1    2    0    0  0.32507845662E+02 -0.34473490650E+02 -0.42521761566E+02  0.11077470201E+03  0.90651821883E+02 0.  0.
          5    1    1    2  502    0 -0.77861289768E+02  0.40036790805E+02 -0.65405858540E+02  0.10936509404E+03  0.41800000000E+01 0. -1.
         -5    1    1    2    0  502  0.45353444106E+02 -0.55633001553E+01 -0.41532786709E+02  0.61889659659E+02  0.41800000000E+01 0. -1.
        -11    1    3    3    0    0  0.59600774919E+02 -0.36825269811E+01 -0.15613115877E+02  0.61721817564E+02  0.00000000000E+00 0.  1.
         11    1    3    3    0    0 -0.27092929257E+02 -0.30790963669E+02 -0.26908645688E+02  0.49052884443E+02  0.00000000000E+00 0. -1.
</event>
<event>
 7    1  0.4274778E-006  0.1060249E+03  0.7561462E-02  0.1268113E+00
          2   -1    0    0  501    0  0.00000000000E+00  0.00000000000E+00  0.28364960613E+03  0.28364960613E+03  0.00000000000E+00 0. -1.
         -2   -1    0    0    0  501 -0.00000000000E+00 -0.00000000000E+00 -0.45445247937E+02  0.45445247937E+02  0.00000000000E+00 0.  1.
         23    2    1    2    0    0  0.27651597758E+02  0.28692949632E+02  0.11459382929E+03  0.15103041930E+03  0.89947460370E+02 0.  0.
          5    1    1    2  502    0 -0.69321575642E+02 -0.99958925320E+01  0.10955309636E+03  0.13009516532E+03  0.41800000000E+01 0. -1.
         -5    1    1    2    0  502  0.41669977884E+02 -0.18697057100E+02  0.14057432540E+02  0.47969269441E+02  0.41800000000E+01 0.  1.
        -11    1    3    3    0    0  0.40017090444E+02  0.54378714315E+02  0.94552168343E+02  0.11618315126E+03  0.00000000000E+00 0.  1.
         11    1    3    3    0    0 -0.12365492686E+02 -0.25685764683E+02  0.20041660943E+02  0.34847268043E+02  0.00000000000E+00 0. -1.
</event>
<event>
 7    1  0.4274778E-006  0.1006791E+03  0.7561462E-02  0.1278874E+00
         -1   -1    0    0    0  501 -0.00000000000E+00  0.00000000000E+00  0.10022944308E+03  0.10022944308E+03  0.00000000000E+00 0.  1.
          1   -1    0    0  501    0  0.00000000000E+00 -0.00000000000E+00 -0.14974408087E+03  0.14974408087E+03  0.00000000000E+00 0. -1.
         23    2    1    2    0    0 -0.81539409691E+01  0.50569261658E+02 -0.47153707158E+02  0.11477920322E+03  0.91252706338E+02 0.  0.
          5    1    1    2  502    0  0.43836951707E+02 -0.15925910261E+02  0.46040804957E+02  0.65669940412E+02  0.41800000000E+01 0. -1.
         -5    1    1    2    0  502 -0.35683010738E+02 -0.34643351397E+02 -0.48401735585E+02  0.69524380321E+02  0.41800000000E+01 0. -1.
        -11    1    3    3    0    0 -0.49086727482E+02  0.17893071156E+02 -0.22318956779E+02  0.56813771587E+02  0.00000000000E+00 0. -1.
         11    1    3    3    0    0  0.40932786513E+02  0.32676190502E+02 -0.24834750378E+02  0.57965431628E+02  0.00000000000E+00 0.  1.
</event>
<event>
 7    1  0.4274778E-006  0.8919826E+02  0.7561462E-02  0.1304805E+00
         -1   -1    0    0    0  501 -0.00000000000E+00  0.00000000000E+00  0.79508805045E+02  0.79508805045E+02  0.00000000000E+00 0.  1.
          1   -1    0    0  501    0  0.00000000000E+00 -0.00000000000E+00 -0.24565132314E+03  0.24565132314E+03  0.00000000000E+00 0. -1.
         23    2    1    2    0    0  0.51556118357E+02 -0.33335475115E+02 -0.14766101054E+03  0.18459627928E+03  0.92210222059E+02 0.  0.
          5    1    1    2  502    0 -0.78575730077E+02  0.18096266473E+02  0.27189424541E+02  0.85195994179E+02  0.41800000000E+01 0.  1.
         -5    1    1    2    0  502  0.27019611719E+02  0.15239208642E+02 -0.45670932101E+02  0.55367854722E+02  0.41800000000E+01 0.  1.
        -11    1    3    3    0    0  0.49557750448E+01 -0.15808370316E+02  0.99386228100E+01  0.19319433265E+02  0.00000000000E+00 0.  1.
         11    1    3    3    0    0  0.46600343312E+02 -0.17527104799E+02 -0.15759963335E+03  0.16527684602E+03  0.00000000000E+00 0. -1.
</event>
<event>
 7    1  0.4274778E-006  0.1059971E+03  0.7561462E-02  0.1268167E+00
          1   -1    0    0  501    0  0.00000000000E+00  0.00000000000E+00  0.50324777108E+02  0.50324777108E+02  0.00000000000E+00 0.  1.
         -1   -1    0    0    0  501 -0.00000000000E+00 -0.00000000000E+00 -0.32595461868E+03  0.32595461868E+03  0.00000000000E+00 0. -1.
         23    2    1    2    0    0  0.60145139304E+02 -0.27034924837E+02 -0.96147614264E+02  0.14778495631E+03  0.90816874203E+02 0.  0.
          5    1    1    2  502    0  0.21118819687E+02  0.98548041672E+01  0.66792531358E+01  0.24600945767E+02  0.41800000000E+01 0.  1.
         -5    1    1    2    0  502 -0.81263958991E+02  0.17180120670E+02 -0.18616148045E+03  0.20389349371E+03  0.41800000000E+01 0.  1.
        -11    1    3    3    0    0  0.63676716228E+02 -0.50594216140E+02 -0.48971734376E+02  0.94935397320E+02  0.00000000000E+00 0.  1.
         11    1    3    3    0    0 -0.35315769249E+01  0.23559291303E+02 -0.47175879888E+02  0.52849558990E+02  0.00000000000E+00 0. -1.
</event>
<event>
 7    1  0.4274778E-006  0.2751305E+03  0.7561462E-02  0.1098379E+00
          2   -1    0    0  501    0  0.00000000000E+00  0.00000000000E+00  0.34062827889E+03  0.34062827889E+03  0.00000000000E+00 0. -1.
         -2   -1    0    0    0  501 -0.00000000000E+00 -0.00000000000E+00 -0.25490817197E+03  0.25490817197E+03  0.00000000000E+00 0.  1.
         23    2    1    2    0    0 -0.23067120699E+03  0.12556072345E+03  0.12104883465E+03  0.30250479975E+03  0.88778558748E+02 0.  0.
          5    1    1    2  502    0  0.23335149198E+03 -0.13995180843E+03 -0.22391932435E+02  0.27305365504E+03  0.41800000000E+01 0. -1.
         -5    1    1    2    0  502 -0.26802849924E+01  0.14391084980E+02 -0.12936795287E+02  0.19977996067E+02  0.41800000000E+01 0. -1.
        -11    1    3    3    0    0 -0.76796354549E+02  0.48284703117E+02 -0.22177935504E+01  0.90741452684E+02  0.00000000000E+00 0.  1.
         11    1    3    3    0    0 -0.15387485244E+03  0.77276020337E+02  0.12326662820E+03  0.21176334707E+03  0.00000000000E+00 0. -1.
</event>
<event>
 7    1  0.4274778E-006  0.1348390E+03  0.7561462E-02  0.1220447E+00
          1   -1    0    0  501    0  0.00000000000E+00  0.00000000000E+00  0.70831804063E+02  0.70831804063E+02  0.00000000000E+00 0. -1.
         -1   -1    0    0    0  501 -0.00000000000E+00 -0.00000000000E+00 -0.28777033265E+03  0.28777033265E+03  0.00000000000E+00 0.  1.
         23    2    1    2    0    0  0.77084328387E+02 -0.38358244541E+00 -0.43137275591E+02  0.13101360443E+03  0.96755357386E+02 0.  0.
          5    1    1    2  502    0  0.34597010125E+02  0.25724237346E+01 -0.46703606556E+02  0.58328978551E+02  0.41800000000E+01 0.  1.
         -5    1    1    2    0  502 -0.11168133851E+03 -0.21888412892E+01 -0.12709764644E+03  0.16925955373E+03  0.41800000000E+01 0.  1.
        -11    1    3    3    0    0  0.31954406527E+02 -0.47797617445E+02 -0.27398592912E+02  0.63689710499E+02  0.00000000000E+00 0.  1.
         11    1    3    3    0    0  0.45129921860E+02  0.47414034999E+02 -0.15738682678E+02  0.67323893934E+02  0.00000000000E+00 0. -1.
</event>
<event>
 7    1  0.4274778E-006  0.1134175E+03  0.7561462E-02  0.1254369E+00
         -1   -1    0    0    0  501 -0.00000000000E+00  0.00000000000E+00  0.28876512379E+02  0.28876512379E+02  0.00000000000E+00 0.  1.
          1   -1    0    0  501    0  0.00000000000E+00 -0.00000000000E+00 -0.90222169208E+03  0.90222169208E+03  0.00000000000E+00 0. -1.
         23    2    1    2    0    0  0.54194342369E+02  0.58322017546E+02 -0.66203537821E+03  0.67295515214E+03  0.90770646791E+02 0.  0.
          5    1    1    2  502    0  0.15588307708E+02 -0.22496081433E+02 -0.16426085697E+03  0.16657782130E+03  0.41800000000E+01 0.  1.
         -5    1    1    2    0  502 -0.69782650077E+02 -0.35825936113E+02 -0.47048944520E+02  0.91565231014E+02  0.41800000000E+01 0.  1.
        -11    1    3    3    0    0  0.64810952036E+02  0.36623944027E+01 -0.33997387879E+03  0.34611574783E+03  0.00000000000E+00 0.  1.
         11    1    3    3    0    0 -0.10616609667E+02  0.54659623143E+02 -0.32206149942E+03  0.32683940431E+03  0.00000000000E+00 0. -1.
</event>
<event>
 7    1  0.4274778E-006  0.8055731E+02  0.7561462E-02  0.1327477E+00
          2   -1    0    0  501    0  0.00000000000E+00  0.00000000000E+00  0.20250792099E+03  0.20250792099E+03  0.00000000000E+00 0. -1.
         -2   -1    0    0    0  501 -0.00000000000E+00 -0.00000000000E+00 -0.74468192284E+02  0.74468192284E+02  0.00000000000E+00 0.  1.
         23    2    1    2    0    0  0.11738830308E+02  0.10377418658E+01  0.12070430981E+03  0.15111835240E+03  0.90157356773E+02 0.  0.
          5    1    1    2  502    0 -0.27098158899E+02  0.50428626043E+02 -0.25454655024E+02  0.62791467594E+02  0.41800000000E+01 0. -1.
         -5    1    1    2    0  502  0.15359328591E+02 -0.51466367908E+02  0.32790073923E+02  0.63066293282E+02  0.41800000000E+01 0. -1.
        -11    1    3    3    0    0  0.23180929076E+02  0.18022658517E+02  0.69167831472E+00  0.29370905872E+02  0.00000000000E+00 0.  1.
         11    1    3    3    0    0 -0.11442098768E+02 -0.16984916651E+02  0.12001263150E+03  0.12174744653E+03  0.00000000000E+00 0. -1.
</event>
<event>
 7    1  0.4274778E-006  0.1161457E+03  0.7561462E-02  0.1249594E+00
          2   -1    0    0  501    0  0.00000000000E+00  0.00000000000E+00  0.14271575399E+03  0.14271575399E+03  0.00000000000E+00 0. -1.
         -2   -1    0    0    0  501 -0.00000000000E+00 -0.00000000000E+00 -0.10765196500E+03  0.10765196500E+03  0.00000000000E+00 0.  1.
         23    2    1    2    0    0 -0.55861641477E+02  0.31810922518E+01  0.28772846831E+02  0.11318908161E+03  0.94091706035E+02 0.  0.
          5    1    1    2  502    0  0.66231407871E+02  0.40494018301E+02  0.33355069672E+02  0.84595496213E+02  0.41800000000E+01 0.  1.
         -5    1    1    2    0  502 -0.10369766394E+02 -0.43675110553E+02 -0.27064127517E+02  0.52583141168E+02  0.41800000000E+01 0.  1.
        -11    1    3    3    0    0 -0.65274598198E+02  0.36538811498E+02  0.20171451789E+02  0.77477386267E+02  0.00000000000E+00 0.  1.
         11    1    3    3    0    0  0.94129567204E+01 -0.33357719247E+02  0.86013950418E+01  0.35711695342E+02  0.00000000000E+00 0. -1.
</event>
<event>
 7    1  0.4274778E-006  0.1694691E+03  0.7561462E-02  0.1178403E+00
         -2   -1    0    0    0  501 -0.00000000000E+00  0.00000000000E+00  0.18441661362E+03  0.18441661362E+03  0.00000000000E+00 0.  1.
          2   -1    0    0  501    0  0.00000000000E+00 -0.00000000000E+00 -0.26546329194E+03  0.26546329194E+03  0.00000000000E+00 0. -1.
         23    2    1    2    0    0 -0.75796212633E+02 -0.12705726410E+03 -0.16465018269E+03  0.23886987868E+03  0.89780410294E+02 0.  0.
          5    1    1    2  502    0  0.85172105064E+02  0.29610537765E+02  0.65093513932E+02  0.11129110200E+03  0.41800000000E+01 0.  1.
         -5    1    1    2    0  502 -0.93758924308E+01  0.97446726339E+02  0.18509990441E+02  0.99718924880E+02  0.41800000000E+01 0.  1.
        -11    1    3    3    0    0 -0.72009368118E+02 -0.99260857855E+02 -0.72308002435E+02  0.14236050792E+03  0.00000000000E+00 0.  1.
         11    1    3    3    0    0 -0.37868445154E+01 -0.27796406249E+02 -0.92342180252E+02  0.96509370765E+02  0.00000000000E+00 0. -1.
</event>
<event>
 7    1  0.4274778E-006  0.1290168E+03  0.7561462E-02  0.1228922E+00
         -1   -1    0    0    0  501 -0.00000000000E+00  0.00000000000E+00  0.50916526539E+03  0.50916526539E+03  0.00000000000E+00 0.  1.
          1   -1    0    0  501    0  0.00000000000E+00 -0.00000000000E+00 -0.57412924046E+02  0.57412924046E+02  0.00000000000E+00 0. -1.
         23    2    1    2    0    0 -0.10685880746E+03  0.25806681933E+02  0.23827520387E+03  0.27758057794E+03  0.90504778357E+02 0.  0.
          5    1    1    2  502    0  0.95426775041E+02 -0.54701385285E+02  0.22894856495E+03  0.25403430623E+03  0.41800000000E+01 0. -1.
         -5    1    1    2    0  502  0.11432032423E+02  0.28894703352E+02 -0.15471427477E+02  0.34963305268E+02  0.41800000000E+01 0.  1.
        -11    1    3    3    0    0 -0.92458957657E+02  0.67271172075E+01  0.23601711674E+03  0.25357048793E+03  0.00000000000E+00 0.  1.
         11    1    3    3    0    0 -0.14399849807E+02  0.19079564726E+02  0.22580871287E+01  0.24010090005E+02  0.00000000000E+00 0. -1.
</event>
<event>
 7    1  0.4274778E-006  0.9434654E+02  0.7561462E-02  0.1292655E+00
         -4   -1    0    0    0  501 -0.00000000000E+00  0.00000000000E+00  0.23929134773E+03  0.23929134773E+03  0.00000000000E+00 0. -1.
          4   -1    0    0  501    0  0.00000000000E+00 -0.00000000000E+00 -0.58406298919E+02  0.58406298919E+02  0.00000000000E+00 0.  1.
         23    2    1    2    0    0  0.25691992336E+02 -0.46030124568E+02  0.65758084008E+02  0.11971286492E+03  0.85018783673E+02 0.  0.
          5    1    1    2  502    0 -0.41919550656E+02 -0.15404335649E+02  0.10410743567E+03  0.11335948503E+03  0.41800000000E+01 0. -1.
         -5    1    1    2    0  502  0.16227558320E+02  0.61434460217E+02  0.11019529131E+02  0.64625296699E+02  0.41800000000E+01 0. -1.
        -11    1    3    3    0    0 -0.19947281353E+02 -0.12746904358E+02  0.58064919098E+02  0.62704963391E+02  0.00000000000E+00 0. -1.
         11    1    3    3    0    0  0.45639273690E+02 -0.33283220210E+02  0.76931649100E+01  0.57007901530E+02  0.00000000000E+00 0.  1.
</event>
<event>
 7    1  0.4274778E-006  0.7345751E+02  0.7561462E-02  0.1348715E+00
         -2   -1    0    0    0  501 -0.00000000000E+00  0.00000000000E+00  0.33706686024E+02  0.33706686024E+02  0.00000000000E+00 0.  1.
          2   -1    0    0  501    0  0.00000000000E+00 -0.00000000000E+00 -0.39672678295E+03  0.39672678295E+03  0.00000000000E+00 0. -1.
         23    2    1    2    0    0 -0.50884520120E+02 -0.11221569508E+02 -0.17809582562E+03  0.20689864384E+03  0.91508293121E+02 0.  0.
          5    1    1    2  502    0  0.39317972232E+02  0.52943444145E+01 -0.19956686520E+03  0.20351496041E+03  0.41800000000E+01 0. -1.
         -5    1    1    2    0  502  0.11566547888E+02  0.59272250939E+01  0.14642593900E+02  0.20019864722E+02  0.41800000000E+01 0.  1.
        -11    1    3    3    0    0 -0.60456503455E+02  0.17627997946E+02 -0.15896276782E+03  0.17098215309E+03  0.00000000000E+00 0.  1.
         11    1    3    3    0    0  0.95719833343E+01 -0.28849567454E+02 -0.19133057800E+02  0.35916490753E+02  0.00000000000E+00 0. -1.
</event>
<event>
 7    1  0.4274778E-006  0.1115475E+03  0.7561462E-02  0.1257731E+00
          1   -1    0    0  501    0  0.00000000000E+00  0.00000000000E+00  0.96046801937E+02  0.96046801937E+02  0.00000000000E+00 0. -1.
         -1   -1    0    0    0  501 -0.00000000000E+00 -0.00000000000E+00 -0.25916742206E+03  0.25916742206E+03  0.00000000000E+00 0.  1.
         23    2    1    2    0    0  0.92740057446E+02  0.61187749182E+02 -0.40952400607E+02  0.14804864794E+03  0.88863063960E+02 0.  0.
          5    1    1    2  502    0 -0.33364757489E+02 -0.26372010587E+02 -0.13086220332E+03  0.13766291673E+03  0.41800000000E+01 0.  1.
         -5    1    1    2    0  502 -0.59375299957E+02 -0.34815738595E+02  0.86939838061E+01  0.69502659326E+02  0.41800000000E+01 0.  1.
        -11    1    3    3    0    0  0.71262382117E+02  0.42773234707E+02 -0.69140054544E+02  0.10811208931E+03  0.00000000000E+00 0.  1.
         11    1    3    3    0    0  0.21477675329E+02  0.18414514474E+02  0.28187653937E+02  0.39936558632E+02  0.00000000000E+00 0. -1.
</event>
<event>
 7    1  0.4274778E-006  0.1001153E+03  0.7561462E-02  0.1280054E+00
          2   -1    0    0  501    0  0.00000000000E+00  0.00000000000E+00  0.13529137852E+03  0.13529137852E+03  0.00000000000E+00 0. -1.
         -2   -1    0    0    0  501 -0.00000000000E+00 -0.00000000000E+00 -0.11982993076E+03  0.11982993076E+03  0.00000000000E+00 0.  1.
         23    2    1    2    0    0  0.26030671933E+02  0.55088662210E+02  0.36501884433E+02  0.11442715792E+03  0.89715273599E+02 0.  0.
          5    1    1    2  502    0  0.37182187244E+02 -0.64743313557E+02 -0.15547811615E+02  0.76376819419E+02  0.41800000000E+01 0.  1.
         -5    1    1    2    0  502 -0.63212859177E+02  0.96546513468E+01 -0.54926250618E+01  0.64317331941E+02  0.41800000000E+01 0.  1.
        -11    1    3    3    0    0  0.10930312337E+02  0.31695328613E+02 -0.28314278297E+02  0.43883526968E+02  0.00000000000E+00 0.  1.
         11    1    3    3    0    0  0.15100359597E+02  0.23393333597E+02  0.64816162730E+02  0.70543630951E+02  0.00000000000E+00 0. -1.
</event>
<event>
 7    1  0.4274778E-006  0.1149458E+03  0.7561462E-02  0.1251676E+00
          1   -1    0    0  501    0  0.00000000000E+00  0.00000000000E+00  0.31048154491E+03  0.31048154491E+03  0.00000000000E+00 0. -1.
         -1   -1    0    0    0  501 -0.00000000000E+00 -0.00000000000E+00 -0.58483735221E+02  0.58483735221E+02  0.00000000000E+00 0.  1.
         23    2    1    2    0    0 -0.65971047305E+02 -0.17628294959E+02  0.16878754403E+03  0.20393745048E+03  0.91860289683E+02 0.  0.
          5    1    1    2  502    0 -0.33912588582E+02  0.20258896176E+02  0.96418671573E+01  0.40876943879E+02  0.41800000000E+01 0. -1.
         -5    1    1    2    0  502  0.99883635887E+02 -0.26306012173E+01  0.73568398493E+02  0.12415088577E+03  0.41800000000E+01 0. -1.
        -11    1    3    3    0    0 -0.10653527137E+02 -0.31398561329E+02  0.91042781308E+01  0.34383937736E+02  0.00000000000E+00 0.  1.
         11    1    3    3    0    0 -0.55317520167E+02  0.13770266370E+02  0.15968326590E+03  0.16955351274E+03  0.00000000000E+00 0. -1.
</event>
<event>
 7    1  0.4274778E-006  0.9151731E+02  0.7561462E-02  0.1299218E+00
          1   -1    0    0  501    0  0.00000000000E+00  0.00000000000E+00  0.15999673488E+03  0.15999673488E+03  0.00000000000E+00 0. -1.
         -1   -1    0    0    0  501 -0.00000000000E+00 -0.00000000000E+00 -0.92439086896E+02  0.92439086896E+02  0.00000000000E+00 0.  1.
         23    2    1    2    0    0 -0.41281142024E+02 -0.21824981870E+02  0.61372908001E+02  0.11877250080E+03  0.90331669908E+02 0.  0.
          5    1    1    2  502    0 -0.32393825570E+02  0.98150391619E+00 -0.33944314265E+02  0.47117004955E+02  0.41800000000E+01 0.  1.
         -5    1    1    2    0  502  0.73674967594E+02  0.20843477954E+02  0.40129054253E+02  0.86546316030E+02  0.41800000000E+01 0.  1.
        -11    1    3    3    0    0  0.11149701068E+02 -0.17913878342E+02 -0.15116196043E+02  0.25956160232E+02  0.00000000000E+00 0.  1.
         11    1    3    3    0    0 -0.52430843092E+02 -0.39111035279E+01  0.76489104044E+02  0.92816340564E+02  0.00000000000E+00 0. -1.
</event>
<event>
 7    1  0.4274778E-006  0.1556578E+03  0.7561462E-02  0.1193688E+00
         -2   -1    0    0    0  501 -0.00000000000E+00  0.00000000000E+00  0.36524539308E+03  0.36524539308E+03  0.00000000000E+00 0.  1.
          2   -1    0    0  501    0  0.00000000000E+00 -0.00000000000E+00 -0.92871279737E+02  0.92871279737E+02  0.00000000000E+00 0. -1.
         23    2    1    2    0    0 -0.11660610802E+03 -0.14271093659E+02  0.39450643979E+02  0.16880433860E+03  0.11462069132E+03 0.  0.
          5    1    1    2  502    0 -0.21103814723E+02  0.15384494612E+02  0.12222540174E+02  0.29136172684E+02  0.41800000000E+01 0.  1.
         -5    1    1    2    0  502  0.13770992275E+03 -0.11134009531E+01  0.22070092919E+03  0.26017616153E+03  0.41800000000E+01 0.  1.
        -11    1    3    3    0    0 -0.25417394368E+01  0.26000539126E+02 -0.21053336593E+02  0.33551921791E+02  0.00000000000E+00 0. -1.
         11    1    3    3    0    0 -0.11406436859E+03 -0.40271632785E+02  0.60503980572E+02  0.13525241681E+03  0.00000000000E+00 0.  1.
</event>
<event>
 7    1  0.4274778E-006  0.8673105E+02  0.7561462E-02  0.1310967E+00
          1   -1    0    0  501    0  0.00000000000E+00  0.00000000000E+00  0.41002992599E+03  0.41002992599E+03  0.00000000000E+00 0. -1.
         -1   -1    0    0    0  501 -0.00000000000E+00 -0.00000000000E+00 -0.33476461673E+02  0.33476461673E+02  0.00000000000E+00 0.  1.
         23    2    1    2    0    0  0.27162590242E+02  0.14932009099E+02  0.22138876317E+03  0.24180771048E+03  0.92180329716E+02 0.  0.
          5    1    1    2  502    0 -0.39942941363E+02  0.37249254799E+02  0.13224614894E+03  0.14314140512E+03  0.41800000000E+01 0. -1.
         -5    1    1    2    0  502  0.12780351121E+02 -0.52181263898E+02  0.22918552204E+02  0.58557272066E+02  0.41800000000E+01 0. -1.
        -11    1    3    3    0    0  0.21040603111E+02 -0.20182775483E+02  0.15819152059E+02  0.33170724703E+02  0.00000000000E+00 0.  1.
         11    1    3    3    0    0  0.61219871311E+01  0.35114784582E+02  0.20556961111E+03  0.20863698578E+03  0.00000000000E+00 0. -1.
</event>
<event>
 7    1  0.4274778E-006  0.1479642E+03  0.7561462E-02  0.1202997E+00
          1   -1    0    0  501    0  0.00000000000E+00  0.00000000000E+00  0.20147544120E+03  0.20147544120E+03  0.00000000000E+00 0. -1.
         -1   -1    0    0    0  501 -0.00000000000E+00 -0.00000000000E+00 -0.15304214474E+03  0.15304214474E+03  0.00000000000E+00 0.  1.
         23    2    1    2    0    0  0.75596650789E+02 -0.96884968468E+02  0.84735931935E+02  0.17544536850E+03  0.92191910930E+02 0.  0.
          5    1    1    2  502    0  0.10096703641E+02 -0.21950750689E+02 -0.19915151749E+02  0.31588994118E+02  0.41800000000E+01 0.  1.
         -5    1    1    2    0  502 -0.85693354430E+02  0.11883571916E+03 -0.16387483726E+02  0.14748322333E+03  0.41800000000E+01 0.  1.
        -11    1    3    3    0    0  0.50393650797E+02 -0.46818442929E+02  0.96171124347E+02  0.11823862227E+03  0.00000000000E+00 0. -1.
         11    1    3    3    0    0  0.25202999992E+02 -0.50066525539E+02 -0.11435192412E+02  0.57206746225E+02  0.00000000000E+00 0.  1.
</event>
<event>
 7    1  0.4274778E-006  0.1084805E+03  0.7561462E-02  0.1263410E+00
         -2   -1    0    0    0  501 -0.00000000000E+00  0.00000000000E+00  0.64869782300E+02  0.64869782300E+02  0.00000000000E+00 0.  1.
          2   -1    0    0  501    0  0.00000000000E+00 -0.00000000000E+00 -0.22232106755E+03  0.22232106755E+03  0.00000000000E+00 0. -1.
         23    2    1    2    0    0  0.93698358804E+01  0.48136631433E+02 -0.94198443969E+02  0.13868847609E+03  0.89197631384E+02 0.  0.
          5    1    1    2  502    0 -0.12477746447E+02 -0.81036450426E+02 -0.60658890948E+01  0.82321733853E+02  0.41800000000E+01 0.  1.
         -5    1    1    2    0  502  0.31079105671E+01  0.32899818993E+02 -0.57186952181E+02  0.66180639900E+02  0.41800000000E+01 0.  1.
        -11    1    3    3    0    0  0.37648563008E+02 -0.81877825829E+01 -0.31207379881E+02  0.49581797459E+02  0.00000000000E+00 0. -1.
         11    1    3    3    0    0 -0.28278727128E+02  0.56324414016E+02 -0.62991064088E+02  0.89106678634E+02  0.00000000000E+00 0.  1.
</event>
<event>
 7    1  0.4274778E-006  0.1184558E+03  0.7561462E-02  0.1245666E+00
          1   -1    0    0  501    0  0.00000000000E+00  0.00000000000E+00  0.42948835787E+03  0.42948835787E+03  0.00000000000E+00 0. -1.
         -1   -1    0    0    0  501 -0.00000000000E+00 -0.00000000000E+00 -0.57238367167E+02  0.57238367167E+02  0.00000000000E+00 0.  1.
         23    2    1    2    0    0 -0.14704452537E+02  0.96156538974E+02  0.26004462737E+03  0.29254625188E+03  0.92183514555E+02 0.  0.
          5    1    1    2  502    0  0.28385163396E+02 -0.68542947741E+02 -0.34808730940E+01  0.74387109526E+02  0.41800000000E+01 0.  1.
         -5    1    1    2    0  502 -0.13680710860E+02 -0.27613591232E+02  0.11568623642E+03  0.11979336362E+03  0.41800000000E+01 0.  1.
        -11    1    3    3    0    0  0.14337035084E+02  0.10104500230E+03  0.17547261300E+03  0.20299330279E+03  0.00000000000E+00 0.  1.
         11    1    3    3    0    0 -0.29041487621E+02 -0.48884633255E+01  0.84572014366E+02  0.89552949091E+02  0.00000000000E+00 0. -1.
</event>
<event>
 7    1  0.4274778E-006  0.9668058E+02  0.7561462E-02  0.1287435E+00
         -4   -1    0    0    0  501 -0.00000000000E+00  0.00000000000E+00  0.90078303454E+03  0.90078303454E+03  0.00000000000E+00 0.  1.
          4   -1    0    0  501    0  0.00000000000E+00 -0.00000000000E+00 -0.19257111944E+02  0.19257111944E+02  0.00000000000E+00 0. -1.
         23    2    1    2    0    0  0.31498136907E+02  0.20939408347E+02  0.16473868072E+03  0.19143681042E+03  0.89881188287E+02 0.  0.
          5    1    1    2  502    0  0.15637940538E+02  0.44246350340E+02  0.19353288628E+03  0.19918517810E+03  0.41800000000E+01 0.  1.
         -5    1    1    2    0  502 -0.47136077444E+02 -0.65185758687E+02  0.52325435559E+03  0.52941815796E+03  0.41800000000E+01 0.  1.
        -11    1    3    3    0    0  0.42097558554E+02 -0.14423210610E+00  0.16234876304E+03  0.16771805538E+03  0.00000000000E+00 0.  1.
         11    1    3    3    0    0 -0.10599421647E+02  0.21083640453E+02  0.23899176743E+01  0.23718755037E+02  0.00000000000E+00 0. -1.
</event>
<event>
 7    1  0.4274778E-006  0.9976343E+02  0.7561462E-02  0.1280794E+00
          1   -1    0    0  501    0  0.00000000000E+00  0.00000000000E+00  0.57254681622E+03  0.57254681622E+03  0.00000000000E+00 0. -1.
         -1   -1    0    0    0  501 -0.00000000000E+00 -0.00000000000E+00 -0.38519155414E+02  0.38519155414E+02  0.00000000000E+00 0.  1.
         23    2    1    2    0    0 -0.29296692916E+02 -0.76186815922E+02  0.36777650838E+03  0.38757249643E+03  0.91050275870E+02 0.  0.
          5    1    1    2  502    0 -0.29868340228E+02  0.22038068832E+02  0.13021559269E+03  0.13546721819E+03  0.41800000000E+01 0.  1.
         -5    1    1    2    0  502  0.59165033144E+02  0.54148747090E+02  0.36035559742E+02  0.88026257016E+02  0.41800000000E+01 0.  1.
        -11    1    3    3    0    0 -0.26377049818E+02 -0.62007836271E+02  0.36693558801E+03  0.37307163691E+03  0.00000000000E+00 0. -1.
         11    1    3    3    0    0 -0.29196430980E+01 -0.14178979651E+02  0.84092036811E+00  0.14500859521E+02  0.00000000000E+00 0.  1.
</event>
<event>
 7    1  0.4274778E-006  0.1544845E+03  0.7561462E-02  0.1195068E+00
          1   -1    0    0  501    0  0.00000000000E+00  0.00000000000E+00  0.55781354032E+03  0.55781354032E+03  0.00000000000E+00 0. -1.
         -1   -1    0    0    0  501 -0.00000000000E+00 -0.00000000000E+00 -0.54097377655E+02  0.54097377655E+02  0.00000000000E+00 0.  1.
         23    2    1    2    0    0  0.33052192925E+02  0.12908918138E+03  0.26445110152E+03  0.31083012733E+03  0.94469671088E+02 0.  0.
          5    1    1    2  502    0 -0.46370684273E+02 -0.20447593991E+02  0.17566933701E+02  0.53799758546E+02  0.41800000000E+01 0. -1.
         -5    1    1    2    0  502  0.13318491348E+02 -0.10864158739E+03  0.22169812744E+03  0.24728103210E+03  0.41800000000E+01 0. -1.
        -11    1    3    3    0    0 -0.11362791677E+02 -0.72043253043E+00 -0.15896252896E+01  0.11496041331E+02  0.00000000000E+00 0.  1.
         11    1    3    3    0    0  0.44414984601E+02  0.12980961391E+03  0.26604072681E+03  0.29933408600E+03  0.00000000000E+00 0. -1.
</event>
<event>
 7    1  0.4274778E-006  0.9736336E+02  0.7561462E-02  0.1285940E+00
         -1   -1    0    0    0  501 -0.00000000000E+00  0.00000000000E+00  0.66714221413E+02  0.66714221413E+02  0.00000000000E+00 0.  1.
          1   -1    0    0  501    0  0.00000000000E+00 -0.00000000000E+00 -0.29269782532E+03  0.29269782532E+03  0.00000000000E+00 0. -1.
         23    2    1    2    0    0 -0.68738951658E+02  0.20831901971E+02 -0.16962850128E+03  0.20455281614E+03  0.88932640415E+02 0.  0.
          5    1    1    2  502    0  0.65389860594E+02 -0.70765994704E+01  0.26254312729E+02  0.70941338199E+02  0.41800000000E+01 0. -1.
         -5    1    1    2    0  502  0.33490910637E+01 -0.13755302501E+02 -0.82609415352E+02  0.83917892386E+02  0.41800000000E+01 0. -1.
        -11    1    3    3    0    0 -0.88582037417E+02  0.50830499326E+01 -0.13741927611E+03  0.16357466856E+03  0.00000000000E+00 0. -1.
         11    1    3    3    0    0  0.19843085759E+02  0.15748852038E+02 -0.32209225173E+02  0.40978147581E+02  0.00000000000E+00 0.  1.
</event>
<event>
 7    1  0.4274778E-006  0.1060232E+03  0.7561462E-02  0.1268117E+00
          3   -1    0    0  501    0  0.00000000000E+00  0.00000000000E+00  0.14815804828E+03  0.14815804828E+03  0.00000000000E+00 0. -1.
         -3   -1    0    0    0  501 -0.00000000000E+00 -0.00000000000E+00 -0.11881265241E+03  0.11881265241E+03  0.00000000000E+00 0.  1.
         23    2    1    2    0    0  0.26505898422E+02  0.76483836699E+01  0.87455715283E+02  0.12615177370E+03  0.86629714583E+02 0.  0.
          5    1    1    2  502    0  0.76975648781E+01 -0.60178225769E+02 -0.47369219112E+02  0.77084282970E+02  0.41800000000E+01 0. -1.
         -5    1    1    2    0  502 -0.34203463300E+02  0.52529842099E+02 -0.10741100304E+02  0.63734644020E+02  0.41800000000E+01 0.  1.
        -11    1    3    3    0    0  0.52584250809E+02  0.23817545300E+02  0.42336371884E+02  0.71587340233E+02  0.00000000000E+00 0.  1.
         11    1    3    3    0    0 -0.26078352388E+02 -0.16169161630E+02  0.45119343399E+02  0.54564433469E+02  0.00000000000E+00 0. -1.
</event>
<event>
 7    1  0.4274778E-006  0.1095413E+03  0.7561462E-02  0.1261422E+00
         -1   -1    0    0    0  501 -0.00000000000E+00  0.00000000000E+00  0.26933242064E+03  0.26933242064E+03  0.00000000000E+00 0.  1.
          1   -1    0    0  501    0  0.00000000000E+00 -0.00000000000E+00 -0.69191984507E+02  0.69191984507E+02  0.00000000000E+00 0. -1.
         23    2    1    2    0    0 -0.69916449897E+02  0.13117336456E+02  0.38820334783E+02  0.12235162624E+03  0.91665301887E+02 0.  0.
          5    1    1    2  502    0 -0.45855583948E+01  0.43694604224E+02  0.25044038576E+02  0.50743689778E+02  0.41800000000E+01 0. -1.
         -5    1    1    2    0  502  0.74502008292E+02 -0.56811940680E+02  0.13627606277E+03  0.16542908912E+03  0.41800000000E+01 0. -1.
        -11    1    3    3    0    0 -0.41170934564E+02 -0.12114449763E+02  0.63638217873E+02  0.76756944442E+02  0.00000000000E+00 0.  1.
         11    1    3    3    0    0 -0.28745515332E+02  0.25231786219E+02 -0.24817883091E+02  0.45594681802E+02  0.00000000000E+00 0. -1.
</event>
<event>
 7    1  0.4274778E-006  0.1198111E+03  0.7561462E-02  0.1243409E+00
          3   -1    0    0  501    0  0.00000000000E+00  0.00000000000E+00  0.23543036112E+02  0.23543036112E+02  0.00000000000E+00 0. -1.
         -3   -1    0    0    0  501 -0.00000000000E+00 -0.00000000000E+00 -0.90670718995E+03  0.90670718995E+03  0.00000000000E+00 0.  1.
         23    2    1    2    0    0 -0.93031575126E+02  0.25930865232E+02 -0.34914361049E+03  0.37333633131E+03  0.90285501569E+02 0.  0.
          5    1    1    2  502    0  0.37021516760E+02 -0.41688809944E+02 -0.45642497369E+03  0.45983668686E+03  0.41800000000E+01 0.  1.
         -5    1    1    2    0  502  0.56010058366E+02  0.15757944712E+02 -0.77595569666E+02  0.97077207889E+02  0.41800000000E+01 0.  1.
        -11    1    3    3    0    0 -0.34388817381E+02 -0.29030821457E+02 -0.73217384061E+02  0.85942798908E+02  0.00000000000E+00 0.  1.
         11    1    3    3    0    0 -0.58642757744E+02  0.54961686690E+02 -0.27592622642E+03  0.28739353241E+03  0.00000000000E+00 0. -1.
</event>
<event>
 7    1  0.4274778E-006  0.7988488E+02  0.7561462E-02  0.1329378E+00
         -2   -1    0    0    0  501 -0.00000000000E+00  0.00000000000E+00  0.73506476344E+02  0.73506476344E+02  0.00000000000E+00 0.  1.
          2   -1    0    0  501    0  0.00000000000E+00 -0.00000000000E+00 -0.18350762825E+03  0.18350762825E+03  0.00000000000E+00 0. -1.
         23    2    1    2    0    0  0.44322388090E+02 -0.76664587951E+00 -0.64493587676E+02  0.11671763591E+03  0.86594005850E+02 0.  0.
          5    1    1    2  502    0 -0.14419435180E+02  0.21262700800E+02 -0.83591712903E+02  0.87550382194E+02  0.41800000000E+01 0.  1.
         -5    1    1    2    0  502 -0.29902952909E+02 -0.20496054920E+02  0.38084148672E+02  0.52746086490E+02  0.41800000000E+01 0.  1.
        -11    1    3    3    0    0  0.61500826082E+02  0.24910562520E+02 -0.42581086573E+02  0.78841845917E+02  0.00000000000E+00 0.  1.
         11    1    3    3    0    0 -0.17178437992E+02 -0.25677208399E+02 -0.21912501104E+02  0.37875789994E+02  0.00000000000E+00 0. -1.
</event>
<event>
 7    1  0.4274778E-006  0.1640881E+03  0.7561462E-02  0.1184157E+00
          2   -1    0    0  501    0  0.00000000000E+00  0.00000000000E+00  0.82840452546E+03  0.82840452546E+03  0.00000000000E+00 0.  1.
         -2   -1    0    0    0  501 -0.00000000000E+00 -0.00000000000E+00 -0.44935215246E+02  0.44935215246E+02  0.00000000000E+00 0. -1.
         23    2    1    2    0    0  0.13910275870E+03  0.27683999766E+02  0.54823729345E+03  0.57151599754E+03  0.77138992766E+02 0.  0.
          5    1    1    2  502    0 -0.14567970278E+03 -0.56626597036E+02  0.17586441525E+03  0.23531874606E+03  0.41800000000E+01 0.  1.
         -5    1    1    2    0  502  0.65769440808E+01  0.28942597271E+02  0.59367601511E+02  0.66504997101E+02  0.41800000000E+01 0.  1.
        -11    1    3    3    0    0  0.62735440635E+02  0.13629402113E+02  0.11805536386E+03  0.13438216046E+03  0.00000000000E+00 0. -1.
         11    1    3    3    0    0  0.76367318061E+02  0.14054597652E+02  0.43018192958E+03  0.43713383708E+03  0.00000000000E+00 0.  1.
</event>
<event>
 7    1  0.4274778E-006  0.1218087E+03  0.7561462E-02  0.1240143E+00
          1   -1    0    0  501    0  0.00000000000E+00  0.00000000000E+00  0.14481002547E+03  0.14481002547E+03  0.00000000000E+00 0. -1.
         -1   -1    0    0    0  501 -0.00000000000E+00 -0.00000000000E+00 -0.17763837657E+03  0.17763837657E+03  0.00000000000E+00 0.  1.
         23    2    1    2    0    0  0.11123193133E+03  0.13686634469E+02  0.20878655395E+02  0.14612016812E+03  0.91407432799E+02 0.  0.
          5    1    1    2  502    0 -0.48516203549E+02  0.81502893094E+01 -0.88425029498E+02  0.10127540404E+03  0.41800000000E+01 0.  1.
         -5    1    1    2    0  502 -0.62715727778E+02 -0.21836923779E+02  0.34718022998E+02  0.75052829871E+02  0.41800000000E+01 0.  1.
        -11    1    3    3    0    0  0.66493922281E+02 -0.22463587573E+02 -0.22910313430E+02  0.73830460709E+02  0.00000000000E+00 0.  1.
         11    1    3    3    0    0  0.44738009046E+02  0.36150222043E+02  0.43788968824E+02  0.72289707413E+02  0.00000000000E+00 0. -1.
</event>
<event>
 7    1  0.4274778E-006  0.1542437E+03  0.7561462E-02  0.1195353E+00
         -1   -1    0    0    0  501 -0.00000000000E+00  0.00000000000E+00  0.66362639378E+02  0.66362639378E+02  0.00000000000E+00 0.  1.
          1   -1    0    0  501    0  0.00000000000E+00 -0.00000000000E+00 -0.47708942475E+03  0.47708942475E+03  0.00000000000E+00 0. -1.
         23    2    1    2    0    0  0.70774111222E+02  0.92741014821E+02 -0.31339535901E+03  0.34664982026E+03  0.91321280036E+02 0.  0.
          5    1    1    2  502    0  0.31902951767E+02 -0.36038886972E+02 -0.52013577615E+02  0.70989325691E+02  0.41800000000E+01 0.  1.
         -5    1    1    2    0  502 -0.10267706299E+03 -0.56702127849E+02 -0.45317848754E+02  0.12581291819E+03  0.41800000000E+01 0.  1.
        -11    1    3    3    0    0  0.71921015579E+02  0.10676871510E+03 -0.24437292102E+03  0.27620701572E+03  0.00000000000E+00 0.  1.
         11    1    3    3    0    0 -0.11469043567E+01 -0.14027700283E+02 -0.69022437987E+02  0.70442804533E+02  0.00000000000E+00 0. -1.
</event>
<event>
 7    1  0.4274778E-006  0.1195010E+03  0.7561462E-02  0.1243922E+00
          1   -1    0    0  501    0  0.00000000000E+00  0.00000000000E+00  0.79437864317E+02  0.79437864317E+02  0.00000000000E+00 0. -1.
         -1   -1    0    0    0  501 -0.00000000000E+00 -0.00000000000E+00 -0.18870756582E+03  0.18870756582E+03  0.00000000000E+00 0.  1.
         23    2    1    2    0    0 -0.23590678870E+02 -0.51307909957E+02 -0.28240458858E+02  0.10876423854E+03  0.88561359040E+02 0.  0.
          5    1    1    2  502    0  0.23435906488E+01 -0.40521942867E+02 -0.37717731956E+02  0.55566356500E+02  0.41800000000E+01 0.  1.
         -5    1    1    2    0  502  0.21247088221E+02  0.91829852824E+02 -0.43311510686E+02  0.10381483509E+03  0.41800000000E+01 0.  1.
        -11    1    3    3    0    0 -0.49784819726E+02 -0.58372213632E+02 -0.27891530330E+02  0.81631985543E+02  0.00000000000E+00 0.  1.
         11    1    3    3    0    0  0.26194140856E+02  0.70643036750E+01 -0.34892852761E+00  0.27132252998E+02  0.00000000000E+00 0. -1.
</event>
<event>
 7    1  0.4274778E-006  0.1768138E+03  0.7561462E-02  0.1170923E+00
         -1   -1    0    0    0  501 -0.00000000000E+00  0.00000000000E+00  0.10244519746E+03  0.10244519746E+03  0.00000000000E+00 0.  1.
          1   -1    0    0  501    0  0.00000000000E+00 -0.00000000000E+00 -0.50617227684E+03  0.50617227684E+03  0.00000000000E+00 0. -1.
         23    2    1    2    0    0  0.14784428475E+03 -0.62465150604E+02 -0.35269648816E+03  0.39882898711E+03  0.94392375897E+02 0.  0.
          5    1    1    2  502    0 -0.48069496887E+01  0.25992423701E+02  0.30925720365E+02  0.40897254618E+02  0.41800000000E+01 0.  1.
         -5    1    1    2    0  502 -0.14303733506E+03  0.36472726903E+02 -0.81956311589E+02  0.16889123257E+03  0.41800000000E+01 0.  1.
        -11    1    3    3    0    0  0.98999982246E+02  0.11278352828E+01 -0.13959463456E+03  0.17114009026E+03  0.00000000000E+00 0.  1.
         11    1    3    3    0    0  0.48844302505E+02 -0.63592985887E+02 -0.21310185360E+03  0.22768889685E+03  0.00000000000E+00 0. -1.
</event>
<event>
 7    1  0.4274778E-006  0.1586937E+03  0.7561462E-02  0.1190179E+00
          2   -1    0    0  501    0  0.00000000000E+00  0.00000000000E+00  0.77516060657E+03  0.77516060657E+03  0.00000000000E+00 0. -1.
         -2   -1    0    0    0  501 -0.00000000000E+00 -0.00000000000E+00 -0.47562500744E+02  0.47562500744E+02  0.00000000000E+00 0.  1.
         23    2    1    2    0    0  0.26917516395E+02 -0.15140033861E+03  0.42092999926E+03  0.45756900697E+03  0.92415997746E+02 0.  0.
          5    1    1    2  502    0 -0.86435710375E+01  0.71318979648E+01 -0.10688887824E+02  0.16040573923E+02  0.41800000000E+01 0.  1.
         -5    1    1    2    0  502 -0.18273945357E+02  0.14426844064E+03  0.31735699439E+03  0.34911352642E+03  0.41800000000E+01 0.  1.
        -11    1    3    3    0    0  0.39149853912E+02 -0.12104256119E+03  0.39738183913E+03  0.41724853355E+03  0.00000000000E+00 0. -1.
         11    1    3    3    0    0 -0.12232337517E+02 -0.30357777420E+02  0.23548160134E+02  0.40320473418E+02  0.00000000000E+00 0.  1.
</event>
<event>
 7    1  0.4274778E-006  0.1158799E+03  0.7561462E-02  0.1250053E+00
         -2   -1    0    0    0  501 -0.00000000000E+00  0.00000000000E+00  0.38696789308E+03  0.38696789308E+03  0.00000000000E+00 0.  1.
          2   -1    0    0  501    0  0.00000000000E+00 -0.00000000000E+00 -0.63697625647E+02  0.63697625647E+02  0.00000000000E+00 0. -1.
         23    2    1    2    0    0  0.42232802809E+02  0.94632110472E+02  0.21538260231E+03  0.25566282698E+03  0.90746734125E+02 0.  0.
          5    1    1    2  502    0 -0.19077010867E+02 -0.17625428309E+02  0.11134164849E+03  0.11440726880E+03  0.41800000000E+01 0.  1.
         -5    1    1    2    0  502 -0.23155791942E+02 -0.77006682164E+02 -0.34539833696E+01  0.80595422944E+02  0.41800000000E+01 0.  1.
        -11    1    3    3    0    0  0.61761068207E+02  0.76112796901E+02  0.11199787537E+03  0.14883249472E+03  0.00000000000E+00 0. -1.
         11    1    3    3    0    0 -0.19528265398E+02  0.18519313571E+02  0.10338472695E+03  0.10683033226E+03  0.00000000000E+00 0.  1.
</event>
<event>
 7    1  0.4274778E-006  0.2027857E+03  0.7561462E-02  0.1147410E+00
          2   -1    0    0  501    0  0.00000000000E+00  0.00000000000E+00  0.88120412482E+02  0.88120412482E+02  0.00000000000E+00 0. -1.
         -2   -1    0    0    0  501 -0.00000000000E+00 -0.00000000000E+00 -0.51317715048E+03  0.51317715048E+03  0.00000000000E+00 0.  1.
         23    2    1    2    0    0 -0.17795877485E+03  0.15511382755E+02 -0.18381381576E+03  0.27609902848E+03  0.10263150647E+03 0.  0.
          5    1    1    2  502    0  0.99539247064E+01  0.24546743567E+02 -0.95427139063E+02  0.99123329780E+02  0.41800000000E+01 0. -1.
         -5    1    1    2    0  502  0.16800485015E+03 -0.40058126322E+02 -0.14581578318E+03  0.22607520470E+03  0.41800000000E+01 0. -1.
        -11    1    3    3    0    0 -0.11812356084E+03 -0.39657787143E+02 -0.11337059707E+03  0.16846010799E+03  0.00000000000E+00 0.  1.
         11    1    3    3    0    0 -0.59835214016E+02  0.55169169898E+02 -0.70443218690E+02  0.10763892048E+03  0.00000000000E+00 0. -1.
</event>
<event>
 7    1  0.4274778E-006  0.9578591E+02  0.7561462E-02  0.1289416E+00
          2   -1    0    0  501    0  0.00000000000E+00  0.00000000000E+00  0.50479769767E+02  0.50479769767E+02  0.00000000000E+00 0. -1.
         -2   -1    0    0    0  501 -0.00000000000E+00 -0.00000000000E+00 -0.25691648114E+03  0.25691648114E+03  0.00000000000E+00 0.  1.
         23    2    1    2    0    0 -0.30078969255E+02  0.17948355584E+02 -0.61592097883E+02  0.11292621999E+03  0.87930977366E+02 0.  0.
          5    1    1    2  502    0  0.22396169698E+02 -0.60452814596E+02 -0.29094122638E+02  0.70852463484E+02  0.41800000000E+01 0. -1.
         -5    1    1    2    0  502  0.76827995573E+01  0.42504459011E+02 -0.11575049086E+03  0.12361756743E+03  0.41800000000E+01 0. -1.
        -11    1    3    3    0    0 -0.51293535493E+02  0.29750498493E+02 -0.65481705710E+02  0.88340096936E+02  0.00000000000E+00 0.  1.
         11    1    3    3    0    0  0.21214566238E+02 -0.11802142908E+02  0.38896078277E+01  0.24586123056E+02  0.00000000000E+00 0. -1.
</event>
<event>
 7    1  0.4274778E-006  0.1635045E+03  0.7561462E-02  0.1184796E+00
         -2   -1    0    0    0  501 -0.00000000000E+00  0.00000000000E+00  0.38047367147E+03  0.38047367147E+03  0.00000000000E+00 0. -1.
          2   -1    0    0  501    0  0.00000000000E+00 -0.00000000000E+00 -0.14237761432E+03  0.14237761432E+03  0.00000000000E+00 0.  1.
         23    2    1    2    0    0 -0.61517546881E+02  0.13334557894E+03 -0.46652932657E+02  0.17890670513E+03  0.90915680813E+02 0.  0.
          5    1    1    2  502    0  0.51299597972E+02 -0.26593584360E+02  0.25381176832E+02  0.63249853902E+02  0.41800000000E+01 0. -1.
         -5    1    1    2    0  502  0.10217948909E+02 -0.10675199458E+03  0.25936781297E+03  0.28069472676E+03  0.41800000000E+01 0. -1.
        -11    1    3    3    0    0 -0.37009770258E+02  0.13448397489E+02 -0.40332180801E+02  0.56367253772E+02  0.00000000000E+00 0.  1.
         11    1    3    3    0    0 -0.24507776623E+02  0.11989718145E+03 -0.63207518559E+01  0.12253945136E+03  0.00000000000E+00 0. -1.
</event>
<event>
 7    1  0.4274778E-006  0.3200633E+03  0.7561462E-02  0.1075620E+00
         -2   -1    0    0    0  501 -0.00000000000E+00  0.00000000000E+00  0.29474051582E+03  0.29474051582E+03  0.00000000000E+00 0. -1.
          2   -1    0    0  501    0  0.00000000000E+00 -0.00000000000E+00 -0.61793263787E+03  0.61793263787E+03  0.00000000000E+00 0.  1.
         23    2    1    2    0    0  0.25163954381E+03 -0.16927655451E+03 -0.45888334608E+03  0.55765814904E+03  0.91824146978E+02 0.  0.
          5    1    1    2  502    0 -0.91613750598E+02  0.13016010492E+03  0.94497876915E+02  0.18515413404E+03  0.41800000000E+01 0. -1.
         -5    1    1    2    0  502 -0.16002579321E+03  0.39116449593E+02  0.41193347113E+02  0.16986087062E+03  0.41800000000E+01 0. -1.
        -11    1    3    3    0    0  0.18860054529E+03 -0.75574202515E+02 -0.31313839334E+03  0.37327909017E+03  0.00000000000E+00 0.  1.
         11    1    3    3    0    0  0.63038998520E+02 -0.93702351997E+02 -0.14574495273E+03  0.18437905887E+03  0.00000000000E+00 0. -1.
</event>
<event>
 7    1  0.4274778E-006  0.1121629E+03  0.7561462E-02  0.1256616E+00
          1   -1    0    0  501    0  0.00000000000E+00  0.00000000000E+00  0.10960899717E+03  0.10960899717E+03  0.00000000000E+00 0. -1.
         -1   -1    0    0    0  501 -0.00000000000E+00 -0.00000000000E+00 -0.11627252622E+03  0.11627252622E+03  0.00000000000E+00 0.  1.
         23    2    1    2    0    0 -0.29986094732E+02 -0.18926591114E+01  0.70898513566E+01  0.96501006399E+02  0.91429919654E+02 0.  0.
          5    1    1    2  502    0 -0.39443237294E+02  0.33289069116E+02  0.30745761180E+00  0.51783182801E+02  0.41800000000E+01 0.  1.
         -5    1    1    2    0  502  0.69429332026E+02 -0.31396410005E+02 -0.14060838019E+02  0.77597334185E+02  0.41800000000E+01 0.  1.
        -11    1    3    3    0    0  0.26006909060E+02 -0.24609612349E+02  0.32934259508E+01  0.35956070327E+02  0.00000000000E+00 0.  1.
         11    1    3    3    0    0 -0.55993003793E+02  0.22716953237E+02  0.37964254058E+01  0.60544936072E+02  0.00000000000E+00 0. -1.
</event>
<event>
 7    1  0.4274778E-006  0.1002121E+03  0.7561462E-02  0.1279851E+00
          2   -1    0    0  501    0  0.00000000000E+00  0.00000000000E+00  0.95644148098E+03  0.95644148098E+03  0.00000000000E+00 0.  1.
         -2   -1    0    0    0  501 -0.00000000000E+00 -0.00000000000E+00 -0.17793179870E+02  0.17793179870E+02  0.00000000000E+00 0. -1.
         23    2    1    2    0    0 -0.70087408032E+02  0.15460042345E+02  0.43108197914E+03  0.44657780553E+03  0.91917386705E+02 0.  0.
          5    1    1    2  502    0 -0.92100877469E+01 -0.28752434737E+02  0.34401250765E+03  0.34536011067E+03  0.41800000000E+01 0. -1.
         -5    1    1    2    0  502  0.79297495779E+02  0.13292392392E+02  0.16355381431E+03  0.18229674465E+03  0.41800000000E+01 0. -1.
        -11    1    3    3    0    0 -0.66168169198E+02  0.31240535096E+02  0.42128954379E+03  0.42759686313E+03  0.00000000000E+00 0.  1.
         11    1    3    3    0    0 -0.39192388346E+01 -0.15780492751E+02  0.97924353519E+01  0.18980942406E+02  0.00000000000E+00 0. -1.
</event>
<event>
 7    1  0.4274778E-006  0.4377619E+03  0.7561462E-02  0.1031436E+00
          1   -1    0    0  501    0  0.00000000000E+00  0.00000000000E+00  0.71586596780E+03  0.71586596780E+03  0.00000000000E+00 0. -1.
         -1   -1    0    0    0  501 -0.00000000000E+00 -0.00000000000E+00 -0.30401252991E+03  0.30401252991E+03  0.00000000000E+00 0.  1.
         23    2    1    2    0    0 -0.20770569060E+03  0.38275515645E+03  0.34314513513E+03  0.56160737311E+03  0.89504715380E+02 0.  0.
          5    1    1    2  502    0  0.12675406682E+03 -0.24734162725E+03  0.10359965514E+03  0.29663923370E+03  0.41800000000E+01 0.  1.
         -5    1    1    2    0  502  0.80951623779E+02 -0.13541352920E+03 -0.34891352384E+02  0.16163189090E+03  0.41800000000E+01 0.  1.
        -11    1    3    3    0    0 -0.16644967240E+03  0.34815443503E+03  0.32580140726E+03  0.50503817781E+03  0.00000000000E+00 0. -1.
         11    1    3    3    0    0 -0.41256018203E+02  0.34600721418E+02  0.17343727865E+02  0.56569195300E+02  0.00000000000E+00 0.  1.
</event>
<event>
 7    1  0.4274778E-006  0.1355139E+03  0.7561462E-02  0.1219496E+00
         -1   -1    0    0    0  501 -0.00000000000E+00  0.00000000000E+00  0.28090086031E+03  0.28090086031E+03  0.00000000000E+00 0.  1.
          1   -1    0    0  501    0  0.00000000000E+00 -0.00000000000E+00 -0.18292419562E+03  0.18292419562E+03  0.00000000000E+00 0. -1.
         23    2    1    2    0    0 -0.56295820032E+02  0.71764278847E+02 -0.13580719090E+03  0.18777547987E+03  0.92177582244E+02 0.  0.
          5    1    1    2  502    0  0.20313394950E+02  0.31273299033E+02  0.56700514630E+02  0.67993190881E+02  0.41800000000E+01 0. -1.
         -5    1    1    2    0  502  0.35982425082E+02 -0.10303757788E+03  0.17708334096E+03  0.20805638518E+03  0.41800000000E+01 0.  1.
        -11    1    3    3    0    0 -0.61695458401E+02  0.10260651517E+02 -0.41511012880E+02  0.75065136696E+02  0.00000000000E+00 0.  1.
         11    1    3    3    0    0  0.53996383684E+01  0.61503627329E+02 -0.94296178016E+02  0.11271034317E+03  0.00000000000E+00 0. -1.
</event>
<event>
 7    1  0.4274778E-006  0.1268919E+03  0.7561462E-02  0.1232142E+00
          2   -1    0    0  501    0  0.00000000000E+00  0.00000000000E+00  0.71917228096E+03  0.71917228096E+03  0.00000000000E+00 0. -1.
         -2   -1    0    0    0  501 -0.00000000000E+00 -0.00000000000E+00 -0.54374572481E+02  0.54374572481E+02  0.00000000000E+00 0.  1.
         23    2    1    2    0    0 -0.57135736488E+02 -0.72947865905E+02  0.58453309989E+03  0.59840196017E+03  0.88431202354E+02 0.  0.
          5    1    1    2  502    0 -0.29755192425E+02  0.17714910102E+02  0.61067881239E+02  0.70327434442E+02  0.41800000000E+01 0. -1.
         -5    1    1    2    0  502  0.86890928913E+02  0.55232955803E+02  0.19196727355E+02  0.10481745883E+03  0.41800000000E+01 0. -1.
        -11    1    3    3    0    0 -0.37981544577E+02 -0.85088520782E+02  0.54429449464E+03  0.55221295801E+03  0.00000000000E+00 0. -1.
         11    1    3    3    0    0 -0.19154191912E+02  0.12140654877E+02  0.40238605251E+02  0.46189002167E+02  0.00000000000E+00 0.  1.
</event>
<event>
 7    1  0.4274778E-006  0.1353146E+03  0.7561462E-02  0.1219776E+00
          2   -1    0    0  501    0  0.00000000000E+00  0.00000000000E+00  0.47547068151E+03  0.47547068151E+03  0.00000000000E+00 0. -1.
         -2   -1    0    0    0  501 -0.00000000000E+00 -0.00000000000E+00 -0.47497216133E+02  0.47497216133E+02  0.00000000000E+00 0.  1.
         23    2    1    2    0    0 -0.36801615753E+02  0.97526876717E+02  0.20259431533E+03  0.24492397513E+03  0.89874614796E+02 0.  0.
          5    1    1    2  502    0 -0.12218907211E+02  0.26427128554E+02  0.38051973026E+02  0.48094904805E+02  0.41800000000E+01 0. -1.
         -5    1    1    2    0  502  0.49020522964E+02 -0.12395400527E+03  0.18732717702E+03  0.22994901770E+03  0.41800000000E+01 0. -1.
        -11    1    3    3    0    0 -0.17102436188E+02  0.14194097517E+02  0.13225275096E+03  0.13410725508E+03  0.00000000000E+00 0. -1.
         11    1    3    3    0    0 -0.19699179566E+02  0.83332779200E+02  0.70341564367E+02  0.11081672005E+03  0.00000000000E+00 0.  1.
</event>
<event>
 7    1  0.4274778E-006  0.8857358E+02  0.7561462E-02  0.1306343E+00
         -1   -1    0    0    0  501 -0.00000000000E+00  0.00000000000E+00  0.10458757209E+03  0.10458757209E+03  0.00000000000E+00 0.  1.
          1   -1    0    0  501    0  0.00000000000E+00 -0.00000000000E+00 -0.15263574030E+03  0.15263574030E+03  0.00000000000E+00 0. -1.
         23    2    1    2    0    0 -0.83305188254E+01  0.37618064676E+02 -0.66336015863E+02  0.12506565938E+03  0.98774671970E+02 0.  0.
          5    1    1    2  502    0  0.12689970614E+02 -0.57399629933E+02 -0.39388461078E+02  0.70884950002E+02  0.41800000000E+01 0.  1.
         -5    1    1    2    0  502 -0.43594517887E+01  0.19781565257E+02  0.57676308729E+02  0.61272702997E+02  0.41800000000E+01 0.  1.
        -11    1    3    3    0    0 -0.48145274516E+02  0.10272519495E+02 -0.57957692948E+02  0.76043318489E+02  0.00000000000E+00 0. -1.
         11    1    3    3    0    0  0.39814755691E+02  0.27345545181E+02 -0.83783229157E+01  0.49022340895E+02  0.00000000000E+00 0.  1.
</event>
<event>
 7    1  0.4274778E-006  0.1347351E+03  0.7561462E-02  0.1220594E+00
          2   -1    0    0  501    0  0.00000000000E+00  0.00000000000E+00  0.71912997440E+03  0.71912997440E+03  0.00000000000E+00 0. -1.
         -2   -1    0    0    0  501 -0.00000000000E+00 -0.00000000000E+00 -0.31116634555E+02  0.31116634555E+02  0.00000000000E+00 0.  1.
         23    2    1    2    0    0  0.94085605551E+02 -0.19269913909E+02  0.40989681548E+03  0.43052814463E+03  0.90086920392E+02 0.  0.
          5    1    1    2  502    0  0.17682676028E+02 -0.26759190338E+02  0.94184545489E+02  0.99583795409E+02  0.41800000000E+01 0. -1.
         -5    1    1    2    0  502 -0.11176828158E+03  0.46029104247E+02  0.18393197888E+03  0.22013466892E+03  0.41800000000E+01 0. -1.
        -11    1    3    3    0    0  0.69226168196E+02  0.17861061383E+02  0.34096813147E+03  0.34838275869E+03  0.00000000000E+00 0.  1.
         11    1    3    3    0    0  0.24859437355E+02 -0.37130975292E+02  0.68928684014E+02  0.82145385942E+02  0.00000000000E+00 0. -1.
</event>
<event>
 7    1  0.4274778E-006  0.1198615E+03  0.7561462E-02  0.1243326E+00
          2   -1    0    0  501    0  0.00000000000E+00  0.00000000000E+00  0.14743345100E+03  0.14743345100E+03  0.00000000000E+00 0. -1.
         -2   -1    0    0    0  501 -0.00000000000E+00 -0.00000000000E+00 -0.15615913799E+03  0.15615913799E+03  0.00000000000E+00 0.  1.
         23    2    1    2    0    0 -0.86660350872E+02  0.21650874715E+02  0.50497017308E+02  0.13886961181E+03  0.93573733161E+02 0.  0.
          5    1    1    2  502    0  0.28516076911E+02  0.47955340175E+02 -0.47079711223E+02  0.73122177912E+02  0.41800000000E+01 0. -1.
         -5    1    1    2    0  502  0.58144273960E+02 -0.69606214890E+02 -0.12142993083E+02  0.91600799269E+02  0.41800000000E+01 0. -1.
        -11    1    3    3    0    0 -0.38592294636E+02  0.22940226709E+02 -0.23459430706E+02  0.50655346172E+02  0.00000000000E+00 0.  1.
         11    1    3    3    0    0 -0.48068056235E+02 -0.12893519943E+01  0.73956448014E+02  0.88214265636E+02  0.00000000000E+00 0. -1.
</event>
<event>
 7    1  0.4274778E-006  0.9656295E+02  0.7561462E-02  0.1287694E+00
         -1   -1    0    0    0  501 -0.00000000000E+00  0.00000000000E+00  0.10566984113E+03  0.10566984113E+03  0.00000000000E+00 0.  1.
          1   -1    0    0  501    0  0.00000000000E+00 -0.00000000000E+00 -0.14374792981E+03  0.14374792981E+03  0.00000000000E+00 0. -1.
         23    2    1    2    0    0 -0.51644460636E+02 -0.24672668088E+02 -0.23442681105E+02  0.11107639708E+03  0.92263296207E+02 0.  0.
          5    1    1    2  502    0  0.11931494770E+02 -0.49740446146E+02 -0.16380703072E+02  0.53872742490E+02  0.41800000000E+01 0. -1.
         -5    1    1    2    0  502  0.39712965866E+02  0.74413114234E+02  0.17452954939E+01  0.84468631363E+02  0.41800000000E+01 0. -1.
        -11    1    3    3    0    0 -0.26775148123E+02 -0.14824010071E+02 -0.59068726942E+02  0.66526493476E+02  0.00000000000E+00 0. -1.
         11    1    3    3    0    0 -0.24869312513E+02 -0.98486580169E+01  0.35626045837E+02  0.44549903609E+02  0.00000000000E+00 0.  1.
</event>
<event>
 7    1  0.4274778E-006  0.1520528E+03  0.7561462E-02  0.1197973E+00
          2   -1    0    0  501    0  0.00000000000E+00  0.00000000000E+00  0.78317483273E+03  0.78317483273E+03  0.00000000000E+00 0. -1.
         -2   -1    0    0    0  501 -0.00000000000E+00 -0.00000000000E+00 -0.31329237837E+02  0.31329237837E+02  0.00000000000E+00 0.  1.
         23    2    1    2    0    0  0.66547999441E+02  0.90238328827E+02  0.35338308121E+03  0.38207865080E+03  0.92373703459E+02 0.  0.
          5    1    1    2  502    0  0.36357648397E+02 -0.27958439903E+02  0.85447174066E+02  0.97068248746E+02  0.41800000000E+01 0. -1.
         -5    1    1    2    0  502 -0.10290564784E+03 -0.62279888924E+02  0.31301533962E+03  0.33535717103E+03  0.41800000000E+01 0. -1.
        -11    1    3    3    0    0  0.84681698173E+02  0.65686176667E+02  0.21331639887E+03  0.23872484126E+03  0.00000000000E+00 0.  1.
         11    1    3    3    0    0 -0.18133698732E+02  0.24552152160E+02  0.14006668234E+03  0.14335380953E+03  0.00000000000E+00 0. -1.
</event>
<event>
 7    1  0.4274778E-006  0.1307407E+03  0.7561462E-02  0.1226361E+00
          1   -1    0    0  501    0  0.00000000000E+00  0.00000000000E+00  0.82836934490E+02  0.82836934490E+02  0.00000000000E+00 0. -1.
         -1   -1    0    0    0  501 -0.00000000000E+00 -0.00000000000E+00 -0.26194818630E+03  0.26194818630E+03  0.00000000000E+00 0.  1.
         23    2    1    2    0    0 -0.80567111899E+02  0.53152886307E+02 -0.52512649692E+02  0.14232652494E+03  0.90459783780E+02 0.  0.
          5    1    1    2  502    0  0.12853428055E+02  0.38265367765E+02 -0.15651725922E+02  0.43495952769E+02  0.41800000000E+01 0.  1.
         -5    1    1    2    0  502  0.67713683844E+02 -0.91418254071E+02 -0.11094687619E+03  0.15896264308E+03  0.41800000000E+01 0.  1.
        -11    1    3    3    0    0 -0.53355665867E+02  0.74584909937E+01 -0.68168186809E+02  0.86887040811E+02  0.00000000000E+00 0.  1.
         11    1    3    3    0    0 -0.27211446032E+02  0.45694395313E+02  0.15655537117E+02  0.55439484130E+02  0.00000000000E+00 0. -1.
</event>
<event>
 7    1  0.4274778E-006  0.1895111E+03  0.7561462E-02  0.1158903E+00
          2   -1    0    0  501    0  0.00000000000E+00  0.00000000000E+00  0.99107813361E+03  0.99107813361E+03  0.00000000000E+00 0. -1.
         -2   -1    0    0    0  501 -0.00000000000E+00 -0.00000000000E+00 -0.50525498402E+02  0.50525498402E+02  0.00000000000E+00 0.  1.
         23    2    1    2    0    0  0.11841478416E+03 -0.12125105435E+03  0.68001995476E+03  0.70657044166E+03  0.89948712426E+02 0.  0.
          5    1    1    2  502    0 -0.32107261251E+02 -0.88295349752E+01  0.27958790427E+01  0.33676791007E+02  0.41800000000E+01 0. -1.
         -5    1    1    2    0  502 -0.86307522906E+02  0.13008058932E+03  0.25773680141E+03  0.30135639935E+03  0.41800000000E+01 0. -1.
        -11    1    3    3    0    0  0.96002568125E+02 -0.38281443171E+02  0.42788937423E+03  0.44019459169E+03  0.00000000000E+00 0. -1.
         11    1    3    3    0    0  0.22412216031E+02 -0.82969611174E+02  0.25213058053E+03  0.26637584996E+03  0.00000000000E+00 0.  1.
</event>
<event>
 7    1  0.4274778E-006  0.1999795E+03  0.7561462E-02  0.1149756E+00
          1   -1    0    0  501    0  0.00000000000E+00  0.00000000000E+00  0.11264115136E+04  0.11264115136E+04  0.00000000000E+00 0. -1.
         -1   -1    0    0    0  501 -0.00000000000E+00 -0.00000000000E+00 -0.46500664534E+02  0.46500664534E+02  0.00000000000E+00 0.  1.
         23    2    1    2    0    0 -0.23073327377E+02  0.19740340371E+03  0.59786959896E+03  0.63671176313E+03  0.91941990991E+02 0.  0.
          5    1    1    2  502    0 -0.58270957469E+00 -0.21177586553E+02 -0.83602491798E+00  0.21610207318E+02  0.41800000000E+01 0.  1.
         -5    1    1    2    0  502  0.23656036952E+02 -0.17622581716E+03  0.48287727504E+03  0.51459020771E+03  0.41800000000E+01 0.  1.
        -11    1    3    3    0    0 -0.28543135882E+02  0.14225508662E+03  0.52777792802E+03  0.54735798303E+03  0.00000000000E+00 0. -1.
         11    1    3    3    0    0  0.54698085044E+01  0.55148317090E+02  0.70091670939E+02  0.89353780099E+02  0.00000000000E+00 0.  1.
</event>
<event>
 7    1  0.4274778E-006  0.1741052E+03  0.7561462E-02  0.1173633E+00
         -2   -1    0    0    0  501 -0.00000000000E+00  0.00000000000E+00  0.95728926016E+02  0.95728926016E+02  0.00000000000E+00 0.  1.
          2   -1    0    0  501    0  0.00000000000E+00 -0.00000000000E+00 -0.49602625052E+03  0.49602625052E+03  0.00000000000E+00 0. -1.
         23    2    1    2    0    0  0.96143014694E+02 -0.90897884098E+02 -0.20903993255E+03  0.26317111938E+03  0.89752103417E+02 0.  0.
          5    1    1    2  502    0  0.33099797485E+02  0.32102774540E+02 -0.18025831475E+03  0.18610942255E+03  0.41800000000E+01 0. -1.
         -5    1    1    2    0  502 -0.12924281218E+03  0.58795109558E+02 -0.10999077214E+02  0.14247463461E+03  0.41800000000E+01 0.  1.
        -11    1    3    3    0    0  0.11144310221E+03 -0.92014410518E+02 -0.19011600341E+03  0.23881019979E+03  0.00000000000E+00 0.  1.
         11    1    3    3    0    0 -0.15300087512E+02  0.11165264195E+01 -0.18923929139E+02  0.24360919588E+02  0.00000000000E+00 0. -1.
</event>
<event>
 7    1  0.4274778E-006  0.1224503E+03  0.7561462E-02  0.1239109E+00
         -1   -1    0    0    0  501 -0.00000000000E+00  0.00000000000E+00  0.41335051870E+03  0.41335051870E+03  0.00000000000E+00 0.  1.
          1   -1    0    0  501    0  0.00000000000E+00 -0.00000000000E+00 -0.16869685244E+03  0.16869685244E+03  0.00000000000E+00 0. -1.
         23    2    1    2    0    0  0.63113896752E+02  0.71884839456E+02 -0.71708064373E+02  0.14812200092E+03  0.87448765306E+02 0.  0.
          5    1    1    2  502    0  0.22333991407E+02 -0.15220863352E+02 -0.48079394679E+02  0.55313492442E+02  0.41800000000E+01 0. -1.
         -5    1    1    2    0  502 -0.85447888159E+02 -0.56663976104E+02  0.36444112531E+03  0.37861187778E+03  0.41800000000E+01 0.  1.
        -11    1    3    3    0    0  0.72575929936E+02  0.42583069540E+02 -0.80134057030E+02  0.11619832406E+03  0.00000000000E+00 0.  1.
         11    1    3    3    0    0 -0.94620331843E+01  0.29301769916E+02  0.84259926572E+01  0.31923676863E+02  0.00000000000E+00 0. -1.
</event>
<event>
 7    1  0.4274778E-006  0.9398923E+02  0.7561462E-02  0.1293469E+00
          2   -1    0    0  501    0  0.00000000000E+00  0.00000000000E+00  0.26924026091E+03  0.26924026091E+03  0.00000000000E+00 0. -1.
         -2   -1    0    0    0  501 -0.00000000000E+00 -0.00000000000E+00 -0.62412893470E+02  0.62412893470E+02  0.00000000000E+00 0.  1.
         23    2    1    2    0    0 -0.39154028010E+02 -0.81861539411E+00  0.86573320390E+02  0.15377069513E+03  0.12089987112E+03 0.  0.
          5    1    1    2  502    0  0.16921021728E+02 -0.26242865447E+02  0.13574940241E+03  0.13935702931E+03  0.41800000000E+01 0.  1.
         -5    1    1    2    0  502  0.22233006283E+02  0.27061480841E+02 -0.15495355366E+02  0.38525429934E+02  0.41800000000E+01 0.  1.
        -11    1    3    3    0    0  0.23882266279E+02  0.39655337748E+02  0.56515056976E+02  0.73053816598E+02  0.00000000000E+00 0. -1.
         11    1    3    3    0    0 -0.63036294289E+02 -0.40473953142E+02  0.30058263414E+02  0.80716878533E+02  0.00000000000E+00 0.  1.
</event>
<event>
 7    1  0.4274778E-006  0.2277483E+03  0.7561462E-02  0.1128235E+00
          2   -1    0    0  501    0  0.00000000000E+00  0.00000000000E+00  0.96307458245E+03  0.96307458245E+03  0.00000000000E+00 0. -1.
         -2   -1    0    0    0  501 -0.00000000000E+00 -0.00000000000E+00 -0.63902043794E+02  0.63902043794E+02  0.00000000000E+00 0.  1.
         23    2    1    2    0    0  0.14181143495E+03  0.10314186537E+03  0.59222614440E+03  0.62476697913E+03  0.94091682012E+02 0.  0.
          5    1    1    2  502    0  0.63280410013E+01 -0.10841543353E+03  0.16017715920E+03  0.19356690074E+03  0.41800000000E+01 0. -1.
         -5    1    1    2    0  502 -0.14813947595E+03  0.52735681651E+01  0.14676923504E+03  0.20864274637E+03  0.41800000000E+01 0.  1.
        -11    1    3    3    0    0 -0.64268583371E+01  0.34626148784E+02  0.89408377116E+02  0.96094394146E+02  0.00000000000E+00 0.  1.
         11    1    3    3    0    0  0.14823829329E+03  0.68515716585E+02  0.50281776729E+03  0.52867258499E+03  0.00000000000E+00 0. -1.
</event>
<event>
 7    1  0.4274778E-006  0.8381264E+02  0.7561462E-02  0.1318567E+00
          2   -1    0    0  501    0  0.00000000000E+00  0.00000000000E+00  0.88796824460E+02  0.88796824460E+02  0.00000000000E+00 0. -1.
         -2   -1    0    0    0  501 -0.00000000000E+00 -0.00000000000E+00 -0.16721443848E+03  0.16721443848E+03  0.00000000000E+00 0.  1.
         23    2    1    2    0    0 -0.11241872910E+02  0.33149425114E+02  0.10937009906E+02  0.98353069444E+02  0.91260308960E+02 0.  0.
          5    1    1    2  502    0 -0.35813450166E+02 -0.63845032698E+02 -0.45846787395E+02  0.86476538595E+02  0.41800000000E+01 0. -1.
         -5    1    1    2    0  502  0.47055323076E+02  0.30695607584E+02 -0.43507836530E+02  0.71181654899E+02  0.41800000000E+01 0. -1.
        -11    1    3    3    0    0 -0.19310873169E+01  0.26386818830E+02 -0.38988838731E+02  0.47118179631E+02  0.00000000000E+00 0.  1.
         11    1    3    3    0    0 -0.93107855936E+01  0.67626062844E+01  0.49925848636E+02  0.51234889813E+02  0.00000000000E+00 0. -1.
</event>
<event>
 7    1  0.4274778E-006  0.1225762E+03  0.7561462E-02  0.1238907E+00
          1   -1    0    0  501    0  0.00000000000E+00  0.00000000000E+00  0.72675881986E+02  0.72675881986E+02  0.00000000000E+00 0. -1.
         -1   -1    0    0    0  501 -0.00000000000E+00 -0.00000000000E+00 -0.41709636387E+03  0.41709636387E+03  0.00000000000E+00 0.  1.
         23    2    1    2    0    0  0.26562197954E+02  0.90981707926E+02 -0.59460973530E+02  0.16445175936E+03  0.12052199902E+03 0.  0.
          5    1    1    2  502    0 -0.61038878702E+01 -0.58866065043E+02 -0.28055672784E+03  0.28676126133E+03  0.41800000000E+01 0.  1.
         -5    1    1    2    0  502 -0.20458310084E+02 -0.32115642883E+02 -0.44027805141E+01  0.38559225168E+02  0.41800000000E+01 0.  1.
        -11    1    3    3    0    0  0.66829983403E+02  0.27342073393E+02 -0.51566874804E+02  0.88729804666E+02  0.00000000000E+00 0.  1.
         11    1    3    3    0    0 -0.40267785449E+02  0.63639634533E+02 -0.78940987254E+01  0.75721954697E+02  0.00000000000E+00 0. -1.
</event>
<event>
 7    1  0.4274778E-006  0.9473125E+02  0.7561462E-02  0.1291783E+00
         -2   -1    0    0    0  501 -0.00000000000E+00  0.00000000000E+00  0.38305180031E+02  0.38305180031E+02  0.00000000000E+00 0.  1.
          2   -1    0    0  501    0  0.00000000000E+00 -0.00000000000E+00 -0.59173283359E+03  0.59173283359E+03  0.00000000000E+00 0. -1.
         23    2    1    2    0    0  0.12594339463E+01  0.86556050360E+02 -0.38463649965E+03  0.40281339843E+03  0.82582450087E+02 0.  0.
          5    1    1    2  502    0  0.82733780316E+00 -0.17947139520E+02 -0.15623470592E+03  0.15731986537E+03  0.41800000000E+01 0. -1.
         -5    1    1    2    0  502 -0.20867717495E+01 -0.68608910840E+02 -0.12556447994E+02  0.69904749833E+02  0.41800000000E+01 0. -1.
        -11    1    3    3    0    0  0.26218322267E+02  0.61628192119E+02 -0.33670177908E+03  0.34329800832E+03  0.00000000000E+00 0. -1.
         11    1    3    3    0    0 -0.24958888320E+02  0.24927858241E+02 -0.47934720571E+02  0.59515390101E+02  0.00000000000E+00 0.  1.
</event>
<event>
 7    1  0.4274778E-006  0.1134177E+03  0.7561462E-02  0.1254369E+00
          1   -1    0    0  501    0  0.00000000000E+00  0.00000000000E+00  0.28385212496E+03  0.28385212496E+03  0.00000000000E+00 0. -1.
         -1   -1    0    0    0  501 -0.00000000000E+00 -0.00000000000E+00 -0.54193794387E+02  0.54193794387E+02  0.00000000000E+00 0.  1.
         23    2    1    2    0    0 -0.30807910704E+02 -0.48322423026E+02  0.12641860249E+03  0.16602665181E+03  0.91098859098E+02 0.  0.
          5    1    1    2  502    0  0.23502187606E+02  0.91007915004E+02  0.70410876891E+02  0.11751577511E+03  0.41800000000E+01 0.  1.
         -5    1    1    2    0  502  0.73057230982E+01 -0.42685491978E+02  0.32828851199E+02  0.54503492424E+02  0.41800000000E+01 0.  1.
        -11    1    3    3    0    0  0.16992227456E+02  0.49197895645E+01  0.77152791885E+02  0.79154869837E+02  0.00000000000E+00 0. -1.
         11    1    3    3    0    0 -0.47800138160E+02 -0.53242212591E+02  0.49265810600E+02  0.86871781976E+02  0.00000000000E+00 0.  1.
</event>
<event>
 7    1  0.4274778E-006  0.2460807E+03  0.7561462E-02  0.1115807E+00
         -1   -1    0    0    0  501 -0.00000000000E+00  0.00000000000E+00  0.86095232350E+02  0.86095232350E+02  0.00000000000E+00 0.  1.
          1   -1    0    0  501    0  0.00000000000E+00 -0.00000000000E+00 -0.94790626458E+03  0.94790626458E+03  0.00000000000E+00 0. -1.
         23    2    1    2    0    0  0.21940976878E+02 -0.23607652080E+03 -0.62994278270E+03  0.67956630065E+03  0.93642497669E+02 0.  0.
          5    1    1    2  502    0 -0.10967284182E+02  0.99695904231E+01  0.13563125417E+02  0.20520838838E+02  0.41800000000E+01 0. -1.
         -5    1    1    2    0  502 -0.10973692697E+02  0.22610693038E+03 -0.24543137495E+03  0.33391435745E+03  0.41800000000E+01 0. -1.
        -11    1    3    3    0    0 -0.30366899131E+02 -0.10225999245E+03 -0.20672336206E+03  0.23262373705E+03  0.00000000000E+00 0. -1.
         11    1    3    3    0    0  0.52307876009E+02 -0.13381652835E+03 -0.42321942063E+03  0.44694256360E+03  0.00000000000E+00 0.  1.
</event>
<event>
 7    1  0.4274778E-006  0.1213106E+03  0.7561462E-02  0.1240951E+00
         -3   -1    0    0    0  501 -0.00000000000E+00  0.00000000000E+00  0.12484534296E+03  0.12484534296E+03  0.00000000000E+00 0.  1.
          3   -1    0    0  501    0  0.00000000000E+00 -0.00000000000E+00 -0.16269305366E+03  0.16269305366E+03  0.00000000000E+00 0. -1.
         23    2    1    2    0    0  0.61173631749E+02  0.67255778874E+02 -0.23833687673E+02  0.13226345322E+03  0.93059246593E+02 0.  0.
          5    1    1    2  502    0 -0.36906478315E+02 -0.81762947924E+02 -0.55000271943E+02  0.10530797742E+03  0.41800000000E+01 0.  1.
         -5    1    1    2    0  502 -0.24267153435E+02  0.14507169050E+02  0.40986248916E+02  0.49966965986E+02  0.41800000000E+01 0.  1.
        -11    1    3    3    0    0  0.56841387550E+02 -0.49924999862E-03 -0.30555226196E+02  0.64533442391E+02  0.00000000000E+00 0.  1.
         11    1    3    3    0    0  0.43322441990E+01  0.67256278124E+02  0.67215385231E+01  0.67730010830E+02  0.00000000000E+00 0. -1.
</event>
<event>
 7    1  0.4274778E-006  0.8896480E+02  0.7561462E-02  0.1305378E+00
          1   -1    0    0  501    0  0.00000000000E+00  0.00000000000E+00  0.64127191127E+02  0.64127191127E+02  0.00000000000E+00 0.  1.
         -1   -1    0    0    0  501 -0.00000000000E+00 -0.00000000000E+00 -0.22042394245E+03  0.22042394245E+03  0.00000000000E+00 0. -1.
         23    2    1    2    0    0  0.15048320871E+02 -0.34586483073E+02 -0.39737379328E+02  0.10946166707E+03  0.94763497554E+02 0.  0.
          5    1    1    2  502    0  0.15774043280E+02 -0.31797900154E+02  0.18881188391E+01  0.35790561443E+02  0.41800000000E+01 0.  1.
         -5    1    1    2    0  502 -0.30822364151E+02  0.66384383227E+02 -0.11844749084E+03  0.13929890507E+03  0.41800000000E+01 0.  1.
        -11    1    3    3    0    0  0.36418564672E+02 -0.13453839887E+02  0.19193454112E+02  0.43309425547E+02  0.00000000000E+00 0.  1.
         11    1    3    3    0    0 -0.21370243801E+02 -0.21132643186E+02 -0.58930833440E+02  0.66152241519E+02  0.00000000000E+00 0. -1.
</event>
<event>
 7    1  0.4274778E-006  0.2240275E+03  0.7561462E-02  0.1130916E+00
          3   -1    0    0  501    0  0.00000000000E+00  0.00000000000E+00  0.36786087120E+03  0.36786087120E+03  0.00000000000E+00 0. -1.
         -3   -1    0    0    0  501 -0.00000000000E+00 -0.00000000000E+00 -0.24991009434E+03  0.24991009434E+03  0.00000000000E+00 0.  1.
         23    2    1    2    0    0  0.10892759420E+03  0.19363804958E+03  0.23627609645E+03  0.33668646318E+03  0.90390628465E+02 0.  0.
          5    1    1    2  502    0 -0.59811800629E+02 -0.13974195742E+03 -0.13810404774E+03  0.20541535133E+03  0.41800000000E+01 0. -1.
         -5    1    1    2    0  502 -0.49115793575E+02 -0.53896092164E+02  0.19778728157E+02  0.75669151023E+02  0.41800000000E+01 0. -1.
        -11    1    3    3    0    0  0.68767371043E+02  0.10334731129E+03  0.68000184904E+02  0.14154025299E+03  0.00000000000E+00 0.  1.
         11    1    3    3    0    0  0.40160223160E+02  0.90290738295E+02  0.16827591154E+03  0.19514621019E+03  0.00000000000E+00 0. -1.
</event>
<event>
 7    1  0.4274778E-006  0.9941376E+02  0.7561462E-02  0.1281534E+00
         -1   -1    0    0    0  501 -0.00000000000E+00  0.00000000000E+00  0.85954877475E+02  0.85954877475E+02  0.00000000000E+00 0.  1.
          1   -1    0    0  501    0  0.00000000000E+00 -0.00000000000E+00 -0.30600782154E+03  0.30600782154E+03  0.00000000000E+00 0. -1.
         23    2    1    2    0    0  0.40812450763E+02  0.53299778046E+02 -0.22037286886E+03  0.24999587772E+03  0.97093846718E+02 0.  0.
          5    1    1    2  502    0  0.31069111138E+02 -0.17853260835E+02 -0.38546938997E+02  0.52795525335E+02  0.41800000000E+01 0. -1.
         -5    1    1    2    0  502 -0.71881561901E+02 -0.35446517211E+02  0.38866863786E+02  0.89171295966E+02  0.41800000000E+01 0. -1.
        -11    1    3    3    0    0  0.40279656244E+02  0.13192224691E+02 -0.22282405062E+02  0.47885186381E+02  0.00000000000E+00 0.  1.
         11    1    3    3    0    0  0.53279451933E+00  0.40107553355E+02 -0.19809046379E+03  0.20211069134E+03  0.00000000000E+00 0. -1.
</event>
<event>
 7    1  0.4274778E-006  0.8949761E+02  0.7561462E-02  0.1304073E+00
         -2   -1    0    0    0  501 -0.00000000000E+00  0.00000000000E+00  0.30209608052E+02  0.30209608052E+02  0.00000000000E+00 0.  1.
          2   -1    0    0  501    0  0.00000000000E+00 -0.00000000000E+00 -0.39549851504E+03  0.39549851504E+03  0.00000000000E+00 0. -1.
         23    2    1    2    0    0  0.78355126295E+01 -0.44262058148E+01 -0.17939338800E+03  0.20146113158E+03  0.91233838697E+02 0.  0.
          5    1    1    2  502    0  0.19230971930E+02 -0.43132137649E+02 -0.23670386055E+02  0.52990293031E+02  0.41800000000E+01 0. -1.
         -5    1    1    2    0  502 -0.27066484560E+02  0.47558343464E+02 -0.16222513294E+03  0.17125669848E+03  0.41800000000E+01 0. -1.
        -11    1    3    3    0    0  0.41235930193E+02 -0.10968771835E+02 -0.41842882000E+02  0.59762385064E+02  0.00000000000E+00 0.  1.
         11    1    3    3    0    0 -0.33400417563E+02  0.65425660200E+01 -0.13755050600E+03  0.14169874651E+03  0.00000000000E+00 0. -1.
</event>
<event>
 7    1  0.4274778E-006  0.1034946E+03  0.7561462E-02  0.1273114E+00
          2   -1    0    0  501    0  0.00000000000E+00  0.00000000000E+00  0.77126380539E+03  0.77126380539E+03  0.00000000000E+00 0. -1.
         -2   -1    0    0    0  501 -0.00000000000E+00 -0.00000000000E+00 -0.21923909339E+02  0.21923909339E+02  0.00000000000E+00 0.  1.
         23    2    1    2    0    0 -0.62745293550E+02 -0.26338739891E+02  0.41772487178E+03  0.43229353190E+03  0.88050713415E+02 0.  0.
          5    1    1    2  502    0  0.27544631655E+02  0.61172261659E+02  0.28477786244E+03  0.29260323933E+03  0.41800000000E+01 0. -1.
         -5    1    1    2    0  502  0.35200661895E+02 -0.34833521768E+02  0.46837161830E+02  0.68290943506E+02  0.41800000000E+01 0. -1.
        -11    1    3    3    0    0 -0.65271154255E+00  0.15298468052E+02  0.11250347118E+02  0.19001038587E+02  0.00000000000E+00 0.  1.
         11    1    3    3    0    0 -0.62092582007E+02 -0.41637207943E+02  0.40647452466E+03  0.41329249331E+03  0.00000000000E+00 0. -1.
</event>
<event>
 7    1  0.4274778E-006  0.1124970E+03  0.7561462E-02  0.1256015E+00
          1   -1    0    0  501    0  0.00000000000E+00  0.00000000000E+00  0.13729542018E+03  0.13729542018E+03  0.00000000000E+00 0. -1.
         -1   -1    0    0    0  501 -0.00000000000E+00 -0.00000000000E+00 -0.10209740430E+03  0.10209740430E+03  0.00000000000E+00 0.  1.
         23    2    1    2    0    0  0.60227939088E+01  0.46752796026E+02  0.12614050818E+02  0.10382111176E+03  0.91638479828E+02 0.  0.
          5    1    1    2  502    0 -0.54664160720E+02 -0.59630154769E+02  0.19448003257E+01  0.81025801281E+02  0.41800000000E+01 0.  1.
         -5    1    1    2    0  502  0.48641366811E+02  0.12877358742E+02  0.20639164739E+02  0.54545911437E+02  0.41800000000E+01 0.  1.
        -11    1    3    3    0    0 -0.20248095832E+02  0.60537000859E+02 -0.12386704572E+02  0.65024182486E+02  0.00000000000E+00 0. -1.
         11    1    3    3    0    0  0.26270889741E+02 -0.13784204833E+02  0.25000755390E+02  0.38796929269E+02  0.00000000000E+00 0.  1.
</event>
<event>
 7    1  0.4274778E-006  0.1764451E+03  0.7561462E-02  0.1171288E+00
          2   -1    0    0  501    0  0.00000000000E+00  0.00000000000E+00  0.16251922700E+03  0.16251922700E+03  0.00000000000E+00 0.  1.
         -2   -1    0    0    0  501 -0.00000000000E+00 -0.00000000000E+00 -0.22389952391E+03  0.22389952391E+03  0.00000000000E+00 0. -1.
         23    2    1    2    0    0 -0.10180890113E+03  0.11848442677E+03 -0.34987313761E+02  0.18455875546E+03  0.91837957063E+02 0.  0.
          5    1    1    2  502    0  0.12818896914E+03 -0.85700622773E+02 -0.46822393199E+01  0.15432564375E+03  0.41800000000E+01 0. -1.
         -5    1    1    2    0  502 -0.26380068015E+02 -0.32783803999E+02 -0.21710743829E+02  0.47534351691E+02  0.41800000000E+01 0. -1.
        -11    1    3    3    0    0 -0.34288518667E+02  0.44643953235E+02 -0.59119447135E+02  0.81632677908E+02  0.00000000000E+00 0.  1.
         11    1    3    3    0    0 -0.67520382461E+02  0.73840473537E+02  0.24132133374E+02  0.10292607756E+03  0.00000000000E+00 0. -1.
</event>
<event>
 7    1  0.4274778E-006  0.1431350E+03  0.7561462E-02  0.1209172E+00
         -3   -1    0    0    0  501 -0.00000000000E+00  0.00000000000E+00  0.84050528462E+02  0.84050528462E+02  0.00000000000E+00 0.  1.
          3   -1    0    0  501    0  0.00000000000E+00 -0.00000000000E+00 -0.33792241196E+03  0.33792241196E+03  0.00000000000E+00 0. -1.
         23    2    1    2    0    0  0.88566983076E+02  0.67959705000E+02 -0.19968914013E+03  0.24577651749E+03  0.89820442380E+02 0.  0.
          5    1    1    2  502    0 -0.10283784027E+03 -0.88821664279E+02 -0.61987000734E+02  0.14941475863E+03  0.41800000000E+01 0.  1.
         -5    1    1    2    0  502  0.14270857192E+02  0.20861959278E+02  0.78042573623E+01  0.26781664304E+02  0.41800000000E+01 0.  1.
        -11    1    3    3    0    0  0.45406485295E+02  0.67727122372E+02 -0.18143213784E+03  0.19891287704E+03  0.00000000000E+00 0. -1.
         11    1    3    3    0    0  0.43160497782E+02  0.23258262824E+00 -0.18257002286E+02  0.46863640446E+02  0.00000000000E+00 0.  1.
</event>
<event>
 7    1  0.4274778E-006  0.1074916E+03  0.7561462E-02  0.1265287E+00
          2   -1    0    0  501    0  0.00000000000E+00  0.00000000000E+00  0.15839793767E+03  0.15839793767E+03  0.00000000000E+00 0. -1.
         -2   -1    0    0    0  501 -0.00000000000E+00 -0.00000000000E+00 -0.90082154026E+02  0.90082154026E+02  0.00000000000E+00 0.  1.
         23    2    1    2    0    0  0.38371211876E+02  0.17547542935E+02  0.60065456453E+02  0.11621009948E+03  0.90092519107E+02 0.  0.
          5    1    1    2  502    0 -0.63318687828E+02  0.32053400380E+02  0.22911892532E+02  0.74693399464E+02  0.41800000000E+01 0.  1.
         -5    1    1    2    0  502  0.24947475952E+02 -0.49600943315E+02 -0.14661565343E+02  0.57576592748E+02  0.41800000000E+01 0.  1.
        -11    1    3    3    0    0  0.26994595416E+02 -0.29395575967E+02  0.54554985798E+02  0.67594781926E+02  0.00000000000E+00 0. -1.
         11    1    3    3    0    0  0.11376616459E+02  0.46943118902E+02  0.55104706543E+01  0.48615317557E+02  0.00000000000E+00 0.  1.
</event>
<event>
 7    1  0.4274778E-006  0.1460986E+03  0.7561462E-02  0.1205351E+00
          1   -1    0    0  501    0  0.00000000000E+00  0.00000000000E+00  0.23332510204E+03  0.23332510204E+03  0.00000000000E+00 0. -1.
         -1   -1    0    0    0  501 -0.00000000000E+00 -0.00000000000E+00 -0.96616774784E+02  0.96616774784E+02  0.00000000000E+00 0.  1.
         23    2    1    2    0    0  0.65517870849E+02  0.78859001505E+02  0.53444049715E+02  0.14802843733E+03  0.92438186318E+02 0.  0.
          5    1    1    2  502    0 -0.97574931221E+02 -0.35740040266E+02  0.35469547086E+02  0.10988074832E+03  0.41800000000E+01 0.  1.
         -5    1    1    2    0  502  0.32057060372E+02 -0.43118961239E+02  0.47794730450E+02  0.72032691167E+02  0.41800000000E+01 0.  1.
        -11    1    3    3    0    0  0.28747395205E+02 -0.15766921410E+02  0.28612625306E+02  0.43516558558E+02  0.00000000000E+00 0. -1.
         11    1    3    3    0    0  0.36770475644E+02  0.94625922915E+02  0.24831424409E+02  0.10451187877E+03  0.00000000000E+00 0.  1.
</event>
<event>
 7    1  0.4274778E-006  0.1352508E+03  0.7561462E-02  0.1219866E+00
          1   -1    0    0  501    0  0.00000000000E+00  0.00000000000E+00  0.12077667818E+03  0.12077667818E+03  0.00000000000E+00 0. -1.
         -1   -1    0    0    0  501 -0.00000000000E+00 -0.00000000000E+00 -0.16692514345E+03  0.16692514345E+03  0.00000000000E+00 0.  1.
         23    2    1    2    0    0  0.65606549797E+02 -0.62370461641E+02 -0.33311958061E+02  0.13276304615E+03  0.91225248755E+02 0.  0.
          5    1    1    2  502    0  0.27432093655E+02  0.45673623360E+02 -0.25963267428E+02  0.59415177258E+02  0.41800000000E+01 0.  1.
         -5    1    1    2    0  502 -0.93038643452E+02  0.16696838281E+02  0.13126760225E+02  0.95523598225E+02  0.41800000000E+01 0.  1.
        -11    1    3    3    0    0  0.83065683510E+02 -0.35356956131E+02 -0.41818498447E+02  0.99492758210E+02  0.00000000000E+00 0.  1.
         11    1    3    3    0    0 -0.17459133714E+02 -0.27013505510E+02  0.85065403860E+01  0.33270287935E+02  0.00000000000E+00 0. -1.
</event>
<event>
 7    1  0.4274778E-006  0.1352765E+03  0.7561462E-02  0.1219830E+00
          1   -1    0    0  501    0  0.00000000000E+00  0.00000000000E+00  0.19662737404E+03  0.19662737404E+03  0.00000000000E+00 0. -1.
         -1   -1    0    0    0  501 -0.00000000000E+00 -0.00000000000E+00 -0.10339079670E+03  0.10339079670E+03  0.00000000000E+00 0.  1.
         23    2    1    2    0    0 -0.82588855799E+02 -0.19115561533E+02  0.81243012972E+02  0.14843596120E+03  0.90810151560E+02 0.  0.
          5    1    1    2  502    0  0.63812911003E+02 -0.48823846332E+02  0.81273820045E+01  0.80866447428E+02  0.41800000000E+01 0. -1.
         -5    1    1    2    0  502  0.18775944796E+02  0.67939407866E+02  0.38661823668E+01  0.70715762106E+02  0.41800000000E+01 0. -1.
        -11    1    3    3    0    0  0.65796817438E+01 -0.29031495969E+02  0.39556938309E+02  0.49506275748E+02  0.00000000000E+00 0.  1.
         11    1    3    3    0    0 -0.89168537543E+02  0.99159344362E+01  0.41686074663E+02  0.98929685455E+02  0.00000000000E+00 0. -1.
</event>
<event>
 7    1  0.4274778E-006  0.1255295E+03  0.7561462E-02  0.1234244E+00
          2   -1    0    0  501    0  0.00000000000E+00  0.00000000000E+00  0.85314833878E+02  0.85314833878E+02  0.00000000000E+00 0. -1.
         -2   -1    0    0    0  501 -0.00000000000E+00 -0.00000000000E+00 -0.30342123240E+03  0.30342123240E+03  0.00000000000E+00 0.  1.
         23    2    1    2    0    0  0.26647521978E+02  0.91771986383E+02 -0.16225035516E+02  0.13272916937E+03  0.90672998800E+02 0.  0.
          5    1    1    2  502    0 -0.74360010572E+02 -0.66678664097E+02 -0.10445141750E+03  0.14457878971E+03  0.41800000000E+01 0. -1.
         -5    1    1    2    0  502  0.47712488594E+02 -0.25093322286E+02 -0.97429945506E+02  0.11142810719E+03  0.41800000000E+01 0. -1.
        -11    1    3    3    0    0  0.15114771156E+02  0.75981246239E+02 -0.51058685959E+02  0.92782517206E+02  0.00000000000E+00 0.  1.
         11    1    3    3    0    0  0.11532750822E+02  0.15790740144E+02  0.34833650443E+02  0.39946652163E+02  0.00000000000E+00 0. -1.
</event>
<event>
 7    1  0.4274778E-006  0.7905478E+02  0.7561462E-02  0.1331755E+00
         -1   -1    0    0    0  501 -0.00000000000E+00  0.00000000000E+00  0.36877718222E+02  0.36877718222E+02  0.00000000000E+00 0.  1.
          1   -1    0    0  501    0  0.00000000000E+00 -0.00000000000E+00 -0.44721931603E+03  0.44721931603E+03  0.00000000000E+00 0. -1.
         23    2    1    2    0    0 -0.45810007745E+02 -0.51505480343E+02 -0.20159317553E+03  0.23116401956E+03  0.89697403546E+02 0.  0.
          5    1    1    2  502    0  0.37078423339E+02  0.46132625141E+02 -0.18198843182E+02  0.62062056628E+02  0.41800000000E+01 0. -1.
         -5    1    1    2    0  502  0.87315844056E+01  0.53728552021E+01 -0.19054957909E+03  0.19087095806E+03  0.41800000000E+01 0. -1.
        -11    1    3    3    0    0 -0.81762844296E+01 -0.49334943008E+02 -0.18186966972E+03  0.18861963045E+03  0.00000000000E+00 0. -1.
         11    1    3    3    0    0 -0.37633723315E+02 -0.21705373354E+01 -0.19723505813E+02  0.42544389106E+02  0.00000000000E+00 0.  1.
</event>
<event>
 7    1  0.4274778E-006  0.1344952E+03  0.7561462E-02  0.1220934E+00
          1   -1    0    0  501    0  0.00000000000E+00  0.00000000000E+00  0.26649860088E+02  0.26649860088E+02  0.00000000000E+00 0. -1.
         -1   -1    0    0    0  501 -0.00000000000E+00 -0.00000000000E+00 -0.13143699392E+04  0.13143699392E+04  0.00000000000E+00 0.  1.
         23    2    1    2    0    0 -0.10241543251E+03  0.78991519744E+02 -0.27177973867E+03  0.30926830775E+03  0.71092044685E+02 0.  0.
          5    1    1    2  502    0  0.10603366225E+03 -0.79224926466E+02 -0.54784350915E+03  0.56362195612E+03  0.41800000000E+01 0. -1.
         -5    1    1    2    0  502 -0.36182297403E+01  0.23340672155E+00 -0.46809683125E+03  0.46812953538E+03  0.41800000000E+01 0. -1.
        -11    1    3    3    0    0 -0.73222207387E+02  0.43869013561E+02 -0.23687867764E+03  0.25178858180E+03  0.00000000000E+00 0.  1.
         11    1    3    3    0    0 -0.29193225126E+02  0.35122506184E+02 -0.34901061031E+02  0.57479725947E+02  0.00000000000E+00 0. -1.
</event>
<event>
 7    1  0.4274778E-006  0.1876126E+03  0.7561462E-02  0.1160632E+00
         -2   -1    0    0    0  501 -0.00000000000E+00  0.00000000000E+00  0.47632462761E+03  0.47632462761E+03  0.00000000000E+00 0.  1.
          2   -1    0    0  501    0  0.00000000000E+00 -0.00000000000E+00 -0.84603101914E+02  0.84603101914E+02  0.00000000000E+00 0. -1.
         23    2    1    2    0    0  0.36844260627E+01  0.16674088620E+03  0.15239676076E+03  0.24353335431E+03  0.90926474933E+02 0.  0.
          5    1    1    2  502    0  0.90080735421E+01 -0.17098134435E+03  0.15212501813E+03  0.22907478920E+03  0.41800000000E+01 0.  1.
         -5    1    1    2    0  502 -0.12692499605E+02  0.42404581494E+01  0.87199746812E+02  0.88319586025E+02  0.41800000000E+01 0.  1.
        -11    1    3    3    0    0 -0.25542461883E+02  0.55781556437E+01  0.22244690065E+02  0.34327240138E+02  0.00000000000E+00 0.  1.
         11    1    3    3    0    0  0.29226887946E+02  0.16116273056E+03  0.13015207069E+03  0.20920611417E+03  0.00000000000E+00 0. -1.
</event>
<event>
 7    1  0.4274778E-006  0.1292087E+03  0.7561462E-02  0.1228635E+00
          2   -1    0    0  501    0  0.00000000000E+00  0.00000000000E+00  0.70644858551E+03  0.70644858551E+03  0.00000000000E+00 0.  1.
         -2   -1    0    0    0  501 -0.00000000000E+00 -0.00000000000E+00 -0.39552982661E+02  0.39552982661E+02  0.00000000000E+00 0. -1.
         23    2    1    2    0    0 -0.68736312331E+02 -0.99175050195E+02  0.39380293818E+03  0.42230140832E+03  0.93259606133E+02 0.  0.
          5    1    1    2  502    0  0.47807241463E+02  0.14588715825E+02  0.21033919788E+03  0.21623693840E+03  0.41800000000E+01 0.  1.
         -5    1    1    2    0  502  0.20929070868E+02  0.84586334370E+02  0.62753466789E+02  0.10746322145E+03  0.41800000000E+01 0.  1.
        -11    1    3    3    0    0 -0.36390027488E+02 -0.60527847573E+02  0.34497392062E+03  0.35212903933E+03  0.00000000000E+00 0.  1.
         11    1    3    3    0    0 -0.32346284843E+02 -0.38647202622E+02  0.48829017559E+02  0.70172368988E+02  0.00000000000E+00 0. -1.
</event>
<event>
 7    1  0.4274778E-006  0.9460363E+02  0.7561462E-02  0.1292071E+00
          1   -1    0    0  501    0  0.00000000000E+00  0.00000000000E+00  0.36691603670E+03  0.36691603670E+03  0.00000000000E+00 0. -1.
         -1   -1    0    0    0  501 -0.00000000000E+00 -0.00000000000E+00 -0.42206419558E+02  0.42206419558E+02  0.00000000000E+00 0.  1.
         23    2    1    2    0    0 -0.30369297232E+02 -0.38281203713E+02  0.19435877513E+03  0.22196579897E+03  0.95423988956E+02 0.  0.
          5    1    1    2  502    0  0.45132821932E+02  0.74316189167E+02  0.11689149322E+03  0.14574279116E+03  0.41800000000E+01 0. -1.
         -5    1    1    2    0  502 -0.14763524700E+02 -0.36034985454E+02  0.13459348792E+02  0.41413866134E+02  0.41800000000E+01 0. -1.
        -11    1    3    3    0    0  0.67832188252E+00 -0.31124419109E+02  0.69894632958E+01  0.31906773303E+02  0.00000000000E+00 0.  1.
         11    1    3    3    0    0 -0.31047619114E+02 -0.71567846043E+01  0.18736931184E+03  0.19005902567E+03  0.00000000000E+00 0. -1.
</event>
<event>
 7    1  0.4274778E-006  0.1372464E+03  0.7561462E-02  0.1217083E+00
          2   -1    0    0  501    0  0.00000000000E+00  0.00000000000E+00  0.40642663712E+03  0.40642663712E+03  0.00000000000E+00 0. -1.
         -2   -1    0    0    0  501 -0.00000000000E+00 -0.00000000000E+00 -0.61050544258E+02  0.61050544258E+02  0.00000000000E+00 0.  1.
         23    2    1    2    0    0 -0.82361082676E+02 -0.41288152469E+02  0.25899405064E+03  0.28972076652E+03  0.91499425206E+02 0.  0.
          5    1    1    2  502    0  0.92464176750E+02  0.74373837928E+02  0.54978104691E+02  0.13084783585E+03  0.41800000000E+01 0. -1.
         -5    1    1    2    0  502 -0.10103094074E+02 -0.33085685459E+02  0.31403937524E+02  0.46908579004E+02  0.41800000000E+01 0. -1.
        -11    1    3    3    0    0 -0.26220568591E+02  0.23480162216E+02  0.33932737036E+02  0.48890355671E+02  0.00000000000E+00 0.  1.
         11    1    3    3    0    0 -0.56140514085E+02 -0.64768314685E+02  0.22506131361E+03  0.24083041085E+03  0.00000000000E+00 0. -1.
</event>
<event>
 7    1  0.4274778E-006  0.9421126E+02  0.7561462E-02  0.1292962E+00
          3   -1    0    0  501    0  0.00000000000E+00  0.00000000000E+00  0.22172441319E+02  0.22172441319E+02  0.00000000000E+00 0. -1.
         -3   -1    0    0    0  501 -0.00000000000E+00 -0.00000000000E+00 -0.64546372839E+03  0.64546372839E+03  0.00000000000E+00 0.  1.
         23    2    1    2    0    0  0.36743171464E+02 -0.78551881071E+01 -0.16951117662E+03  0.19543417323E+03  0.89714616641E+02 0.  0.
          5    1    1    2  502    0 -0.45557778774E+02 -0.49904175657E+02 -0.30235125453E+03  0.30983816981E+03  0.41800000000E+01 0. -1.
         -5    1    1    2    0  502  0.88146073104E+01  0.57759363764E+02 -0.15142885592E+03  0.16236382667E+03  0.41800000000E+01 0. -1.
        -11    1    3    3    0    0  0.16757556853E+02 -0.28720341242E+02 -0.16227837857E+03  0.16565007052E+03  0.00000000000E+00 0.  1.
         11    1    3    3    0    0  0.19985614611E+02  0.20865153135E+02 -0.72327980513E+01  0.29784102712E+02  0.00000000000E+00 0. -1.
</event>
<event>
 7    1  0.4274778E-006  0.1213047E+03  0.7561462E-02  0.1240960E+00
          1   -1    0    0  501    0  0.00000000000E+00  0.00000000000E+00  0.22317281749E+03  0.22317281749E+03  0.00000000000E+00 0. -1.
         -1   -1    0    0    0  501 -0.00000000000E+00 -0.00000000000E+00 -0.96869853497E+02  0.96869853497E+02  0.00000000000E+00 0.  1.
         23    2    1    2    0    0  0.85522610769E+02 -0.97217321470E+01  0.11069217458E+03  0.16740064858E+03  0.91441733370E+02 0.  0.
          5    1    1    2  502    0 -0.95664054845E+02 -0.96218682320E+01  0.52456904084E+02  0.10960561538E+03  0.41800000000E+01 0.  1.
         -5    1    1    2    0  502  0.10141444076E+02  0.19343600379E+02 -0.36846114670E+02  0.43036407027E+02  0.41800000000E+01 0.  1.
        -11    1    3    3    0    0 -0.19065750264E+02 -0.32999115865E+01  0.88463543249E+01  0.21275578358E+02  0.00000000000E+00 0.  1.
         11    1    3    3    0    0  0.10458836103E+03 -0.64218205605E+01  0.10184582026E+03  0.14612507022E+03  0.00000000000E+00 0. -1.
</event>
<event>
 6    1  0.4274778E-006  0.2698733E+03  0.7561462E-02  0.1101352E+00
         -1   -1    0    0    0  501 -0.00000000000E+00  0.00000000000E+00  0.58866263190E+03  0.58866263190E+03  0.00000000000E+00 0.  1.
          1   -1    0    0  501    0  0.00000000000E+00 -0.00000000000E+00 -0.18695254458E+03  0.18695254458E+03  0.00000000000E+00 0. -1.
          5    1    1    2  502    0 -0.17514509575E+03 -0.65952434970E+02  0.14178839360E+03  0.23483387576E+03  0.41800000000E+01 0. -1.
         -5    1    1    2    0  502  0.28282781699E-01 -0.49261813067E+02 -0.23498048769E+02  0.54738996360E+02  0.41800000000E+01 0.  1.
        -11    1    1    2    0    0  0.62628384821E+02  0.16767533486E+03  0.31106062255E+03  0.35888165655E+03  0.00000000000E+00 0.  1.
         11    1    1    2    0    0  0.11248842815E+03 -0.52461086827E+02 -0.27640880059E+02  0.12716064780E+03  0.00000000000E+00 0. -1.
</event>
<event>
 7    1  0.4274778E-006  0.1176180E+03  0.7561462E-02  0.1247079E+00
         -2   -1    0    0    0  501 -0.00000000000E+00  0.00000000000E+00  0.40255652417E+02  0.40255652417E+02  0.00000000000E+00 0.  1.
          2   -1    0    0  501    0  0.00000000000E+00 -0.00000000000E+00 -0.46075266298E+03  0.46075266298E+03  0.00000000000E+00 0. -1.
         23    2    1    2    0    0 -0.78721027199E+02  0.10458806224E+02 -0.22823360109E+03  0.25827528795E+03  0.91154599159E+02 0.  0.
          5    1    1    2  502    0  0.61456310080E+02 -0.62716156995E+02 -0.14732431075E+03  0.17155791831E+03  0.41800000000E+01 0.  1.
         -5    1    1    2    0  502  0.17264717118E+02  0.52257350771E+02 -0.44939098723E+02  0.71175109138E+02  0.41800000000E+01 0.  1.
        -11    1    3    3    0    0 -0.19827903966E+02  0.24572189814E+02 -0.17443588902E+03  0.17727046473E+03  0.00000000000E+00 0. -1.
         11    1    3    3    0    0 -0.58893123233E+02 -0.14113383590E+02 -0.53797712069E+02  0.81004823217E+02  0.00000000000E+00 0.  1.
</event>
<event>
 7    1  0.4274778E-006  0.2184164E+03  0.7561462E-02  0.1135069E+00
         -3   -1    0    0    0  501 -0.00000000000E+00  0.00000000000E+00  0.15427127345E+03  0.15427127345E+03  0.00000000000E+00 0.  1.
          3   -1    0    0  501    0  0.00000000000E+00 -0.00000000000E+00 -0.37141951275E+03  0.37141951275E+03  0.00000000000E+00 0. -1.
         23    2    1    2    0    0  0.20819816353E+03  0.19111635663E+02 -0.13598730227E+03  0.26889081553E+03  0.10048877740E+03 0.  0.
          5    1    1    2  502    0 -0.21175890407E+03 -0.53408852826E+01 -0.43446400083E+02  0.21627625988E+03  0.41800000000E+01 0.  1.
         -5    1    1    2    0  502  0.35607405374E+01 -0.13770750380E+02 -0.37714536945E+02  0.40523710790E+02  0.41800000000E+01 0.  1.
        -11    1    3    3    0    0  0.82204585695E+02  0.17948963935E+02 -0.11288184157E+03  0.14079087105E+03  0.00000000000E+00 0. -1.
         11    1    3    3    0    0  0.12599357784E+03  0.11626717276E+01 -0.23105460702E+02  0.12809994448E+03  0.00000000000E+00 0.  1.
</event>
<event>
 7    1  0.4274778E-006  0.1435336E+03  0.7561462E-02  0.1208652E+00
         -2   -1    0    0    0  501 -0.00000000000E+00  0.00000000000E+00  0.12778034109E+03  0.12778034109E+03  0.00000000000E+00 0.  1.
          2   -1    0    0  501    0  0.00000000000E+00 -0.00000000000E+00 -0.32914747367E+03  0.32914747367E+03  0.00000000000E+00 0. -1.
         23    2    1    2    0    0  0.33860392853E+02 -0.11117597297E+03 -0.24066349339E+03  0.28171815248E+03  0.89104305271E+02 0.  0.
          5    1    1    2  502    0 -0.80121584264E+02  0.65301469995E+02  0.37067521658E+02  0.10988732325E+03  0.41800000000E+01 0. -1.
         -5    1    1    2    0  502  0.46261191411E+02  0.45874502973E+02  0.22288391472E+01  0.65322339041E+02  0.41800000000E+01 0. -1.
        -11    1    3    3    0    0  0.31748735214E+02 -0.67335876512E+02 -0.59464590521E+02  0.95279273607E+02  0.00000000000E+00 0.  1.
         11    1    3    3    0    0  0.21116576391E+01 -0.43840096456E+02 -0.18119890287E+03  0.18643887887E+03  0.00000000000E+00 0. -1.
</event>
<event>
 7    1  0.4274778E-006  0.1344748E+03  0.7561462E-02  0.1220963E+00
          2   -1    0    0  501    0  0.00000000000E+00  0.00000000000E+00  0.28488203231E+03  0.28488203231E+03  0.00000000000E+00 0. -1.
         -2   -1    0    0    0  501 -0.00000000000E+00 -0.00000000000E+00 -0.76215103433E+02  0.76215103433E+02  0.00000000000E+00 0.  1.
         23    2    1    2    0    0 -0.66569250085E+02 -0.76786000188E+02  0.10779755470E+03  0.17096755418E+03  0.85334851623E+02 0.  0.
          5    1    1    2  502    0  0.27609807818E+01  0.76271439788E+02  0.10039494504E+03  0.12618071537E+03  0.41800000000E+01 0. -1.
         -5    1    1    2    0  502  0.63808269303E+02  0.51456040056E+00  0.47442913797E+00  0.63948866189E+02  0.41800000000E+01 0. -1.
        -11    1    3    3    0    0  0.17483366530E+02 -0.22554710124E+02  0.79292565807E+01  0.29618510494E+02  0.00000000000E+00 0.  1.
         11    1    3    3    0    0 -0.84052616615E+02 -0.54231290065E+02  0.99868298117E+02  0.14134904369E+03  0.00000000000E+00 0. -1.
</event>
<event>
 7    1  0.4274778E-006  0.1677775E+03  0.7561462E-02  0.1180186E+00
         -1   -1    0    0    0  501 -0.00000000000E+00  0.00000000000E+00  0.20790420137E+03  0.20790420137E+03  0.00000000000E+00 0.  1.
          1   -1    0    0  501    0  0.00000000000E+00 -0.00000000000E+00 -0.21823750331E+03  0.21823750331E+03  0.00000000000E+00 0. -1.
         23    2    1    2    0    0  0.12444491920E+03  0.69358296348E+02 -0.12059473131E+03  0.20681927349E+03  0.89073068206E+02 0.  0.
          5    1    1    2  502    0 -0.53370403773E+01 -0.55959335000E+02 -0.57630294911E-01  0.56368492040E+02  0.41800000000E+01 0.  1.
         -5    1    1    2    0  502 -0.11910787882E+03 -0.13398961348E+02  0.11031905966E+03  0.16295393916E+03  0.41800000000E+01 0.  1.
        -11    1    3    3    0    0 -0.35737668335E+01  0.22728849410E+02 -0.46134823041E+02  0.51553800072E+02  0.00000000000E+00 0. -1.
         11    1    3    3    0    0  0.12801868603E+03  0.46629446938E+02 -0.74459908265E+02  0.15526547341E+03  0.00000000000E+00 0.  1.
</event>
<event>
 7    1  0.4274778E-006  0.1496051E+03  0.7561462E-02  0.1200959E+00
          1   -1    0    0  501    0  0.00000000000E+00  0.00000000000E+00  0.45307956520E+03  0.45307956520E+03  0.00000000000E+00 0. -1.
         -1   -1    0    0    0  501 -0.00000000000E+00 -0.00000000000E+00 -0.10148327647E+03  0.10148327647E+03  0.00000000000E+00 0.  1.
         23    2    1    2    0    0 -0.42494558037E+02  0.11713240676E+03  0.34480154058E+03  0.37787122173E+03  0.91502839581E+02 0.  0.
          5    1    1    2  502    0 -0.43780684758E+01 -0.10351624679E+03 -0.37875834699E+02  0.11039398574E+03  0.41800000000E+01 0. -1.
         -5    1    1    2    0  502  0.46872626513E+02 -0.13616159964E+02  0.44670582846E+02  0.66297634197E+02  0.41800000000E+01 0. -1.
        -11    1    3    3    0    0 -0.45060106595E+00  0.10176176482E+03  0.17666953511E+03  0.20388179040E+03  0.00000000000E+00 0.  1.
         11    1    3    3    0    0 -0.42043956971E+02  0.15370641933E+02  0.16813200547E+03  0.17398943133E+03  0.00000000000E+00 0. -1.
</event>
<event>
 7    1  0.4274778E-006  0.1264929E+03  0.7561462E-02  0.1232754E+00
          1   -1    0    0  501    0  0.00000000000E+00  0.00000000000E+00  0.15780417043E+03  0.15780417043E+03  0.00000000000E+00 0. -1.
         -1   -1    0    0    0  501 -0.00000000000E+00 -0.00000000000E+00 -0.10437002724E+03  0.10437002724E+03  0.00000000000E+00 0.  1.
         23    2    1    2    0    0 -0.31957704780E+02  0.57903730944E+02  0.37430050655E+02  0.11977576589E+03  0.92580173095E+02 0.  0.
          5    1    1    2  502    0  0.61260803422E+02 -0.82316363966E+02  0.16584028793E+02  0.10402582479E+03  0.41800000000E+01 0. -1.
         -5    1    1    2    0  502 -0.29303098642E+02  0.24412633022E+02 -0.57993626027E+00  0.38372606989E+02  0.41800000000E+01 0. -1.
        -11    1    3    3    0    0  0.28509822755E+02  0.39503876369E+02  0.27052810084E+02  0.55724507850E+02  0.00000000000E+00 0. -1.
         11    1    3    3    0    0 -0.60467527535E+02  0.18399854575E+02  0.10377240571E+02  0.64051258040E+02  0.00000000000E+00 0.  1.
</event>
<event>
 7    1  0.4274778E-006  0.3424035E+03  0.7561462E-02  0.1065777E+00
         -1   -1    0    0    0  501 -0.00000000000E+00  0.00000000000E+00  0.47092044930E+03  0.47092044930E+03  0.00000000000E+00 0.  1.
          1   -1    0    0  501    0  0.00000000000E+00 -0.00000000000E+00 -0.25652145710E+03  0.25652145710E+03  0.00000000000E+00 0. -1.
         23    2    1    2    0    0  0.30832749599E+03 -0.11806821859E+03  0.12500516428E+03  0.36323807275E+03  0.85496534292E+02 0.  0.
          5    1    1    2  502    0 -0.12088309160E+03 -0.11987079870E+02  0.75304531700E+01  0.12178091822E+03  0.41800000000E+01 0.  1.
         -5    1    1    2    0  502 -0.18744440439E+03  0.13005529846E+03  0.81863374750E+02  0.24242291542E+03  0.41800000000E+01 0.  1.
        -11    1    3    3    0    0  0.18306419768E+02  0.65126092565E+01  0.25941661708E+02  0.32411554980E+02  0.00000000000E+00 0.  1.
         11    1    3    3    0    0  0.29002107622E+03 -0.12458082784E+03  0.99063502574E+02  0.33082651777E+03  0.00000000000E+00 0. -1.
</event>
<event>
 7    1  0.4274778E-006  0.1041145E+03  0.7561462E-02  0.1271874E+00
         -1   -1    0    0    0  501 -0.00000000000E+00  0.00000000000E+00  0.58234870742E+03  0.58234870742E+03  0.00000000000E+00 0.  1.
          1   -1    0    0  501    0  0.00000000000E+00 -0.00000000000E+00 -0.24747204037E+02  0.24747204037E+02  0.00000000000E+00 0. -1.
         23    2    1    2    0    0 -0.28441202841E+02 -0.13026837647E+02  0.12836296998E+03  0.15890743859E+03  0.88294515449E+02 0.  0.
          5    1    1    2  502    0 -0.22430347988E+02 -0.45557673483E+02  0.18496833867E+03  0.19185770987E+03  0.41800000000E+01 0. -1.
         -5    1    1    2    0  502  0.50871550829E+02  0.58584511131E+02  0.24427019472E+03  0.25633076300E+03  0.41800000000E+01 0. -1.
        -11    1    3    3    0    0  0.13225707983E+02  0.21647676184E+02  0.87276865206E+02  0.90888901611E+02  0.00000000000E+00 0.  1.
         11    1    3    3    0    0 -0.41666910824E+02 -0.34674513832E+02  0.41086104776E+02  0.68018536979E+02  0.00000000000E+00 0. -1.
</event>
<event>
 7    1  0.4274778E-006  0.3022714E+03  0.7561462E-02  0.1084111E+00
         -2   -1    0    0    0  501 -0.00000000000E+00  0.00000000000E+00  0.25126036963E+03  0.25126036963E+03  0.00000000000E+00 0.  1.
          2   -1    0    0  501    0  0.00000000000E+00 -0.00000000000E+00 -0.43308307557E+03  0.43308307557E+03  0.00000000000E+00 0. -1.
         23    2    1    2    0    0  0.13001701638E+03  0.25955233358E+03 -0.20578331517E+03  0.36733303467E+03  0.91186332012E+02 0.  0.
          5    1    1    2  502    0 -0.13291066223E+03 -0.26791411778E+03  0.91262578477E+01  0.29923900084E+03  0.41800000000E+01 0. -1.
         -5    1    1    2    0  502  0.28936458497E+01  0.83617842042E+01  0.14834351383E+02  0.17771409689E+02  0.41800000000E+01 0. -1.
        -11    1    3    3    0    0  0.60626626232E+02  0.18080621138E+03 -0.89406292903E+02  0.21061804076E+03  0.00000000000E+00 0.  1.
         11    1    3    3    0    0  0.69390390144E+02  0.78746122195E+02 -0.11637702227E+03  0.15671499391E+03  0.00000000000E+00 0. -1.
</event>
<event>
 7    1  0.4274778E-006  0.1149390E+03  0.7561462E-02  0.1251688E+00
         -1   -1    0    0    0  501 -0.00000000000E+00  0.00000000000E+00  0.76648241344E+02  0.76648241344E+02  0.00000000000E+00 0. -1.
          1   -1    0    0  501    0  0.00000000000E+00 -0.00000000000E+00 -0.24673048245E+03  0.24673048245E+03  0.00000000000E+00 0.  1.
         23    2    1    2    0    0 -0.30545888643E+02  0.36192658921E+02 -0.13124987437E+03  0.18409890031E+03  0.12009544413E+03 0.  0.
          5    1    1    2  502    0 -0.28213221209E+02 -0.33460052934E+02 -0.61927526079E+02  0.75947691733E+02  0.41800000000E+01 0. -1.
         -5    1    1    2    0  502  0.58759109852E+02 -0.27326059867E+01  0.23095159347E+02  0.63332131745E+02  0.41800000000E+01 0. -1.
        -11    1    3    3    0    0 -0.67588770437E+02  0.53359717624E+02 -0.10394777441E+03  0.13498385518E+03  0.00000000000E+00 0.  1.
         11    1    3    3    0    0  0.37042881794E+02 -0.17167058703E+02 -0.27302099956E+02  0.49115045130E+02  0.00000000000E+00 0. -1.
</event>
<event>
 7    1  0.4274778E-006  0.1176782E+03  0.7561462E-02  0.1246977E+00
         -4   -1    0    0    0  501 -0.00000000000E+00  0.00000000000E+00  0.17671781620E+03  0.17671781620E+03  0.00000000000E+00 0.  1.
          4   -1    0    0  501    0  0.00000000000E+00 -0.00000000000E+00 -0.16029658226E+03  0.16029658226E+03  0.00000000000E+00 0. -1.
         23    2    1    2    0    0  0.94063521849E+02 -0.20729513808E+02 -0.77732879790E+02  0.15319501840E+03  0.90269896296E+02 0.  0.
          5    1    1    2  502    0 -0.68505567189E+02  0.59809547075E+02  0.15635768565E+02  0.92369607100E+02  0.41800000000E+01 0. -1.
         -5    1    1    2    0  502 -0.25557954659E+02 -0.39080033266E+02  0.78518345162E+02  0.91449772954E+02  0.41800000000E+01 0. -1.
        -11    1    3    3    0    0  0.49195154662E+02 -0.33098929609E+01  0.12554584430E+02  0.50879624839E+02  0.00000000000E+00 0.  1.
         11    1    3    3    0    0  0.44868367187E+02 -0.17419620847E+02 -0.90287464220E+02  0.10231539356E+03  0.00000000000E+00 0. -1.
</event>
<event>
 7    1  0.4274778E-006  0.6567890E+02  0.7561462E-02  0.1375436E+00
          1   -1    0    0  501    0  0.00000000000E+00  0.00000000000E+00  0.42694022432E+02  0.42694022432E+02  0.00000000000E+00 0.  1.
         -1   -1    0    0    0  501 -0.00000000000E+00 -0.00000000000E+00 -0.30920023313E+03  0.30920023313E+03  0.00000000000E+00 0. -1.
         23    2    1    2    0    0 -0.20386121785E+02  0.29894506619E+02 -0.93058481130E+02  0.13500772075E+03  0.90873143807E+02 0.  0.
          5    1    1    2  502    0 -0.69571023852E+01 -0.18553688728E+02  0.15553983120E+02  0.25535062755E+02  0.41800000000E+01 0. -1.
         -5    1    1    2    0  502  0.27343224170E+02 -0.11340817891E+02 -0.18900171269E+03  0.19135147206E+03  0.41800000000E+01 0. -1.
        -11    1    3    3    0    0 -0.38549318850E+02 -0.78348126404E+01 -0.79168118788E+01  0.40126178279E+02  0.00000000000E+00 0.  1.
         11    1    3    3    0    0  0.18163197066E+02  0.37729319259E+02 -0.85141669251E+02  0.94881542474E+02  0.00000000000E+00 0. -1.
</event>
<event>
 7    1  0.4274778E-006  0.1005677E+03  0.7561462E-02  0.1279107E+00
         -1   -1    0    0    0  501 -0.00000000000E+00  0.00000000000E+00  0.16700936345E+04  0.16700936345E+04  0.00000000000E+00 0.  1.
          1   -1    0    0  501    0  0.00000000000E+00 -0.00000000000E+00 -0.11056065860E+02  0.11056065860E+02  0.00000000000E+00 0. -1.
         23    2    1    2    0    0  0.42079915371E+02 -0.45912239105E+02  0.39880331013E+03  0.41319209618E+03  0.88345770722E+02 0.  0.
          5    1    1    2  502    0  0.10960132439E+02  0.38899548189E+02  0.10562866912E+04  0.10570678057E+04  0.41800000000E+01 0.  1.
         -5    1    1    2    0  502 -0.53040047810E+02  0.70126909152E+01  0.20394756731E+03  0.21088979851E+03  0.41800000000E+01 0.  1.
        -11    1    3    3    0    0  0.15152701023E+02  0.25977436991E+02  0.86006363082E+02  0.91112710812E+02  0.00000000000E+00 0. -1.
         11    1    3    3    0    0  0.26927214348E+02 -0.71889676096E+02  0.31279694704E+03  0.32207938537E+03  0.00000000000E+00 0.  1.
</event>
<event>
 7    1  0.4274778E-006  0.1476974E+03  0.7561462E-02  0.1203331E+00
          2   -1    0    0  501    0  0.00000000000E+00  0.00000000000E+00  0.41950305812E+03  0.41950305812E+03  0.00000000000E+00 0. -1.
         -2   -1    0    0    0  501 -0.00000000000E+00 -0.00000000000E+00 -0.67697170429E+02  0.67697170429E+02  0.00000000000E+00 0.  1.
         23    2    1    2    0    0 -0.12065744911E+03 -0.14286756329E+02  0.21914922536E+03  0.26809493085E+03  0.95321443220E+02 0.  0.
          5    1    1    2  502    0 -0.17757460419E+02 -0.18089698885E+02  0.16440719266E+01  0.25743736691E+02  0.41800000000E+01 0. -1.
         -5    1    1    2    0  502  0.13841490953E+03  0.32376455215E+02  0.13101259040E+03  0.19336156101E+03  0.41800000000E+01 0. -1.
        -11    1    3    3    0    0 -0.19208195225E+02  0.12054982132E+02  0.12552007439E+03  0.12755221061E+03  0.00000000000E+00 0. -1.
         11    1    3    3    0    0 -0.10144925388E+03 -0.26341738462E+02  0.93629150976E+02  0.14054272024E+03  0.00000000000E+00 0.  1.
</event>
<event>
 7    1  0.4274778E-006  0.1787323E+03  0.7561462E-02  0.1169036E+00
          2   -1    0    0  501    0  0.00000000000E+00  0.00000000000E+00  0.21053996049E+04  0.21053996049E+04  0.00000000000E+00 0. -1.
         -2   -1    0    0    0  501 -0.00000000000E+00 -0.00000000000E+00 -0.17748899903E+02  0.17748899903E+02  0.00000000000E+00 0.  1.
         23    2    1    2    0    0  0.13026502535E+03  0.89961519802E+02  0.86827456696E+03  0.88719259665E+03  0.90265874226E+02 0.  0.
          5    1    1    2  502    0 -0.13974454020E+03 -0.79812831025E+02  0.78496651375E+03  0.80130426470E+03  0.41800000000E+01 0.  1.
         -5    1    1    2    0  502  0.94795148464E+01 -0.10148688777E+02  0.43440962428E+03  0.43465164345E+03  0.41800000000E+01 0.  1.
        -11    1    3    3    0    0 -0.92863726219E+01  0.27609885360E+02  0.12246950214E+03  0.12588614475E+03  0.00000000000E+00 0.  1.
         11    1    3    3    0    0  0.13955139797E+03  0.62351634442E+02  0.74580506482E+03  0.76130645190E+03  0.00000000000E+00 0. -1.
</event>
<event>
 7    1  0.4274778E-006  0.1429440E+03  0.7561462E-02  0.1209422E+00
          1   -1    0    0  501    0  0.00000000000E+00  0.00000000000E+00  0.75972333804E+03  0.75972333804E+03  0.00000000000E+00 0. -1.
         -1   -1    0    0    0  501 -0.00000000000E+00 -0.00000000000E+00 -0.35520014779E+02  0.35520014779E+02  0.00000000000E+00 0.  1.
         23    2    1    2    0    0  0.84627127761E+02  0.55135250008E+02  0.50720933805E+03  0.52517699371E+03  0.91366928201E+02 0.  0.
          5    1    1    2  502    0 -0.11076345947E+03 -0.67410812377E+02  0.15954296846E+03  0.20563120571E+03  0.41800000000E+01 0. -1.
         -5    1    1    2    0  502  0.26136331713E+02  0.12275562369E+02  0.57451016752E+02  0.64435153392E+02  0.41800000000E+01 0. -1.
        -11    1    3    3    0    0 -0.11848676467E+02  0.21972673062E+02  0.41540079221E+02  0.48464086468E+02  0.00000000000E+00 0.  1.
         11    1    3    3    0    0  0.96475804227E+02  0.33162576946E+02  0.46566925883E+03  0.47671290724E+03  0.00000000000E+00 0. -1.
</event>
<event>
 7    1  0.4274778E-006  0.1804651E+03  0.7561462E-02  0.1167354E+00
          1   -1    0    0  501    0  0.00000000000E+00  0.00000000000E+00  0.58995195881E+02  0.58995195881E+02  0.00000000000E+00 0. -1.
         -1   -1    0    0    0  501 -0.00000000000E+00 -0.00000000000E+00 -0.66710785510E+03  0.66710785510E+03  0.00000000000E+00 0.  1.
         23    2    1    2    0    0 -0.14871102443E+03 -0.35323624613E+01 -0.15269403743E+03  0.23094607033E+03  0.88843525174E+02 0.  0.
          5    1    1    2  502    0  0.34450852744E+02  0.53089041485E+02 -0.21777106636E+03  0.22681934954E+03  0.41800000000E+01 0.  1.
         -5    1    1    2    0  502  0.11426017168E+03 -0.49556679024E+02 -0.23764755543E+03  0.26833763111E+03  0.41800000000E+01 0.  1.
        -11    1    3    3    0    0 -0.49325563730E+02  0.40850483957E+02 -0.63975734293E+02  0.90524404749E+02  0.00000000000E+00 0.  1.
         11    1    3    3    0    0 -0.99385460696E+02 -0.44382846419E+02 -0.88718303133E+02  0.14042166558E+03  0.00000000000E+00 0. -1.
</event>
<event>
 7    1  0.4274778E-006  0.1564895E+03  0.7561462E-02  0.1192718E+00
          1   -1    0    0  501    0  0.00000000000E+00  0.00000000000E+00  0.19420420151E+03  0.19420420151E+03  0.00000000000E+00 0. -1.
         -1   -1    0    0    0  501 -0.00000000000E+00 -0.00000000000E+00 -0.13983955748E+03  0.13983955748E+03  0.00000000000E+00 0.  1.
         23    2    1    2    0    0 -0.66410254694E+02 -0.91785691341E+02  0.76733025548E+02  0.16380046157E+03  0.90042761719E+02 0.  0.
          5    1    1    2  502    0 -0.34711412146E+02  0.45411265163E+02 -0.10768832088E+02  0.58313851540E+02  0.41800000000E+01 0.  1.
         -5    1    1    2    0  502  0.10112166684E+03  0.46374426179E+02 -0.11599549433E+02  0.11192944588E+03  0.41800000000E+01 0.  1.
        -11    1    3    3    0    0 -0.70228599479E+02 -0.20787606348E+02  0.33045177489E+02  0.80350261467E+02  0.00000000000E+00 0.  1.
         11    1    3    3    0    0  0.38183447849E+01 -0.70998084994E+02  0.43687848059E+02  0.83450200105E+02  0.00000000000E+00 0. -1.
</event>
<event>
 7    1  0.4274778E-006  0.1144956E+03  0.7561462E-02  0.1252464E+00
         -1   -1    0    0    0  501 -0.00000000000E+00  0.00000000000E+00  0.11551339469E+03  0.11551339469E+03  0.00000000000E+00 0.  1.
          1   -1    0    0  501    0  0.00000000000E+00 -0.00000000000E+00 -0.11462327497E+03  0.11462327497E+03  0.00000000000E+00 0. -1.
         23    2    1    2    0    0 -0.39916805127E+01 -0.43947215313E+02 -0.25439047786E+01  0.97447529083E+02  0.86846175654E+02 0.  0.
          5    1    1    2  502    0  0.30729466264E+02 -0.36423835671E+02  0.15669255164E+01  0.47863593236E+02  0.41800000000E+01 0. -1.
         -5    1    1    2    0  502 -0.26737785751E+02  0.80371050984E+02  0.18670989782E+01  0.84825547341E+02  0.41800000000E+01 0. -1.
        -11    1    3    3    0    0 -0.34798717878E+02 -0.53739341206E+02 -0.84787992252E+01  0.64581402861E+02  0.00000000000E+00 0. -1.
         11    1    3    3    0    0  0.30807037365E+02  0.97921258937E+01  0.59348944466E+01  0.32866126222E+02  0.00000000000E+00 0.  1.
</event>
<event>
 7    1  0.4274778E-006  0.1121584E+03  0.7561462E-02  0.1256624E+00
          2   -1    0    0  501    0  0.00000000000E+00  0.00000000000E+00  0.16746016898E+03  0.16746016898E+03  0.00000000000E+00 0. -1.
         -2   -1    0    0    0  501 -0.00000000000E+00 -0.00000000000E+00 -0.81482951077E+02  0.81482951077E+02  0.00000000000E+00 0.  1.
         23    2    1    2    0    0  0.33823933611E+02  0.12501250569E+02  0.56352890850E+02  0.11408979728E+03  0.92414792027E+02 0.  0.
          5    1    1    2  502    0 -0.61128445378E+02 -0.53706702133E+02  0.23937545532E+02  0.84920993720E+02  0.41800000000E+01 0. -1.
         -5    1    1    2    0  502  0.27304511766E+02  0.41205451563E+02  0.56867815258E+01  0.49932329061E+02  0.41800000000E+01 0.  1.
        -11    1    3    3    0    0  0.46326295481E+02 -0.25741281799E+02  0.12256211739E+02  0.54396267958E+02  0.00000000000E+00 0.  1.
         11    1    3    3    0    0 -0.12502361870E+02  0.38242532368E+02  0.44096679110E+02  0.59693529321E+02  0.00000000000E+00 0. -1.
</event>
<event>
 7    1  0.4274778E-006  0.1107772E+03  0.7561462E-02  0.1259137E+00
         -1   -1    0    0    0  501 -0.00000000000E+00  0.00000000000E+00  0.10661807301E+03  0.10661807301E+03  0.00000000000E+00 0.  1.
          1   -1    0    0  501    0  0.00000000000E+00 -0.00000000000E+00 -0.13806366947E+03  0.13806366947E+03  0.00000000000E+00 0. -1.
         23    2    1    2    0    0  0.50720013287E+02  0.32590999277E+02 -0.31096978096E+02  0.10582063080E+03  0.81217552748E+02 0.  0.
          5    1    1    2  502    0  0.37361072962E+02 -0.29703585363E+02 -0.13211790945E+02  0.49700870981E+02  0.41800000000E+01 0.  1.
         -5    1    1    2    0  502 -0.88081086249E+02 -0.28874139141E+01  0.12863172578E+02  0.89160240705E+02  0.41800000000E+01 0.  1.
        -11    1    3    3    0    0  0.20042802185E+02  0.47316134531E+02 -0.45722143405E+02  0.68782591576E+02  0.00000000000E+00 0. -1.
         11    1    3    3    0    0  0.30677211101E+02 -0.14725135253E+02  0.14625165309E+02  0.37038039223E+02  0.00000000000E+00 0.  1.
</event>
<event>
 7    1  0.4274778E-006  0.4526720E+03  0.7561462E-02  0.1026928E+00
         -1   -1    0    0    0  501 -0.00000000000E+00  0.00000000000E+00  0.36407946174E+03  0.36407946174E+03  0.00000000000E+00 0.  1.
          1   -1    0    0  501    0  0.00000000000E+00 -0.00000000000E+00 -0.66753879011E+03  0.66753879011E+03  0.00000000000E+00 0. -1.
         23    2    1    2    0    0  0.37388325750E+03  0.24874422935E+03 -0.33030709060E+03  0.56467976019E+03  0.89989308219E+02 0.  0.
          5    1    1    2  502    0 -0.25381644590E+03 -0.12894469625E+03  0.67194982461E+02  0.29254428890E+03  0.41800000000E+01 0. -1.
         -5    1    1    2    0  502 -0.12006681159E+03 -0.11979953310E+03 -0.40347220229E+02  0.17439420277E+03  0.41800000000E+01 0. -1.
        -11    1    3    3    0    0  0.26522504501E+03  0.15334691962E+03 -0.17646499239E+03  0.35355267754E+03  0.00000000000E+00 0.  1.
         11    1    3    3    0    0  0.10865821248E+03  0.95397309734E+02 -0.15384209821E+03  0.21112708264E+03  0.00000000000E+00 0. -1.
</event>
<event>
 7    1  0.4274778E-006  0.1830611E+03  0.7561462E-02  0.1164873E+00
         -1   -1    0    0    0  501 -0.00000000000E+00  0.00000000000E+00  0.12862261101E+03  0.12862261101E+03  0.00000000000E+00 0. -1.
          1   -1    0    0  501    0  0.00000000000E+00 -0.00000000000E+00 -0.31602660360E+03  0.31602660360E+03  0.00000000000E+00 0.  1.
         23    2    1    2    0    0  0.16127319341E+03  0.31203999208E+02 -0.44889466595E+02  0.19376929362E+03  0.92459409790E+02 0.  0.
          5    1    1    2  502    0  0.72102193499E+01  0.32107399026E+01  0.15120899825E+02  0.17561609417E+02  0.41800000000E+01 0. -1.
         -5    1    1    2    0  502 -0.16848341276E+03 -0.34414739110E+02 -0.15763542582E+03  0.23331831158E+03  0.41800000000E+01 0. -1.
        -11    1    3    3    0    0  0.14992522668E+03  0.54291092192E+02 -0.25328165917E+02  0.16145157873E+03  0.00000000000E+00 0. -1.
         11    1    3    3    0    0  0.11347966735E+02 -0.23087092985E+02 -0.19561300677E+02  0.32317714890E+02  0.00000000000E+00 0.  1.
</event>
<event>
 7    1  0.4274778E-006  0.1704772E+03  0.7561462E-02  0.1177351E+00
          2   -1    0    0  501    0  0.00000000000E+00  0.00000000000E+00  0.22697800594E+03  0.22697800594E+03  0.00000000000E+00 0.  1.
         -2   -1    0    0    0  501 -0.00000000000E+00 -0.00000000000E+00 -0.16820939133E+03  0.16820939133E+03  0.00000000000E+00 0. -1.
         23    2    1    2    0    0 -0.11890705478E+03 -0.11097188221E+03  0.26692408228E+02  0.18751014308E+03  0.89408739975E+02 0.  0.
          5    1    1    2  502    0  0.94630620622E+02  0.11901689568E+03  0.65306871300E+02  0.16553681057E+03  0.41800000000E+01 0.  1.
         -5    1    1    2    0  502  0.24276434161E+02 -0.80450134646E+01 -0.33230664919E+02  0.42140443616E+02  0.41800000000E+01 0.  1.
        -11    1    3    3    0    0 -0.55006909353E+02 -0.57917413926E+02  0.58040862377E+02  0.98736662988E+02  0.00000000000E+00 0.  1.
         11    1    3    3    0    0 -0.63900145429E+02 -0.53054468286E+02 -0.31348454150E+02  0.88773480097E+02  0.00000000000E+00 0. -1.
</event>
<event>
 7    1  0.4274778E-006  0.9921547E+02  0.7561462E-02  0.1281954E+00
          2   -1    0    0  501    0  0.00000000000E+00  0.00000000000E+00  0.27782564797E+03  0.27782564797E+03  0.00000000000E+00 0. -1.
         -2   -1    0    0    0  501 -0.00000000000E+00 -0.00000000000E+00 -0.59983757897E+02  0.59983757897E+02  0.00000000000E+00 0.  1.
         23    2    1    2    0    0  0.46162671688E+02  0.33060655115E+02  0.15041297028E+03  0.18477616519E+03  0.91072336196E+02 0.  0.
          5    1    1    2  502    0 -0.66127918483E+02 -0.28331103820E+02  0.94479608153E+02  0.11882517327E+03  0.41800000000E+01 0.  1.
         -5    1    1    2    0  502  0.19965246795E+02 -0.47295512953E+01 -0.27050688357E+02  0.34208067405E+02  0.41800000000E+01 0.  1.
        -11    1    3    3    0    0 -0.26635390191E+02  0.35254675312E+01  0.24478844551E+02  0.36346757249E+02  0.00000000000E+00 0.  1.
         11    1    3    3    0    0  0.72798061880E+02  0.29535187584E+02  0.12593412573E+03  0.14842940794E+03  0.00000000000E+00 0. -1.
</event>
<event>
 7    1  0.4274778E-006  0.2541214E+03  0.7561462E-02  0.1110728E+00
          2   -1    0    0  501    0  0.00000000000E+00  0.00000000000E+00  0.21977214279E+04  0.21977214279E+04  0.00000000000E+00 0. -1.
         -2   -1    0    0    0  501 -0.00000000000E+00 -0.00000000000E+00 -0.37027832227E+02  0.37027832227E+02  0.00000000000E+00 0.  1.
         23    2    1    2    0    0  0.15284296650E+03 -0.20207211588E+03  0.13385816164E+04  0.13654331217E+04  0.91721064491E+02 0.  0.
          5    1    1    2  502    0 -0.13202912874E+03  0.16025942064E+03  0.46670062219E+03  0.51082454512E+03  0.41800000000E+01 0. -1.
         -5    1    1    2    0  502 -0.20813837757E+02  0.41812695236E+02  0.35541135711E+03  0.35849159332E+03  0.41800000000E+01 0. -1.
        -11    1    3    3    0    0  0.13589862221E+03 -0.17271388155E+03  0.12706340474E+04  0.12894996715E+04  0.00000000000E+00 0. -1.
         11    1    3    3    0    0  0.16944344292E+02 -0.29358234327E+02  0.67947568956E+02  0.75933450161E+02  0.00000000000E+00 0.  1.
</event>
<event>
 7    1  0.4274778E-006  0.1266599E+03  0.7561462E-02  0.1232498E+00
          1   -1    0    0  501    0  0.00000000000E+00  0.00000000000E+00  0.11733306065E+03  0.11733306065E+03  0.00000000000E+00 0. -1.
         -1   -1    0    0    0  501 -0.00000000000E+00 -0.00000000000E+00 -0.19677944045E+03  0.19677944045E+03  0.00000000000E+00 0.  1.
         23    2    1    2    0    0 -0.74923644981E+02 -0.61434030072E+02  0.10602275152E+02  0.13205545529E+03  0.89098498333E+02 0.  0.
          5    1    1    2  502    0  0.89748094116E+02  0.82916133511E+02 -0.45882707085E+02  0.13058522429E+03  0.41800000000E+01 0. -1.
         -5    1    1    2    0  502 -0.14824449135E+02 -0.21482103439E+02 -0.44165947866E+02  0.51471821526E+02  0.41800000000E+01 0. -1.
        -11    1    3    3    0    0 -0.37554810698E+02 -0.55167388962E+02  0.45315336907E+02  0.80667740581E+02  0.00000000000E+00 0. -1.
         11    1    3    3    0    0 -0.37368834283E+02 -0.62666411097E+01 -0.34713061755E+02  0.51387714708E+02  0.00000000000E+00 0.  1.
</event>
<event>
 7    1  0.4274778E-006  0.7113092E+02  0.7561462E-02  0.1356289E+00
         -3   -1    0    0    0  501 -0.00000000000E+00  0.00000000000E+00  0.96171805508E+03  0.96171805508E+03  0.00000000000E+00 0.  1.
          3   -1    0    0  501    0  0.00000000000E+00 -0.00000000000E+00 -0.17187623234E+02  0.17187623234E+02  0.00000000000E+00 0. -1.
         23    2    1    2    0    0 -0.22954494552E+02 -0.75482095318E+01  0.21926552304E+03  0.23837080326E+03  0.90329319518E+02 0.  0.
          5    1    1    2  502    0  0.36644309209E+02  0.61894822241E+01  0.38691611113E+02  0.53811042158E+02  0.41800000000E+01 0. -1.
         -5    1    1    2    0  502 -0.13689814656E+02  0.13587273078E+01  0.68657329770E+03  0.68672383290E+03  0.41800000000E+01 0.  1.
        -11    1    3    3    0    0 -0.21819054969E+02 -0.46580382186E+02  0.93910852255E+02  0.10707497997E+03  0.00000000000E+00 0.  1.
         11    1    3    3    0    0 -0.11354395837E+01  0.39032172655E+02  0.12535467078E+03  0.13129582329E+03  0.00000000000E+00 0. -1.
</event>
<event>
 7    1  0.4274778E-006  0.1155839E+03  0.7561462E-02  0.1250565E+00
         -1   -1    0    0    0  501 -0.00000000000E+00  0.00000000000E+00  0.55428597681E+02  0.55428597681E+02  0.00000000000E+00 0.  1.
          1   -1    0    0  501    0  0.00000000000E+00 -0.00000000000E+00 -0.28586095064E+03  0.28586095064E+03  0.00000000000E+00 0. -1.
         23    2    1    2    0    0  0.41463819533E+02 -0.29252555723E+02 -0.15420410817E+03  0.18625982322E+03  0.91317328159E+02 0.  0.
          5    1    1    2  502    0 -0.64100261434E+02  0.65575975150E+02 -0.55754384429E+02  0.10740147027E+03  0.41800000000E+01 0. -1.
         -5    1    1    2    0  502  0.22636441901E+02 -0.36323419427E+02 -0.20473860366E+02  0.47628254840E+02  0.41800000000E+01 0. -1.
        -11    1    3    3    0    0 -0.10642376981E+02  0.21274060956E+02 -0.12088855077E+02  0.26683070933E+02  0.00000000000E+00 0.  1.
         11    1    3    3    0    0  0.52106196514E+02 -0.50526616679E+02 -0.14211525309E+03  0.15957675228E+03  0.00000000000E+00 0. -1.
</event>
<event>
 7    1  0.4274778E-006  0.2758685E+03  0.7561462E-02  0.1097967E+00
         -1   -1    0    0    0  501 -0.00000000000E+00  0.00000000000E+00  0.96011968435E+02  0.96011968435E+02  0.00000000000E+00 0.  1.
          1   -1    0    0  501    0  0.00000000000E+00 -0.00000000000E+00 -0.11111411290E+04  0.11111411290E+04  0.00000000000E+00 0. -1.
         23    2    1    2    0    0 -0.13131400195E+03 -0.23474645597E+03 -0.77535448123E+03  0.82572405124E+03  0.91084419886E+02 0.  0.
          5    1    1    2  502    0  0.11093263323E+01  0.77219447221E+02 -0.17202187164E+02  0.79230431510E+02  0.41800000000E+01 0.  1.
         -5    1    1    2    0  502  0.13020467561E+03  0.15752700875E+03 -0.22257249215E+03  0.30219861466E+03  0.41800000000E+01 0.  1.
        -11    1    3    3    0    0 -0.56790817517E+02 -0.12533497923E+03 -0.26644112998E+03  0.29987485676E+03  0.00000000000E+00 0.  1.
         11    1    3    3    0    0 -0.74523184428E+02 -0.10941147674E+03 -0.50891335125E+03  0.52584919448E+03  0.00000000000E+00 0. -1.
</event>
<event>
 7    1  0.4274778E-006  0.1114677E+03  0.7561462E-02  0.1257876E+00
          2   -1    0    0  501    0  0.00000000000E+00  0.00000000000E+00  0.45244080214E+03  0.45244080214E+03  0.00000000000E+00 0.  1.
         -2   -1    0    0    0  501 -0.00000000000E+00 -0.00000000000E+00 -0.63356251840E+02  0.63356251840E+02  0.00000000000E+00 0. -1.
         23    2    1    2    0    0  0.60207600753E+02  0.37264574715E+02  0.34748732363E+03  0.36616848652E+03  0.91204806447E+02 0.  0.
          5    1    1    2  502    0  0.22486959816E+02  0.41987913800E+01  0.51492243748E+02  0.56499705991E+02  0.41800000000E+01 0. -1.
         -5    1    1    2    0  502 -0.82694560569E+02 -0.41463366095E+02 -0.98950170783E+01  0.93128861470E+02  0.41800000000E+01 0. -1.
        -11    1    3    3    0    0 -0.12101453756E+02  0.32423650683E+02  0.18561448871E+03  0.18881333831E+03  0.00000000000E+00 0.  1.
         11    1    3    3    0    0  0.72309054509E+02  0.48409240314E+01  0.16187283492E+03  0.17735514820E+03  0.00000000000E+00 0. -1.
</event>
<event>
 7    1  0.4274778E-006  0.1713515E+03  0.7561462E-02  0.1176446E+00
          2   -1    0    0  501    0  0.00000000000E+00  0.00000000000E+00  0.20060249596E+03  0.20060249596E+03  0.00000000000E+00 0. -1.
         -2   -1    0    0    0  501 -0.00000000000E+00 -0.00000000000E+00 -0.25139872971E+03  0.25139872971E+03  0.00000000000E+00 0.  1.
         23    2    1    2    0    0  0.12602796804E+03  0.64656202062E+02  0.11201075643E+03  0.20261169117E+03  0.91878259955E+02 0.  0.
          5    1    1    2  502    0 -0.12295622902E+02  0.34936845809E+02 -0.25853604167E+02  0.45361291715E+02  0.41800000000E+01 0.  1.
         -5    1    1    2    0  502 -0.11373234514E+03 -0.99593047871E+02 -0.13695338601E+03  0.20402824279E+03  0.41800000000E+01 0.  1.
        -11    1    3    3    0    0  0.62969035569E+02  0.65871705568E+02  0.10519050457E+03  0.13917335695E+03  0.00000000000E+00 0. -1.
         11    1    3    3    0    0  0.63058932472E+02 -0.12155035055E+01  0.68202518578E+01  0.63438334221E+02  0.00000000000E+00 0.  1.
</event>
<event>
 7    1  0.4274778E-006  0.1185240E+03  0.7561462E-02  0.1245552E+00
          1   -1    0    0  501    0  0.00000000000E+00  0.00000000000E+00  0.28136688802E+03  0.28136688802E+03  0.00000000000E+00 0. -1.
         -1   -1    0    0    0  501 -0.00000000000E+00 -0.00000000000E+00 -0.62325016531E+02  0.62325016531E+02  0.00000000000E+00 0.  1.
         23    2    1    2    0    0 -0.66702646158E+02 -0.17320052645E+02  0.16339716156E+03  0.19041303561E+03  0.69348860819E+02 0.  0.
          5    1    1    2  502    0  0.25843737833E+01 -0.47848855895E+02  0.34929813221E+02  0.59445405625E+02  0.41800000000E+01 0. -1.
         -5    1    1    2    0  502  0.64118272375E+02  0.65168908539E+02  0.20714896714E+02  0.93833463319E+02  0.41800000000E+01 0. -1.
        -11    1    3    3    0    0  0.99378132041E+01 -0.18253047586E+02  0.28683523468E+02  0.35421439779E+02  0.00000000000E+00 0. -1.
         11    1    3    3    0    0 -0.76640459362E+02  0.93299494172E+00  0.13471363809E+03  0.15499159583E+03  0.00000000000E+00 0.  1.
</event>
<event>
 7    1  0.4274778E-006  0.8778375E+02  0.7561462E-02  0.1308309E+00
          3   -1    0    0  501    0  0.00000000000E+00  0.00000000000E+00  0.23420203108E+02  0.23420203108E+02  0.00000000000E+00 0. -1.
         -3   -1    0    0    0  501 -0.00000000000E+00 -0.00000000000E+00 -0.59671934680E+03  0.59671934680E+03  0.00000000000E+00 0.  1.
         23    2    1    2    0    0 -0.32561638770E+02 -0.39682838349E+01 -0.15910625291E+03  0.18622891452E+03  0.91051640795E+02 0.  0.
          5    1    1    2  502    0  0.12347272350E+02  0.37411915013E+02 -0.35537518459E+02  0.53221181288E+02  0.41800000000E+01 0.  1.
         -5    1    1    2    0  502  0.20214366420E+02 -0.33443631178E+02 -0.37865537232E+03  0.38068945410E+03  0.41800000000E+01 0.  1.
        -11    1    3    3    0    0  0.38398192982E+01  0.39650526027E+02 -0.60837893345E+02  0.72719720111E+02  0.00000000000E+00 0.  1.
         11    1    3    3    0    0 -0.36401458068E+02 -0.43618809861E+02 -0.98268359570E+02  0.11350919441E+03  0.00000000000E+00 0. -1.
</event>
<event>
 7    1  0.4274778E-006  0.1073729E+03  0.7561462E-02  0.1265514E+00
          2   -1    0    0  501    0  0.00000000000E+00  0.00000000000E+00  0.81497332575E+03  0.81497332575E+03  0.00000000000E+00 0. -1.
         -2   -1    0    0    0  501 -0.00000000000E+00 -0.00000000000E+00 -0.23871346920E+02  0.23871346920E+02  0.00000000000E+00 0.  1.
         23    2    1    2    0    0 -0.75013818638E+02 -0.43486714488E+02  0.37695612854E+03  0.39761380465E+03  0.92101289242E+02 0.  0.
          5    1    1    2  502    0  0.27592037366E+02  0.26963205729E+02  0.37608239929E+03  0.37807906375E+03  0.41800000000E+01 0. -1.
         -5    1    1    2    0  502  0.47421781272E+02  0.16523508759E+02  0.38063450996E+02  0.63151804269E+02  0.41800000000E+01 0. -1.
        -11    1    3    3    0    0 -0.30611417518E+02 -0.68184220499E+02  0.20005325834E+03  0.21355901522E+03  0.00000000000E+00 0.  1.
         11    1    3    3    0    0 -0.44402401120E+02  0.24697506011E+02  0.17690287020E+03  0.18405478943E+03  0.00000000000E+00 0. -1.
</event>
<event>
 7    1  0.4274778E-006  0.1035601E+03  0.7561462E-02  0.1272983E+00
         -1   -1    0    0    0  501 -0.00000000000E+00  0.00000000000E+00  0.30404769985E+02  0.30404769985E+02  0.00000000000E+00 0.  1.
          1   -1    0    0  501    0  0.00000000000E+00 -0.00000000000E+00 -0.71846602439E+03  0.71846602439E+03  0.00000000000E+00 0. -1.
         23    2    1    2    0    0 -0.10673827249E+02  0.55715698703E+02 -0.52360048190E+03  0.53459586418E+03  0.91744774699E+02 0.  0.
          5    1    1    2  502    0  0.11871836002E+02 -0.77996016261E+02 -0.17286905114E+03  0.19006709417E+03  0.41800000000E+01 0.  1.
         -5    1    1    2    0  502 -0.11980087533E+01  0.22280317557E+02  0.84082786360E+01  0.24207836026E+02  0.41800000000E+01 0.  1.
        -11    1    3    3    0    0 -0.49180115853E+02  0.41559963244E+02 -0.37254172553E+03  0.37806514200E+03  0.00000000000E+00 0. -1.
         11    1    3    3    0    0  0.38506288605E+02  0.14155735459E+02 -0.15105875637E+03  0.15653072218E+03  0.00000000000E+00 0.  1.
</event>
<event>
 7    1  0.4274778E-006  0.9407511E+02  0.7561462E-02  0.1293273E+00
          1   -1    0    0  501    0  0.00000000000E+00  0.00000000000E+00  0.28416614803E+02  0.28416614803E+02  0.00000000000E+00 0. -1.
         -1   -1    0    0    0  501 -0.00000000000E+00 -0.00000000000E+00 -0.49796968788E+03  0.49796968788E+03  0.00000000000E+00 0.  1.
         23    2    1    2    0    0 -0.26123070740E+02  0.38503861488E+02 -0.15529111006E+03  0.18495866694E+03  0.89047276423E+02 0.  0.
          5    1    1    2  502    0 -0.35682204401E+02 -0.13609694541E+02 -0.23352238170E+03  0.23666140085E+03  0.41800000000E+01 0. -1.
         -5    1    1    2    0  502  0.61805275140E+02 -0.24894166947E+02 -0.80739581325E+02  0.10476623490E+03  0.41800000000E+01 0. -1.
        -11    1    3    3    0    0  0.23508575820E+02  0.16253247240E+02 -0.10771310214E+02  0.30542467265E+02  0.00000000000E+00 0. -1.
         11    1    3    3    0    0 -0.49631646559E+02  0.22250614248E+02 -0.14451979984E+03  0.15441619967E+03  0.00000000000E+00 0.  1.
</event>
<event>
 7    1  0.4274778E-006  0.1282818E+03  0.7561462E-02  0.1230028E+00
          2   -1    0    0  501    0  0.00000000000E+00  0.00000000000E+00  0.32915624736E+03  0.32915624736E+03  0.00000000000E+00 0. -1.
         -2   -1    0    0    0  501 -0.00000000000E+00 -0.00000000000E+00 -0.77267049416E+02  0.77267049416E+02  0.00000000000E+00 0.  1.
         23    2    1    2    0    0  0.36072217688E+02  0.10062449088E+03  0.17537123037E+03  0.22496031192E+03  0.91790960579E+02 0.  0.
          5    1    1    2  502    0  0.61202380518E+01 -0.63044609507E+02 -0.22527938574E+02  0.67357705707E+02  0.41800000000E+01 0.  1.
         -5    1    1    2    0  502 -0.42192455740E+02 -0.37579881369E+02  0.99045906148E+02  0.11410527915E+03  0.41800000000E+01 0.  1.
        -11    1    3    3    0    0  0.63687546944E+02  0.78215808199E+02  0.10213387564E+03  0.14354492273E+03  0.00000000000E+00 0.  1.
         11    1    3    3    0    0 -0.27615329255E+02  0.22408682677E+02  0.73237354727E+02  0.81415389188E+02  0.00000000000E+00 0. -1.
</event>
<event>
 7    1  0.4274778E-006  0.1078633E+03  0.7561462E-02  0.1264579E+00
         -2   -1    0    0    0  501 -0.00000000000E+00  0.00000000000E+00  0.85533593858E+02  0.85533593858E+02  0.00000000000E+00 0.  1.
          2   -1    0    0  501    0  0.00000000000E+00 -0.00000000000E+00 -0.18725023905E+03  0.18725023905E+03  0.00000000000E+00 0. -1.
         23    2    1    2    0    0 -0.39699203166E+02  0.75288846196E+01 -0.10111246332E+03  0.14132843274E+03  0.90095975640E+02 0.  0.
          5    1    1    2  502    0 -0.37538689975E+02 -0.11674860804E+02 -0.28917563241E+02  0.48981154372E+02  0.41800000000E+01 0. -1.
         -5    1    1    2    0  502  0.77237893141E+02  0.41459761842E+01  0.28313381368E+02  0.82474245797E+02  0.41800000000E+01 0. -1.
        -11    1    3    3    0    0 -0.18347395321E+02 -0.41434153309E+02 -0.45341325315E+02  0.64103445749E+02  0.00000000000E+00 0.  1.
         11    1    3    3    0    0 -0.21351807845E+02  0.48963037929E+02 -0.55771138004E+02  0.77224986991E+02  0.00000000000E+00 0. -1.
</event>
<event>
 7    1  0.4274778E-006  0.9039695E+02  0.7561462E-02  0.1301893E+00
         -3   -1    0    0    0  501 -0.00000000000E+00  0.00000000000E+00  0.41197309403E+02  0.41197309403E+02  0.00000000000E+00 0.  1.
          3   -1    0    0  501    0  0.00000000000E+00 -0.00000000000E+00 -0.36045463071E+03  0.36045463071E+03  0.00000000000E+00 0. -1.
         23    2    1    2    0    0  0.51385466865E+02 -0.12233530569E+02 -0.16565163742E+03  0.19663389184E+03  0.91838428575E+02 0.  0.
          5    1    1    2  502    0 -0.77044386288E+02  0.23912146424E+02 -0.44444259163E+02  0.92197574684E+02  0.41800000000E+01 0. -1.
         -5    1    1    2    0  502  0.25658919423E+02 -0.11678615855E+02 -0.10916142473E+03  0.11282047360E+03  0.41800000000E+01 0. -1.
        -11    1    3    3    0    0  0.11040909481E+02  0.17988825834E+02  0.23455903029E+01  0.21236791917E+02  0.00000000000E+00 0.  1.
         11    1    3    3    0    0  0.40344557383E+02 -0.30222356403E+02 -0.16799722772E+03  0.17539709992E+03  0.00000000000E+00 0. -1.
</event>
<event>
 7    1  0.4274778E-006  0.1217497E+03  0.7561462E-02  0.1240238E+00
          2   -1    0    0  501    0  0.00000000000E+00  0.00000000000E+00  0.13219215182E+02  0.13219215182E+02  0.00000000000E+00 0. -1.
         -2   -1    0    0    0  501 -0.00000000000E+00 -0.00000000000E+00 -0.12743538733E+04  0.12743538733E+04  0.00000000000E+00 0.  1.
         23    2    1    2    0    0  0.48566778052E+02 -0.42535039734E+02 -0.41003210431E+03  0.42490812132E+03  0.90843951163E+02 0.  0.
          5    1    1    2  502    0 -0.81122963775E+02  0.38197111358E+01 -0.36660290931E+03  0.37551390248E+03  0.41800000000E+01 0. -1.
         -5    1    1    2    0  502  0.32556185723E+02  0.38715328598E+02 -0.48449964451E+03  0.48715106469E+03  0.41800000000E+01 0. -1.
        -11    1    3    3    0    0  0.57313514566E+02 -0.65389170466E+02 -0.32367910917E+03  0.33515481241E+03  0.00000000000E+00 0. -1.
         11    1    3    3    0    0 -0.87467365142E+01  0.22854130732E+02 -0.86352995139E+02  0.89753308912E+02  0.00000000000E+00 0.  1.
</event>
<event>
 7    1  0.4274778E-006  0.1236304E+03  0.7561462E-02  0.1237225E+00
         -1   -1    0    0    0  501 -0.00000000000E+00  0.00000000000E+00  0.26855039686E+02  0.26855039686E+02  0.00000000000E+00 0.  1.
          1   -1    0    0  501    0  0.00000000000E+00 -0.00000000000E+00 -0.95506553564E+03  0.95506553564E+03  0.00000000000E+00 0. -1.
         23    2    1    2    0    0  0.92259157148E+02 -0.60951342237E+02 -0.55239416283E+03  0.57068760942E+03  0.91204266424E+02 0.  0.
          5    1    1    2  502    0 -0.36325157402E+02  0.38623411721E+02 -0.31817122028E+02  0.61976500768E+02  0.41800000000E+01 0.  1.
         -5    1    1    2    0  502 -0.55933999745E+02  0.22327930516E+02 -0.34399921109E+03  0.34925646514E+03  0.41800000000E+01 0.  1.
        -11    1    3    3    0    0  0.37100951373E+02  0.14846382345E+02 -0.84208071858E+02  0.93208878480E+02  0.00000000000E+00 0.  1.
         11    1    3    3    0    0  0.55158205775E+02 -0.75797724582E+02 -0.46818609097E+03  0.47747873094E+03  0.00000000000E+00 0. -1.
</event>
<event>
 7    1  0.4274778E-006  0.1144519E+03  0.7561462E-02  0.1252541E+00
         -1   -1    0    0    0  501 -0.00000000000E+00  0.00000000000E+00  0.10284094507E+03  0.10284094507E+03  0.00000000000E+00 0.  1.
          1   -1    0    0  501    0  0.00000000000E+00 -0.00000000000E+00 -0.16182342634E+03  0.16182342634E+03  0.00000000000E+00 0. -1.
         23    2    1    2    0    0 -0.45310405112E+02  0.90638472853E+01 -0.80080443787E+02  0.12967305247E+03  0.90923247415E+02 0.  0.
          5    1    1    2  502    0  0.27649647520E+02  0.55066372300E+02  0.28337170145E+02  0.67950540675E+02  0.41800000000E+01 0.  1.
         -5    1    1    2    0  502  0.17660757593E+02 -0.64130219585E+02 -0.72392076318E+01  0.67040778262E+02  0.41800000000E+01 0.  1.
        -11    1    3    3    0    0  0.11367926977E+02  0.35992449188E+02 -0.41094516413E+02  0.55798256618E+02  0.00000000000E+00 0.  1.
         11    1    3    3    0    0 -0.56678332090E+02 -0.26928601903E+02 -0.38985927374E+02  0.73874795852E+02  0.00000000000E+00 0. -1.
</event>
<event>
 7    1  0.4274778E-006  0.9348818E+02  0.7561462E-02  0.1294618E+00
          1   -1    0    0  501    0  0.00000000000E+00  0.00000000000E+00  0.63517697726E+03  0.63517697726E+03  0.00000000000E+00 0. -1.
         -1   -1    0    0    0  501 -0.00000000000E+00 -0.00000000000E+00 -0.29464242677E+02  0.29464242677E+02  0.00000000000E+00 0.  1.
         23    2    1    2    0    0 -0.32633717392E+02  0.82477292468E+00  0.46035332179E+03  0.47011143272E+03  0.89520603950E+02 0.  0.
          5    1    1    2  502    0 -0.29044658281E+02 -0.74315928049E+01  0.12574511840E+03  0.12933726434E+03  0.41800000000E+01 0.  1.
         -5    1    1    2    0  502  0.61678375673E+02  0.66068198802E+01  0.19614294401E+02  0.65192522879E+02  0.41800000000E+01 0.  1.
        -11    1    3    3    0    0 -0.21728906214E+02  0.44498107919E+02  0.27042815440E+03  0.27492474182E+03  0.00000000000E+00 0. -1.
         11    1    3    3    0    0 -0.10904811177E+02 -0.43673334994E+02  0.18992516739E+03  0.19518669090E+03  0.00000000000E+00 0.  1.
</event>
<event>
 7    1  0.4274778E-006  0.1919257E+03  0.7561462E-02  0.1156736E+00
         -1   -1    0    0    0  501 -0.00000000000E+00  0.00000000000E+00  0.50938418049E+02  0.50938418049E+02  0.00000000000E+00 0.  1.
          1   -1    0    0  501    0  0.00000000000E+00 -0.00000000000E+00 -0.85103788207E+03  0.85103788207E+03  0.00000000000E+00 0. -1.
         23    2    1    2    0    0  0.49050111004E+00  0.16837925934E+03 -0.50453057876E+03  0.53954121901E+03  0.90563825807E+02 0.  0.
          5    1    1    2  502    0 -0.40325325598E+02 -0.13871749336E+02 -0.29023850884E+02  0.51753392491E+02  0.41800000000E+01 0.  1.
         -5    1    1    2    0  502  0.39834824488E+02 -0.15450751000E+03 -0.26654503438E+03  0.31068168862E+03  0.41800000000E+01 0.  1.
        -11    1    3    3    0    0 -0.32693396547E+02  0.64100332622E+02 -0.28897009715E+03  0.29779427104E+03  0.00000000000E+00 0. -1.
         11    1    3    3    0    0  0.33183897657E+02  0.10427892671E+03 -0.21556048161E+03  0.24174694797E+03  0.00000000000E+00 0.  1.
</event>
<event>
 7    1  0.4274778E-006  0.1475410E+03  0.7561462E-02  0.1203528E+00
         -1   -1    0    0    0  501 -0.00000000000E+00  0.00000000000E+00  0.34034382535E+02  0.34034382535E+02  0.00000000000E+00 0.  1.
          1   -1    0    0  501    0  0.00000000000E+00 -0.00000000000E+00 -0.10144595110E+04  0.10144595110E+04  0.00000000000E+00 0. -1.
         23    2    1    2    0    0  0.68019123345E+01 -0.12577531761E+03 -0.50714235637E+03  0.53066914646E+03  0.92469869946E+02 0.  0.
          5    1    1    2  502    0  0.39227645143E+02  0.71001318772E+02 -0.42188058273E+03  0.42962855340E+03  0.41800000000E+01 0. -1.
         -5    1    1    2    0  502 -0.46029557478E+02  0.54773998835E+02 -0.51402189394E+02  0.88196193707E+02  0.41800000000E+01 0.  1.
        -11    1    3    3    0    0 -0.16301758874E+02 -0.11593692970E+03 -0.47833003849E+03  0.49244973828E+03  0.00000000000E+00 0. -1.
         11    1    3    3    0    0  0.23103671209E+02 -0.98383879049E+01 -0.28812317885E+02  0.38219408182E+02  0.00000000000E+00 0.  1.
</event>
<event>
 7    1  0.4274778E-006  0.1291378E+03  0.7561462E-02  0.1228741E+00
          2   -1    0    0  501    0  0.00000000000E+00  0.00000000000E+00  0.43038909542E+02  0.43038909542E+02  0.00000000000E+00 0.  1.
         -2   -1    0    0    0  501 -0.00000000000E+00 -0.00000000000E+00 -0.51445120040E+03  0.51445120040E+03  0.00000000000E+00 0. -1.
         23    2    1    2    0    0 -0.60867082065E+02  0.40555450105E+02 -0.82193104549E+02  0.14217312295E+03  0.90044123864E+02 0.  0.
          5    1    1    2  502    0 -0.36407249086E+02  0.68841988610E+00 -0.13725730127E+03  0.14206688868E+03  0.41800000000E+01 0.  1.
         -5    1    1    2    0  502  0.97274331151E+02 -0.41243869991E+02 -0.25196188503E+03  0.27325009830E+03  0.41800000000E+01 0.  1.
        -11    1    3    3    0    0 -0.80164163815E+01 -0.28111765013E+02 -0.17932181705E+02  0.34294276556E+02  0.00000000000E+00 0.  1.
         11    1    3    3    0    0 -0.52850665684E+02  0.68667215118E+02 -0.64260922844E+02  0.10787884640E+03  0.00000000000E+00 0. -1.
</event>
<event>
 7    1  0.4274778E-006  0.3005949E+03  0.7561462E-02  0.1084944E+00
         -2   -1    0    0    0  501 -0.00000000000E+00  0.00000000000E+00  0.27098878127E+03  0.27098878127E+03  0.00000000000E+00 0.  1.
          2   -1    0    0  501    0  0.00000000000E+00 -0.00000000000E+00 -0.43457982750E+03  0.43457982750E+03  0.00000000000E+00 0. -1.
         23    2    1    2    0    0  0.28623151285E+03  0.52720551707E+02 -0.23032452093E+03  0.38182706700E+03  0.89635866881E+02 0.  0.
          5    1    1    2  502    0 -0.88332852260E+02 -0.68084347066E+02  0.56118828037E+02  0.12491983975E+03  0.41800000000E+01 0.  1.
         -5    1    1    2    0  502 -0.19789866059E+03  0.15363795359E+02  0.10614646652E+02  0.19882170202E+03  0.41800000000E+01 0.  1.
        -11    1    3    3    0    0  0.24588262859E+03  0.45488040421E+02 -0.14985986651E+03  0.29152256937E+03  0.00000000000E+00 0.  1.
         11    1    3    3    0    0  0.40348884260E+02  0.72325112856E+01 -0.80464654422E+02  0.90304497628E+02  0.00000000000E+00 0. -1.
</event>
<event>
 7    1  0.4274778E-006  0.1300442E+03  0.7561462E-02  0.1227390E+00
          4   -1    0    0  501    0  0.00000000000E+00  0.00000000000E+00  0.49819908777E+02  0.49819908777E+02  0.00000000000E+00 0. -1.
         -4   -1    0    0    0  501 -0.00000000000E+00 -0.00000000000E+00 -0.41029583718E+03  0.41029583718E+03  0.00000000000E+00 0.  1.
         23    2    1    2    0    0 -0.45068469304E+02 -0.70445726444E+02 -0.98120192639E+02  0.15767187347E+03  0.90769379096E+02 0.  0.
          5    1    1    2  502    0  0.27368212765E+02  0.10458751210E+03 -0.21947809673E+03  0.24469506350E+03  0.41800000000E+01 0. -1.
         -5    1    1    2    0  502  0.17700256539E+02 -0.34141785660E+02 -0.42877639035E+02  0.57748808982E+02  0.41800000000E+01 0. -1.
        -11    1    3    3    0    0 -0.40843392720E+01  0.16551088136E+02  0.38821795011E+01  0.17484040250E+02  0.00000000000E+00 0. -1.
         11    1    3    3    0    0 -0.40984130032E+02 -0.86996814581E+02 -0.10200237214E+03  0.14018783322E+03  0.00000000000E+00 0.  1.
</event>
<event>
 7    1  0.4274778E-006  0.1067982E+03  0.7561462E-02  0.1266617E+00
         -2   -1    0    0    0  501 -0.00000000000E+00  0.00000000000E+00  0.40828910256E+02  0.40828910256E+02  0.00000000000E+00 0.  1.
          2   -1    0    0  501    0  0.00000000000E+00 -0.00000000000E+00 -0.47445593988E+03  0.47445593988E+03  0.00000000000E+00 0. -1.
         23    2    1    2    0    0  0.50622657088E+02  0.66578473899E+02 -0.23923851469E+03  0.26945973996E+03  0.91532168941E+02 0.  0.
          5    1    1    2  502    0 -0.48355604368E+02 -0.79392679835E+02 -0.20717206582E+03  0.22711054432E+03  0.41800000000E+01 0.  1.
         -5    1    1    2    0  502 -0.22670527204E+01  0.12814205936E+02  0.12783550888E+02  0.18714565854E+02  0.41800000000E+01 0.  1.
        -11    1    3    3    0    0  0.61500262804E+02  0.29453691365E+02 -0.77812559854E+02  0.10346302108E+03  0.00000000000E+00 0.  1.
         11    1    3    3    0    0 -0.10877605716E+02  0.37124782533E+02 -0.16142595484E+03  0.16599671888E+03  0.00000000000E+00 0. -1.
</event>
<event>
 7    1  0.4274778E-006  0.2598144E+03  0.7561462E-02  0.1107255E+00
         -2   -1    0    0    0  501 -0.00000000000E+00  0.00000000000E+00  0.10366780985E+03  0.10366780985E+03  0.00000000000E+00 0.  1.
          2   -1    0    0  501    0  0.00000000000E+00 -0.00000000000E+00 -0.91940420932E+03  0.91940420932E+03  0.00000000000E+00 0. -1.
         23    2    1    2    0    0  0.24398964305E+03 -0.28837718570E+02 -0.65185162696E+03  0.70234028829E+03  0.89491770813E+02 0.  0.
          5    1    1    2  502    0 -0.23356157896E+03 -0.68590267736E+01 -0.15974731908E+03  0.28308079371E+03  0.41800000000E+01 0. -1.
         -5    1    1    2    0  502 -0.10428064091E+02  0.35696745344E+02 -0.41374534311E+01  0.37650937169E+02  0.41800000000E+01 0. -1.
        -11    1    3    3    0    0  0.87637297210E+02  0.75931074240E+01 -0.34489891845E+03  0.35593990376E+03  0.00000000000E+00 0.  1.
         11    1    3    3    0    0  0.15635234584E+03 -0.36430825994E+02 -0.30695270852E+03  0.34640038453E+03  0.00000000000E+00 0. -1.
</event>
<event>
 7    1  0.4274778E-006  0.1447171E+03  0.7561462E-02  0.1207119E+00
          1   -1    0    0  501    0  0.00000000000E+00  0.00000000000E+00  0.48167230573E+03  0.48167230573E+03  0.00000000000E+00 0. -1.
         -1   -1    0    0    0  501 -0.00000000000E+00 -0.00000000000E+00 -0.66572999465E+02  0.66572999465E+02  0.00000000000E+00 0.  1.
         23    2    1    2    0    0 -0.18144834498E+02 -0.92866152662E+02  0.35644462629E+03  0.38079142232E+03  0.94847131599E+02 0.  0.
          5    1    1    2  502    0  0.70952766872E+02  0.45438489713E+02  0.42843003003E+02  0.94614728137E+02  0.41800000000E+01 0. -1.
         -5    1    1    2    0  502 -0.52807932374E+02  0.47427662949E+02  0.15811676974E+02  0.72839154739E+02  0.41800000000E+01 0. -1.
        -11    1    3    3    0    0 -0.57082704636E+02 -0.48136820431E+02  0.19971129516E+03  0.21321395373E+03  0.00000000000E+00 0.  1.
         11    1    3    3    0    0  0.38937870138E+02 -0.44729332231E+02  0.15673333113E+03  0.16757746859E+03  0.00000000000E+00 0. -1.
</event>
<event>
 7    1  0.1194720E-005  0.3325784E+03  0.7561462E-02  0.1070002E+00
          2   -1    0    0  501    0  0.00000000000E+00  0.00000000000E+00  0.16007339489E+04  0.16007339489E+04  0.00000000000E+00 0. -1.
         -2   -1    0    0    0  501 -0.00000000000E+00 -0.00000000000E+00 -0.76938685465E+02  0.76938685465E+02  0.00000000000E+00 0.  1.
         23    2    1    2    0    0  0.32618500688E+03 -0.23315488753E+02  0.90530078557E+03  0.96695238145E+03  0.92125593071E+02 0.  0.
          5    1    1    2  502    0 -0.19540681676E+03  0.51929848621E+02  0.46458548905E+03  0.50669288750E+03  0.41800000000E+01 0.  1.
         -5    1    1    2    0  502 -0.13077819013E+03 -0.28614359868E+02  0.15390898886E+03  0.20402736546E+03  0.41800000000E+01 0.  1.
        -11    1    3    3    0    0  0.20332777398E+03  0.29688924328E+01  0.67041677875E+03  0.70057808646E+03  0.00000000000E+00 0. -1.
         11    1    3    3    0    0  0.12285723291E+03 -0.26284381186E+02  0.23488400682E+03  0.26637429499E+03  0.00000000000E+00 0.  1.
</event>
<event>
 7    1  0.4274778E-006  0.2941528E+03  0.7561462E-02  0.1088201E+00
          1   -1    0    0  501    0  0.00000000000E+00  0.00000000000E+00  0.33815512919E+03  0.33815512919E+03  0.00000000000E+00 0. -1.
         -1   -1    0    0    0  501 -0.00000000000E+00 -0.00000000000E+00 -0.28454273214E+03  0.28454273214E+03  0.00000000000E+00 0.  1.
         23    2    1    2    0    0  0.16163281804E+02  0.27883496907E+03  0.10318912874E+03  0.31267284916E+03  0.95426006195E+02 0.  0.
          5    1    1    2  502    0  0.46588407394E+02 -0.76487453636E+02  0.92034108586E+01  0.90127606419E+02  0.41800000000E+01 0.  1.
         -5    1    1    2    0  502 -0.62751689199E+02 -0.20234751543E+03 -0.58780142545E+02  0.21989740575E+03  0.41800000000E+01 0.  1.
        -11    1    3    3    0    0 -0.24979485075E+02  0.12759901699E+03  0.10175391916E+02  0.13041864288E+03  0.00000000000E+00 0.  1.
         11    1    3    3    0    0  0.41142766879E+02  0.15123595208E+03  0.93013736822E+02  0.18225420628E+03  0.00000000000E+00 0. -1.
</event>
<event>
 7    1  0.4274778E-006  0.1382777E+03  0.7561462E-02  0.1215665E+00
          2   -1    0    0  501    0  0.00000000000E+00  0.00000000000E+00  0.18306190698E+03  0.18306190698E+03  0.00000000000E+00 0. -1.
         -2   -1    0    0    0  501 -0.00000000000E+00 -0.00000000000E+00 -0.11814602420E+03  0.11814602420E+03  0.00000000000E+00 0.  1.
         23    2    1    2    0    0 -0.21387875964E+02 -0.95558499798E+02  0.17172437397E+02  0.13532915058E+03  0.91816220076E+02 0.  0.
          5    1    1    2  502    0 -0.15924007244E+02 -0.17641995172E+02  0.39553865792E+02  0.46333515941E+02  0.41800000000E+01 0.  1.
         -5    1    1    2    0  502  0.37311883208E+02  0.11320049497E+03  0.81895795923E+01  0.11954526466E+03  0.41800000000E+01 0.  1.
        -11    1    3    3    0    0 -0.30836858586E+02  0.57872037890E+01 -0.31568019676E+01  0.31533616567E+02  0.00000000000E+00 0. -1.
         11    1    3    3    0    0  0.94489826225E+01 -0.10134570359E+03  0.20329239364E+02  0.10379553401E+03  0.00000000000E+00 0.  1.
</event>
<event>
 7    1  0.4274778E-006  0.1196684E+03  0.7561462E-02  0.1243645E+00
         -2   -1    0    0    0  501 -0.00000000000E+00  0.00000000000E+00  0.62251336498E+02  0.62251336498E+02  0.00000000000E+00 0.  1.
          2   -1    0    0  501    0  0.00000000000E+00 -0.00000000000E+00 -0.40124188874E+03  0.40124188874E+03  0.00000000000E+00 0. -1.
         23    2    1    2    0    0 -0.41691657158E+02 -0.37123660778E+02 -0.30343160940E+03  0.32196968501E+03  0.92072667042E+02 0.  0.
          5    1    1    2  502    0 -0.39496930570E+02  0.30987432546E+02 -0.32478650236E+02  0.59937998143E+02  0.41800000000E+01 0.  1.
         -5    1    1    2    0  502  0.81188587728E+02  0.61362282322E+01 -0.30802926012E+01  0.81585542081E+02  0.41800000000E+01 0.  1.
        -11    1    3    3    0    0 -0.69376580587E+02 -0.39174938166E+02 -0.23411772626E+03  0.24730324596E+03  0.00000000000E+00 0. -1.
         11    1    3    3    0    0  0.27684923428E+02  0.20512773878E+01 -0.69313883138E+02  0.74666439046E+02  0.00000000000E+00 0.  1.
</event>
<event>
 7    1  0.4274778E-006  0.1025293E+03  0.7561462E-02  0.1275065E+00
          2   -1    0    0  501    0  0.00000000000E+00  0.00000000000E+00  0.25961627535E+03  0.25961627535E+03  0.00000000000E+00 0. -1.
         -2   -1    0    0    0  501 -0.00000000000E+00 -0.00000000000E+00 -0.70770691523E+02  0.70770691523E+02  0.00000000000E+00 0.  1.
         23    2    1    2    0    0 -0.14536468883E+02  0.70001930881E+02  0.15440187330E+03  0.18223539006E+03  0.65255035469E+02 0.  0.
          5    1    1    2  502    0  0.18068264946E+02 -0.10040082048E+03  0.28613042707E+00  0.10209966318E+03  0.41800000000E+01 0.  1.
         -5    1    1    2    0  502 -0.35317960626E+01  0.30398889594E+02  0.34157580099E+02  0.46051913643E+02  0.41800000000E+01 0.  1.
        -11    1    3    3    0    0 -0.11438290981E+02  0.32725595035E+02  0.14773457374E+02  0.37683605371E+02  0.00000000000E+00 0.  1.
         11    1    3    3    0    0 -0.30981779021E+01  0.37276335847E+02  0.13962841593E+03  0.14455178469E+03  0.00000000000E+00 0. -1.
</event>
<event>
 7    1  0.4274778E-006  0.1498948E+03  0.7561462E-02  0.1200602E+00
          2   -1    0    0  501    0  0.00000000000E+00  0.00000000000E+00  0.13605129290E+04  0.13605129290E+04  0.00000000000E+00 0. -1.
         -2   -1    0    0    0  501 -0.00000000000E+00 -0.00000000000E+00 -0.16977761036E+02  0.16977761036E+02  0.00000000000E+00 0.  1.
         23    2    1    2    0    0  0.10133647901E+03  0.25498829657E+02  0.70519289051E+03  0.71866759599E+03  0.90922100782E+02 0.  0.
          5    1    1    2  502    0 -0.12294536395E+03  0.75922852965E+01  0.48157744018E+03  0.49709909334E+03  0.41800000000E+01 0. -1.
         -5    1    1    2    0  502  0.21608884942E+02 -0.33091114953E+02  0.15676483727E+03  0.16172400070E+03  0.41800000000E+01 0. -1.
        -11    1    3    3    0    0  0.65058298898E+02 -0.29079470172E+02  0.31063766142E+03  0.31870669045E+03  0.00000000000E+00 0.  1.
         11    1    3    3    0    0  0.36278180108E+02  0.54578299829E+02  0.39455522909E+03  0.39996090555E+03  0.00000000000E+00 0. -1.
</event>
<event>
 7    1  0.4274778E-006  0.9259295E+02  0.7561462E-02  0.1296691E+00
          1   -1    0    0  501    0  0.00000000000E+00  0.00000000000E+00  0.17967070169E+03  0.17967070169E+03  0.00000000000E+00 0. -1.
         -1   -1    0    0    0  501 -0.00000000000E+00 -0.00000000000E+00 -0.81134169464E+02  0.81134169464E+02  0.00000000000E+00 0.  1.
         23    2    1    2    0    0 -0.38741283412E+02  0.30556083726E+02  0.64578147059E+02  0.12211919511E+03  0.91149324971E+02 0.  0.
          5    1    1    2  502    0  0.57254576906E+02 -0.15462492678E+02 -0.32630478515E+02  0.67818845350E+02  0.41800000000E+01 0.  1.
         -5    1    1    2    0  502 -0.18513293494E+02 -0.15093591048E+02  0.66588863682E+02  0.70866830698E+02  0.41800000000E+01 0.  1.
        -11    1    3    3    0    0  0.24824554067E+02  0.28622956970E+02  0.12424691903E+02  0.39873614324E+02  0.00000000000E+00 0.  1.
         11    1    3    3    0    0 -0.63565837479E+02  0.19331267563E+01  0.52153455155E+02  0.82245580782E+02  0.00000000000E+00 0. -1.
</event>
<event>
 7    1  0.4274778E-006  0.7461152E+02  0.7561462E-02  0.1345078E+00
         -4   -1    0    0    0  501 -0.00000000000E+00  0.00000000000E+00  0.23976689154E+02  0.23976689154E+02  0.00000000000E+00 0.  1.
          4   -1    0    0  501    0  0.00000000000E+00 -0.00000000000E+00 -0.58965060264E+03  0.58965060264E+03  0.00000000000E+00 0. -1.
         23    2    1    2    0    0  0.35516134847E+02 -0.72945122951E+00 -0.33963066766E+03  0.35285041682E+03  0.88839733819E+02 0.  0.
          5    1    1    2  502    0 -0.31323335355E+02  0.21539095456E+02 -0.48749158938E+01  0.38552836157E+02  0.41800000000E+01 0. -1.
         -5    1    1    2    0  502 -0.41927994924E+01 -0.20809644226E+02 -0.22116832993E+03  0.22222403881E+03  0.41800000000E+01 0. -1.
        -11    1    3    3    0    0  0.39770972934E+02 -0.36104215044E+02 -0.26177718224E+03  0.26723124401E+03  0.00000000000E+00 0. -1.
         11    1    3    3    0    0 -0.42548380870E+01  0.35374763814E+02 -0.77853485420E+02  0.85619172818E+02  0.00000000000E+00 0.  1.
</event>
<event>
 7    1  0.4274778E-006  0.1852827E+03  0.7561462E-02  0.1162786E+00
         -3   -1    0    0    0  501 -0.00000000000E+00  0.00000000000E+00  0.40987683099E+03  0.40987683099E+03  0.00000000000E+00 0.  1.
          3   -1    0    0  501    0  0.00000000000E+00 -0.00000000000E+00 -0.12006222231E+03  0.12006222231E+03  0.00000000000E+00 0. -1.
         23    2    1    2    0    0 -0.16357346144E+03  0.74214552720E+02  0.61837623825E+02  0.21389346735E+03  0.98297744286E+02 0.  0.
          5    1    1    2  502    0  0.23098663716E+02 -0.32407362068E+02 -0.54537627258E+01  0.40385657226E+02  0.41800000000E+01 0.  1.
         -5    1    1    2    0  502  0.14047479772E+03 -0.41807190652E+02  0.23343074758E+03  0.27565992872E+03  0.41800000000E+01 0.  1.
        -11    1    3    3    0    0 -0.72284861614E+02  0.11556382985E+02 -0.20375189598E+02  0.75985522025E+02  0.00000000000E+00 0.  1.
         11    1    3    3    0    0 -0.91288599825E+02  0.62658169735E+02  0.82212813423E+02  0.13790794532E+03  0.00000000000E+00 0. -1.
</event>
<event>
 7    1  0.4274778E-006  0.1834779E+03  0.7561462E-02  0.1164479E+00
         -1   -1    0    0    0  501 -0.00000000000E+00  0.00000000000E+00  0.25548777606E+02  0.25548777606E+02  0.00000000000E+00 0.  1.
          1   -1    0    0  501    0  0.00000000000E+00 -0.00000000000E+00 -0.16975182140E+04  0.16975182140E+04  0.00000000000E+00 0. -1.
         23    2    1    2    0    0 -0.16633570975E+03 -0.56467346795E+02 -0.91526947497E+03  0.93623904728E+03  0.89270444441E+02 0.  0.
          5    1    1    2  502    0  0.15615632766E+03  0.72158930117E+02 -0.74445940498E+03  0.76408702903E+03  0.41800000000E+01 0.  1.
         -5    1    1    2    0  502  0.10179382090E+02 -0.15691583322E+02 -0.12240556466E+02  0.22740915317E+02  0.41800000000E+01 0.  1.
        -11    1    3    3    0    0 -0.18569677342E+02 -0.48187013562E+01 -0.21288783299E+02  0.28657723107E+02  0.00000000000E+00 0.  1.
         11    1    3    3    0    0 -0.14776603241E+03 -0.51648645439E+02 -0.89398069167E+03  0.90758132417E+03  0.00000000000E+00 0. -1.
</event>
<event>
 6    1  0.4274778E-006  0.1331529E+03  0.7561462E-02  0.1222851E+00
         -2   -1    0    0    0  501 -0.00000000000E+00  0.00000000000E+00  0.31138881942E+02  0.31138881942E+02  0.00000000000E+00 0.  1.
          2   -1    0    0  501    0  0.00000000000E+00 -0.00000000000E+00 -0.61137378476E+03  0.61137378476E+03  0.00000000000E+00 0. -1.
          5    1    1    2  502    0 -0.41893030418E+02 -0.31763162238E+02 -0.14712051391E+03  0.15628769141E+03  0.41800000000E+01 0. -1.
         -5    1    1    2    0  502 -0.33742790534E+02  0.10326551502E+03 -0.18359161654E+03  0.21336751526E+03  0.41800000000E+01 0.  1.
        -11    1    1    2    0    0  0.16742318750E+02 -0.23586122643E+02 -0.11300176713E+03  0.11664480183E+03  0.00000000000E+00 0.  1.
         11    1    1    2    0    0  0.58893502202E+02 -0.47916230137E+02 -0.13652100523E+03  0.15621265820E+03  0.00000000000E+00 0. -1.
</event>
<event>
 7    1  0.4274778E-006  0.9128494E+02  0.7561462E-02  0.1299770E+00
         -1   -1    0    0    0  501 -0.00000000000E+00  0.00000000000E+00  0.25656930748E+02  0.25656930748E+02  0.00000000000E+00 0.  1.
          1   -1    0    0  501    0  0.00000000000E+00 -0.00000000000E+00 -0.76505520449E+03  0.76505520449E+03  0.00000000000E+00 0. -1.
         23    2    1    2    0    0  0.63891702613E+02 -0.40281731166E+02 -0.46454505428E+03  0.47942874744E+03  0.91351239102E+02 0.  0.
          5    1    1    2  502    0 -0.39035470107E+02  0.14528812598E+02 -0.27192659803E+03  0.27512979016E+03  0.41800000000E+01 0.  1.
         -5    1    1    2    0  502 -0.24856232506E+02  0.25752918568E+02 -0.29266214400E+01  0.36153597639E+02  0.41800000000E+01 0.  1.
        -11    1    3    3    0    0  0.72604395849E+02 -0.10152934824E+02 -0.41005891757E+03  0.41656067537E+03  0.00000000000E+00 0. -1.
         11    1    3    3    0    0 -0.87126932358E+01 -0.30128796343E+02 -0.54486136704E+02  0.62868072067E+02  0.00000000000E+00 0.  1.
</event>
<event>
 7    1  0.4274778E-006  0.1198206E+03  0.7561462E-02  0.1243393E+00
         -2   -1    0    0    0  501 -0.00000000000E+00  0.00000000000E+00  0.20752458374E+03  0.20752458374E+03  0.00000000000E+00 0.  1.
          2   -1    0    0  501    0  0.00000000000E+00 -0.00000000000E+00 -0.11821095324E+03  0.11821095324E+03  0.00000000000E+00 0. -1.
         23    2    1    2    0    0  0.55175071894E+02  0.97733776097E+02  0.50414551443E+02  0.15322827741E+03  0.91329614316E+02 0.  0.
          5    1    1    2  502    0 -0.29273398523E+02 -0.52587706558E+02 -0.43903868671E+02  0.74615151454E+02  0.41800000000E+01 0. -1.
         -5    1    1    2    0  502 -0.25901673371E+02 -0.45146069538E+02  0.82802947737E+02  0.97892108120E+02  0.41800000000E+01 0. -1.
        -11    1    3    3    0    0  0.69822050949E+01  0.72233291003E+02 -0.83695335855E+01  0.73051000058E+02  0.00000000000E+00 0. -1.
         11    1    3    3    0    0  0.48192866799E+02  0.25500485094E+02  0.58784085028E+02  0.80177277348E+02  0.00000000000E+00 0.  1.
</event>
<event>
 7    1  0.4274778E-006  0.8892263E+02  0.7561462E-02  0.1305482E+00
          2   -1    0    0  501    0  0.00000000000E+00  0.00000000000E+00  0.41437753279E+02  0.41437753279E+02  0.00000000000E+00 0. -1.
         -2   -1    0    0    0  501 -0.00000000000E+00 -0.00000000000E+00 -0.31076287180E+03  0.31076287180E+03  0.00000000000E+00 0.  1.
         23    2    1    2    0    0  0.16675140863E+02  0.21858301864E+02 -0.11835732219E+03  0.15189482237E+03  0.91146780884E+02 0.  0.
          5    1    1    2  502    0  0.68597209876E+01 -0.55624312917E+02 -0.14978753410E+02  0.58163179188E+02  0.41800000000E+01 0. -1.
         -5    1    1    2    0  502 -0.23534861851E+02  0.33766011053E+02 -0.13598904292E+03  0.14214262351E+03  0.41800000000E+01 0.  1.
        -11    1    3    3    0    0 -0.16891893746E+02  0.39059653425E+02 -0.20935949215E+02  0.47426854940E+02  0.00000000000E+00 0.  1.
         11    1    3    3    0    0  0.33567034609E+02 -0.17201351561E+02 -0.97421372971E+02  0.10446796743E+03  0.00000000000E+00 0. -1.
</event>
<event>
 7    1  0.4274778E-006  0.8848791E+02  0.7561462E-02  0.1306555E+00
          1   -1    0    0  501    0  0.00000000000E+00  0.00000000000E+00  0.12441117039E+03  0.12441117039E+03  0.00000000000E+00 0. -1.
         -1   -1    0    0    0  501 -0.00000000000E+00 -0.00000000000E+00 -0.11231454405E+03  0.11231454405E+03  0.00000000000E+00 0.  1.
         23    2    1    2    0    0 -0.39640617957E+02 -0.13013392259E+02 -0.12134504237E+02  0.10265840196E+03  0.93009538914E+02 0.  0.
          5    1    1    2  502    0  0.30860040336E+02  0.68151105154E+02  0.59304102071E+01  0.75163537626E+02  0.41800000000E+01 0.  1.
         -5    1    1    2    0  502  0.87805776213E+01 -0.55137712895E+02  0.18300720365E+02  0.58903774858E+02  0.41800000000E+01 0.  1.
        -11    1    3    3    0    0 -0.13758468356E+02  0.48737704520E+01 -0.50773917461E+02  0.52830292297E+02  0.00000000000E+00 0.  1.
         11    1    3    3    0    0 -0.25882149601E+02 -0.17887162711E+02  0.38639413224E+02  0.49828109659E+02  0.00000000000E+00 0. -1.
</event>
<event>
 7    1  0.4274778E-006  0.4185519E+03  0.7561462E-02  0.1037539E+00
          1   -1    0    0  501    0  0.00000000000E+00  0.00000000000E+00  0.39451636128E+03  0.39451636128E+03  0.00000000000E+00 0. -1.
         -1   -1    0    0    0  501 -0.00000000000E+00 -0.00000000000E+00 -0.55849430701E+03  0.55849430701E+03  0.00000000000E+00 0.  1.
         23    2    1    2    0    0 -0.23306902133E+03 -0.34310036781E+03  0.11217915107E+03  0.43925021045E+03  0.91200626939E+02 0.  0.
          5    1    1    2  502    0  0.23123187600E+03  0.33607977982E+03 -0.28791144962E+03  0.49932782228E+03  0.41800000000E+01 0.  1.
         -5    1    1    2    0  502  0.18371453299E+01  0.70205879854E+01  0.11754352830E+02  0.14432635555E+02  0.41800000000E+01 0.  1.
        -11    1    3    3    0    0 -0.19608625351E+03 -0.23251949821E+03  0.10734304959E+03  0.32254870354E+03  0.00000000000E+00 0.  1.
         11    1    3    3    0    0 -0.36982767815E+02 -0.11058086960E+03  0.48361014837E+01  0.11670150691E+03  0.00000000000E+00 0. -1.
</event>
<event>
 7    1  0.4274778E-006  0.1016501E+03  0.7561462E-02  0.1276864E+00
          1   -1    0    0  501    0  0.00000000000E+00  0.00000000000E+00  0.34532747048E+03  0.34532747048E+03  0.00000000000E+00 0.  1.
         -1   -1    0    0    0  501 -0.00000000000E+00 -0.00000000000E+00 -0.35735646176E+02  0.35735646176E+02  0.00000000000E+00 0. -1.
         23    2    1    2    0    0  0.29787222966E+02 -0.77048917475E+01  0.13812151338E+03  0.16659467441E+03  0.87918081620E+02 0.  0.
          5    1    1    2  502    0 -0.24741881123E+01  0.55886527155E+02  0.32551129045E+02  0.64857335178E+02  0.41800000000E+01 0. -1.
         -5    1    1    2    0  502 -0.27313034854E+02 -0.48181635407E+02  0.13891918188E+03  0.14961110707E+03  0.41800000000E+01 0. -1.
        -11    1    3    3    0    0  0.59809078894E+02 -0.12921405120E+02  0.10546085478E+03  0.12192653739E+03  0.00000000000E+00 0. -1.
         11    1    3    3    0    0 -0.30021855928E+02  0.52165133729E+01  0.32660658596E+02  0.44668137023E+02  0.00000000000E+00 0.  1.
</event>
<event>
 7    1  0.4274778E-006  0.1070385E+03  0.7561462E-02  0.1266155E+00
         -3   -1    0    0    0  501 -0.00000000000E+00  0.00000000000E+00  0.10184950338E+03  0.10184950338E+03  0.00000000000E+00 0.  1.
          3   -1    0    0  501    0  0.00000000000E+00 -0.00000000000E+00 -0.16738858928E+03  0.16738858928E+03  0.00000000000E+00 0. -1.
         23    2    1    2    0    0  0.15101242728E+02  0.73445246531E+02 -0.28833632282E+02  0.11885464769E+03  0.87594504147E+02 0.  0.
          5    1    1    2  502    0 -0.47510715735E+02 -0.80631745442E+02 -0.58505249360E+02  0.11044945942E+03  0.41800000000E+01 0. -1.
         -5    1    1    2    0  502  0.32409473007E+02  0.71864989112E+01  0.21799795745E+02  0.39933985548E+02  0.41800000000E+01 0. -1.
        -11    1    3    3    0    0  0.17871432555E+01  0.73599953997E+02 -0.53374764543E+02  0.90934111308E+02  0.00000000000E+00 0. -1.
         11    1    3    3    0    0  0.13314099472E+02 -0.15470746652E+00  0.24541132261E+02  0.27920536381E+02  0.00000000000E+00 0.  1.
</event>
<event>
 7    1  0.4274778E-006  0.1229230E+03  0.7561462E-02  0.1238351E+00
          2   -1    0    0  501    0  0.00000000000E+00  0.00000000000E+00  0.54654502446E+03  0.54654502446E+03  0.00000000000E+00 0. -1.
         -2   -1    0    0    0  501 -0.00000000000E+00 -0.00000000000E+00 -0.39738309997E+02  0.39738309997E+02  0.00000000000E+00 0.  1.
         23    2    1    2    0    0  0.55225746385E+02 -0.48774632963E+02  0.36729575583E+03  0.38493556057E+03  0.88545839286E+02 0.  0.
          5    1    1    2  502    0 -0.74284856722E+02 -0.48340707451E+01  0.11957446495E+03  0.14091534070E+03  0.41800000000E+01 0. -1.
         -5    1    1    2    0  502  0.19059110338E+02  0.53608703708E+02  0.19936493685E+02  0.60432433184E+02  0.41800000000E+01 0. -1.
        -11    1    3    3    0    0  0.39333173643E+02  0.19666295532E+02  0.16616069845E+03  0.17188146915E+03  0.00000000000E+00 0. -1.
         11    1    3    3    0    0  0.15892572742E+02 -0.68440928495E+02  0.20113505738E+03  0.21305409142E+03  0.00000000000E+00 0.  1.
</event>
<event>
 7    1  0.4274778E-006  0.7071551E+02  0.7561462E-02  0.1357677E+00
         -1   -1    0    0    0  501 -0.00000000000E+00  0.00000000000E+00  0.42236077106E+03  0.42236077106E+03  0.00000000000E+00 0.  1.
          1   -1    0    0  501    0  0.00000000000E+00 -0.00000000000E+00 -0.44430054569E+02  0.44430054569E+02  0.00000000000E+00 0. -1.
         23    2    1    2    0    0 -0.57489391611E+02 -0.38984907006E-01  0.72930377394E+02  0.13216062782E+03  0.94034886784E+02 0.  0.
          5    1    1    2  502    0  0.66761106008E+01 -0.87594795013E+01 -0.99736169836E+01  0.15435166654E+02  0.41800000000E+01 0. -1.
         -5    1    1    2    0  502  0.50813281010E+02  0.87984644083E+01  0.31497395608E+03  0.31919503115E+03  0.41800000000E+01 0. -1.
        -11    1    3    3    0    0 -0.63838717956E+02 -0.11446603711E+02  0.89835647906E+02  0.11080094892E+03  0.00000000000E+00 0.  1.
         11    1    3    3    0    0  0.63493263448E+01  0.11407618804E+02 -0.16905270512E+02  0.21359678904E+02  0.00000000000E+00 0. -1.
</event>
<event>
 7    1  0.4274778E-006  0.1123549E+03  0.7561462E-02  0.1256270E+00
          3   -1    0    0  501    0  0.00000000000E+00  0.00000000000E+00  0.39675122932E+02  0.39675122932E+02  0.00000000000E+00 0. -1.
         -3   -1    0    0    0  501 -0.00000000000E+00 -0.00000000000E+00 -0.66008516531E+03  0.66008516531E+03  0.00000000000E+00 0.  1.
         23    2    1    2    0    0  0.55409854253E+02  0.23710909787E+02 -0.48777269316E+02  0.11150499415E+03  0.80135401206E+02 0.  0.
          5    1    1    2  502    0  0.22760165223E+02 -0.45935952909E+02 -0.31067286681E+03  0.31490195214E+03  0.41800000000E+01 0. -1.
         -5    1    1    2    0  502 -0.78170019476E+02  0.22225043122E+02 -0.26095990625E+03  0.27335334195E+03  0.41800000000E+01 0. -1.
        -11    1    3    3    0    0  0.28701469746E+02 -0.23872691624E+02 -0.42516296318E+02  0.56580166345E+02  0.00000000000E+00 0.  1.
         11    1    3    3    0    0  0.26708384507E+02  0.47583601411E+02 -0.62609729977E+01  0.54924827802E+02  0.00000000000E+00 0. -1.
</event>
<event>
 7    1  0.4274778E-006  0.1155766E+03  0.7561462E-02  0.1250578E+00
         -1   -1    0    0    0  501 -0.00000000000E+00  0.00000000000E+00  0.47143776955E+03  0.47143776955E+03  0.00000000000E+00 0.  1.
          1   -1    0    0  501    0  0.00000000000E+00 -0.00000000000E+00 -0.34211518636E+02  0.34211518636E+02  0.00000000000E+00 0. -1.
         23    2    1    2    0    0 -0.58576643653E+02 -0.30232889506E+02  0.19459849231E+03  0.22482613138E+03  0.91285077375E+02 0.  0.
          5    1    1    2  502    0  0.62819798769E+02  0.63752341174E+02  0.10035395280E+03  0.13453280776E+03  0.41800000000E+01 0.  1.
         -5    1    1    2    0  502 -0.42431551162E+01 -0.33519451667E+02  0.14227380580E+03  0.14629034904E+03  0.41800000000E+01 0.  1.
        -11    1    3    3    0    0 -0.17284629921E+02  0.29916030477E+02  0.97018575236E+02  0.10298704410E+03  0.00000000000E+00 0.  1.
         11    1    3    3    0    0 -0.41292013732E+02 -0.60148919984E+02  0.97579917074E+02  0.12183908728E+03  0.00000000000E+00 0. -1.
</event>
<event>
 7    1  0.4274778E-006  0.2142652E+03  0.7561462E-02  0.1138232E+00
          2   -1    0    0  501    0  0.00000000000E+00  0.00000000000E+00  0.67846345088E+03  0.67846345088E+03  0.00000000000E+00 0. -1.
         -2   -1    0    0    0  501 -0.00000000000E+00 -0.00000000000E+00 -0.82263331746E+02  0.82263331746E+02  0.00000000000E+00 0.  1.
         23    2    1    2    0    0 -0.16706299757E+03 -0.10852899845E+03  0.39609073900E+03  0.45188829372E+03  0.87330222825E+02 0.  0.
          5    1    1    2  502    0  0.25424777395E+02  0.64629098957E+02  0.14221957956E+02  0.71014619802E+02  0.41800000000E+01 0.  1.
         -5    1    1    2    0  502  0.14163822018E+03  0.43899899492E+02  0.18588742219E+03  0.23782386911E+03  0.41800000000E+01 0.  1.
        -11    1    3    3    0    0 -0.13593172089E+02  0.98518287765E+01  0.91536597245E+01  0.19121253726E+02  0.00000000000E+00 0.  1.
         11    1    3    3    0    0 -0.15346982549E+03 -0.11838082723E+03  0.38693707927E+03  0.43276703999E+03  0.00000000000E+00 0. -1.
</event>
<event>
 7    1  0.4274778E-006  0.1060878E+03  0.7561462E-02  0.1267991E+00
          4   -1    0    0  501    0  0.00000000000E+00  0.00000000000E+00  0.58364404357E+02  0.58364404357E+02  0.00000000000E+00 0. -1.
         -4   -1    0    0    0  501 -0.00000000000E+00 -0.00000000000E+00 -0.40175527065E+03  0.40175527065E+03  0.00000000000E+00 0.  1.
         23    2    1    2    0    0 -0.41755070073E+02 -0.12709174042E+02 -0.10407270516E+02  0.10174843861E+03  0.91320449507E+02 0.  0.
          5    1    1    2  502    0  0.54255443541E+01 -0.44213685658E+02 -0.48634523507E+02  0.66083854365E+02  0.41800000000E+01 0.  1.
         -5    1    1    2    0  502  0.36329525719E+02  0.56922859699E+02 -0.28434907227E+03  0.29228738204E+03  0.41800000000E+01 0.  1.
        -11    1    3    3    0    0 -0.91555164813E+01  0.38223721839E+02 -0.12486050101E+02  0.41240487877E+02  0.00000000000E+00 0.  1.
         11    1    3    3    0    0 -0.32599553591E+02 -0.50932895880E+02  0.20787795851E+01  0.60507950731E+02  0.00000000000E+00 0. -1.
</event>
<event>
 7    1  0.4274778E-006  0.8276080E+02  0.7561462E-02  0.1321394E+00
         -1   -1    0    0    0  501 -0.00000000000E+00  0.00000000000E+00  0.35896567130E+03  0.35896567130E+03  0.00000000000E+00 0.  1.
          1   -1    0    0  501    0  0.00000000000E+00 -0.00000000000E+00 -0.36942494718E+02  0.36942494718E+02  0.00000000000E+00 0. -1.
         23    2    1    2    0    0  0.25168514823E+02 -0.12903020527E+02  0.92025689265E+02  0.13257307585E+03  0.91142475709E+02 0.  0.
          5    1    1    2  502    0  0.32256918350E+02  0.27446541910E+02  0.18219659591E+03  0.18710129183E+03  0.41800000000E+01 0. -1.
         -5    1    1    2    0  502 -0.57425433173E+02 -0.14543521382E+02  0.47800891407E+02  0.76233798335E+02  0.41800000000E+01 0. -1.
        -11    1    3    3    0    0  0.19803914947E+02 -0.35338121803E+02  0.10021682976E+03  0.10809436094E+03  0.00000000000E+00 0.  1.
         11    1    3    3    0    0  0.53645998763E+01  0.22435101276E+02 -0.81911404943E+01  0.24478714911E+02  0.00000000000E+00 0. -1.
</event>
<event>
 7    1  0.4274778E-006  0.1082888E+03  0.7561462E-02  0.1263772E+00
         -1   -1    0    0    0  501 -0.00000000000E+00  0.00000000000E+00  0.44663150206E+03  0.44663150206E+03  0.00000000000E+00 0.  1.
          1   -1    0    0  501    0  0.00000000000E+00 -0.00000000000E+00 -0.29756239469E+02  0.29756239469E+02  0.00000000000E+00 0. -1.
         23    2    1    2    0    0 -0.14215105294E+02 -0.59355812247E+02  0.90971685296E+02  0.12482513148E+03  0.59835476576E+02 0.  0.
          5    1    1    2  502    0  0.54364410099E+02 -0.61539486014E+01  0.13221656586E+03  0.14315045531E+03  0.41800000000E+01 0. -1.
         -5    1    1    2    0  502 -0.40149304805E+02  0.65509760849E+02  0.19368701143E+03  0.20841215473E+03  0.41800000000E+01 0.  1.
        -11    1    3    3    0    0 -0.21228532257E+01  0.12101102932E+02  0.19436429713E+02  0.22993868704E+02  0.00000000000E+00 0. -1.
         11    1    3    3    0    0 -0.12092252068E+02 -0.71456915179E+02  0.71535255583E+02  0.10183126278E+03  0.00000000000E+00 0.  1.
</event>
<event>
 7    1  0.4274778E-006  0.9014980E+02  0.7561462E-02  0.1302489E+00
         -2   -1    0    0    0  501 -0.00000000000E+00  0.00000000000E+00  0.11830093080E+03  0.11830093080E+03  0.00000000000E+00 0. -1.
          2   -1    0    0  501    0  0.00000000000E+00 -0.00000000000E+00 -0.11708510097E+03  0.11708510097E+03  0.00000000000E+00 0.  1.
         23    2    1    2    0    0  0.96394278283E+01  0.21852292030E+02 -0.30621492253E+02  0.10412288378E+03  0.96609823019E+02 0.  0.
          5    1    1    2  502    0  0.21550503034E+02  0.22142902493E+02 -0.33948727169E+02  0.46094693710E+02  0.41800000000E+01 0.  1.
         -5    1    1    2    0  502 -0.31189930863E+02 -0.43995194524E+02  0.65786049250E+02  0.85168454279E+02  0.41800000000E+01 0.  1.
        -11    1    3    3    0    0  0.27675409121E+02  0.52568303098E+02 -0.33818883106E+02  0.68359868455E+02  0.00000000000E+00 0.  1.
         11    1    3    3    0    0 -0.18035981293E+02 -0.30716011068E+02  0.31973908534E+01  0.35763015328E+02  0.00000000000E+00 0. -1.
</event>
<event>
 7    1  0.4274778E-006  0.1160619E+03  0.7561462E-02  0.1249739E+00
          3   -1    0    0  501    0  0.00000000000E+00  0.00000000000E+00  0.11820879492E+03  0.11820879492E+03  0.00000000000E+00 0. -1.
         -3   -1    0    0    0  501 -0.00000000000E+00 -0.00000000000E+00 -0.23043721863E+03  0.23043721863E+03  0.00000000000E+00 0.  1.
         23    2    1    2    0    0 -0.50201119007E+02  0.36364977436E+02  0.60049536221E+02  0.12690329824E+03  0.93037284844E+02 0.  0.
          5    1    1    2  502    0  0.60772025937E+02  0.30814354195E+02 -0.10984562044E+03  0.12933018322E+03  0.41800000000E+01 0.  1.
         -5    1    1    2    0  502 -0.10570906930E+02 -0.67179331630E+02 -0.62432339495E+02  0.92412532085E+02  0.41800000000E+01 0.  1.
        -11    1    3    3    0    0 -0.49028624684E+02  0.56926072711E+02  0.71179666574E+02  0.10349361684E+03  0.00000000000E+00 0. -1.
         11    1    3    3    0    0 -0.11724943233E+01 -0.20561095275E+02 -0.11130130352E+02  0.23409681405E+02  0.00000000000E+00 0.  1.
</event>
<event>
 7    1  0.4274778E-006  0.8910118E+02  0.7561462E-02  0.1305043E+00
          1   -1    0    0  501    0  0.00000000000E+00  0.00000000000E+00  0.10488904935E+03  0.10488904935E+03  0.00000000000E+00 0. -1.
         -1   -1    0    0    0  501 -0.00000000000E+00 -0.00000000000E+00 -0.14089621923E+03  0.14089621923E+03  0.00000000000E+00 0.  1.
         23    2    1    2    0    0  0.48475934372E+02  0.34682377817E+02 -0.18874296541E+02  0.10617326668E+03  0.85812236559E+02 0.  0.
          5    1    1    2  502    0  0.70043121529E+01 -0.27876550860E+02  0.46491450738E+02  0.54818699988E+02  0.41800000000E+01 0.  1.
         -5    1    1    2    0  502 -0.55480246525E+02 -0.68058269569E+01 -0.63624324080E+02  0.84793301915E+02  0.41800000000E+01 0.  1.
        -11    1    3    3    0    0  0.42817174239E+02 -0.13264782647E+02 -0.33236271671E+02  0.55802460726E+02  0.00000000000E+00 0.  1.
         11    1    3    3    0    0  0.56587601325E+01  0.47947160464E+02  0.14361975130E+02  0.50370805954E+02  0.00000000000E+00 0. -1.
</event>
<event>
 7    1  0.4274778E-006  0.1015542E+03  0.7561462E-02  0.1277061E+00
          2   -1    0    0  501    0  0.00000000000E+00  0.00000000000E+00  0.25887229250E+02  0.25887229250E+02  0.00000000000E+00 0. -1.
         -2   -1    0    0    0  501 -0.00000000000E+00 -0.00000000000E+00 -0.59509173437E+03  0.59509173437E+03  0.00000000000E+00 0.  1.
         23    2    1    2    0    0  0.51470812488E+02 -0.11470959203E+02 -0.19712194570E+03  0.22489107208E+03  0.94541553731E+02 0.  0.
          5    1    1    2  502    0  0.18298549304E+02  0.17144308394E+02 -0.10065019619E+02  0.27341200355E+02  0.41800000000E+01 0. -1.
         -5    1    1    2    0  502 -0.69769361792E+02 -0.56733491913E+01 -0.36201753980E+03  0.36874669118E+03  0.41800000000E+01 0. -1.
        -11    1    3    3    0    0  0.33722036702E+02 -0.52762526238E+02 -0.10203412214E+03  0.11971642333E+03  0.00000000000E+00 0. -1.
         11    1    3    3    0    0  0.17748775785E+02  0.41291567036E+02 -0.95087823559E+02  0.10517464875E+03  0.00000000000E+00 0.  1.
</event>
<event>
 7    1  0.4274778E-006  0.8121474E+02  0.7561462E-02  0.1325639E+00
          1   -1    0    0  501    0  0.00000000000E+00  0.00000000000E+00  0.19929222827E+03  0.19929222827E+03  0.00000000000E+00 0. -1.
         -1   -1    0    0    0  501 -0.00000000000E+00 -0.00000000000E+00 -0.59942063735E+02  0.59942063735E+02  0.00000000000E+00 0.  1.
         23    2    1    2    0    0 -0.93371677441E+01 -0.13196037042E+02  0.48373452360E+02  0.10371755245E+03  0.90310695367E+02 0.  0.
          5    1    1    2  502    0 -0.42252962859E+02  0.26350672719E+02  0.89007420698E+02  0.10207577657E+03  0.41800000000E+01 0. -1.
         -5    1    1    2    0  502  0.51590130603E+02 -0.13154635677E+02  0.19692914728E+01  0.53440962981E+02  0.41800000000E+01 0. -1.
        -11    1    3    3    0    0  0.22120007402E+02 -0.16251385654E+02 -0.16165973857E+02  0.31854999198E+02  0.00000000000E+00 0.  1.
         11    1    3    3    0    0 -0.31457175146E+02  0.30553486122E+01  0.64539426217E+02  0.71862553251E+02  0.00000000000E+00 0. -1.
</event>
<event>
 7    1  0.4274778E-006  0.2476142E+03  0.7561462E-02  0.1114822E+00
          4   -1    0    0  501    0  0.00000000000E+00  0.00000000000E+00  0.53305217010E+03  0.53305217010E+03  0.00000000000E+00 0. -1.
         -4   -1    0    0    0  501 -0.00000000000E+00 -0.00000000000E+00 -0.12363919075E+03  0.12363919075E+03  0.00000000000E+00 0.  1.
         23    2    1    2    0    0 -0.23132216546E+03 -0.18112636291E+02  0.18092187058E+03  0.30784622498E+03  0.90545917362E+02 0.  0.
          5    1    1    2  502    0  0.18084793369E+03  0.51425808902E+02  0.21698490699E+03  0.28714197046E+03  0.41800000000E+01 0. -1.
         -5    1    1    2    0  502  0.50474231771E+02 -0.33313172610E+02  0.11506201780E+02  0.61703165410E+02  0.41800000000E+01 0. -1.
        -11    1    3    3    0    0 -0.43951176799E+02 -0.38025456765E+02  0.24972712181E+02  0.63255653170E+02  0.00000000000E+00 0.  1.
         11    1    3    3    0    0 -0.18737098866E+03  0.19912820474E+02  0.15594915840E+03  0.24459057181E+03  0.00000000000E+00 0. -1.
</event>
<event>
 7    1  0.4274778E-006  0.1398822E+03  0.7561462E-02  0.1213488E+00
          1   -1    0    0  501    0  0.00000000000E+00  0.00000000000E+00  0.68674630282E+03  0.68674630282E+03  0.00000000000E+00 0. -1.
         -1   -1    0    0    0  501 -0.00000000000E+00 -0.00000000000E+00 -0.35632226596E+02  0.35632226596E+02  0.00000000000E+00 0.  1.
         23    2    1    2    0    0  0.67434820142E+02 -0.90027842154E+02  0.33384704777E+03  0.36326871681E+03  0.88644469509E+02 0.  0.
          5    1    1    2  502    0 -0.44517569480E+02 -0.13818606626E+02  0.17673207397E+03  0.18282359326E+03  0.41800000000E+01 0. -1.
         -5    1    1    2    0  502 -0.22917250662E+02  0.10384644878E+03  0.14053495448E+03  0.17628621935E+03  0.41800000000E+01 0. -1.
        -11    1    3    3    0    0  0.62598987002E+02 -0.35837539516E+02  0.26958938570E+03  0.27907239078E+03  0.00000000000E+00 0. -1.
         11    1    3    3    0    0  0.48358331401E+01 -0.54190302638E+02  0.64257662076E+02  0.84196326034E+02  0.00000000000E+00 0.  1.
</event>
<event>
 7    1  0.4274778E-006  0.5985611E+02  0.7561462E-02  0.1398437E+00
          1   -1    0    0  501    0  0.00000000000E+00  0.00000000000E+00  0.71644963128E+02  0.71644963128E+02  0.00000000000E+00 0. -1.
         -1   -1    0    0    0  501 -0.00000000000E+00 -0.00000000000E+00 -0.18290532377E+03  0.18290532377E+03  0.00000000000E+00 0.  1.
         23    2    1    2    0    0  0.20641519517E+02  0.97541172523E+01 -0.12284639171E+02  0.93412932008E+02  0.89743235820E+02 0.  0.
          5    1    1    2  502    0 -0.31721071273E+02 -0.18976437061E+02  0.19303390585E+02  0.41909722193E+02  0.41800000000E+01 0. -1.
         -5    1    1    2    0  502  0.11079551756E+02  0.92223198089E+01 -0.11827911205E+03  0.11922763269E+03  0.41800000000E+01 0. -1.
        -11    1    3    3    0    0  0.28007542278E+02 -0.21553521050E+02  0.25658109338E+02  0.43672820712E+02  0.00000000000E+00 0. -1.
         11    1    3    3    0    0 -0.73660227615E+01  0.31307638302E+02 -0.37942748509E+02  0.49740111297E+02  0.00000000000E+00 0.  1.
</event>
<event>
 7    1  0.4274778E-006  0.8742846E+02  0.7561462E-02  0.1309201E+00
          1   -1    0    0  501    0  0.00000000000E+00  0.00000000000E+00  0.20133856515E+03  0.20133856515E+03  0.00000000000E+00 0. -1.
         -1   -1    0    0    0  501 -0.00000000000E+00 -0.00000000000E+00 -0.57972728324E+02  0.57972728324E+02  0.00000000000E+00 0.  1.
         23    2    1    2    0    0 -0.19739800064E+01 -0.11212762149E+02  0.65445083130E+02  0.11150442212E+03  0.89557549170E+02 0.  0.
          5    1    1    2  502    0 -0.43002592743E+02 -0.34363993873E+02  0.59238642520E+02  0.80974046615E+02  0.41800000000E+01 0.  1.
         -5    1    1    2    0  502  0.44976572749E+02  0.45576756022E+02  0.18682111181E+02  0.66832824749E+02  0.41800000000E+01 0.  1.
        -11    1    3    3    0    0  0.26169226985E+02 -0.45417577288E+01 -0.11768983110E+02  0.29051075155E+02  0.00000000000E+00 0.  1.
         11    1    3    3    0    0 -0.28143206991E+02 -0.66710044197E+01  0.77214066240E+02  0.82453346960E+02  0.00000000000E+00 0. -1.
</event>
<event>
 7    1  0.4274778E-006  0.1031076E+03  0.7561462E-02  0.1273894E+00
          1   -1    0    0  501    0  0.00000000000E+00  0.00000000000E+00  0.38377383864E+02  0.38377383864E+02  0.00000000000E+00 0. -1.
         -1   -1    0    0    0  501 -0.00000000000E+00 -0.00000000000E+00 -0.33979533364E+03  0.33979533364E+03  0.00000000000E+00 0.  1.
         23    2    1    2    0    0  0.58307970104E+01  0.34776739429E+02 -0.11303241697E+03  0.14930657504E+03  0.90954418609E+02 0.  0.
          5    1    1    2  502    0  0.38879512223E+02  0.15549820885E+02 -0.18287661616E+02  0.45883813787E+02  0.41800000000E+01 0.  1.
         -5    1    1    2    0  502 -0.44710309234E+02 -0.50326560314E+02 -0.17009787120E+03  0.18298232868E+03  0.41800000000E+01 0.  1.
        -11    1    3    3    0    0  0.96943210159E+01 -0.30136367433E+02 -0.28030964449E+02  0.42283749478E+02  0.00000000000E+00 0. -1.
         11    1    3    3    0    0 -0.38635240055E+01  0.64913106862E+02 -0.85001452519E+02  0.10702282556E+03  0.00000000000E+00 0.  1.
</event>
<event>
 7    1  0.4274778E-006  0.1318822E+03  0.7561462E-02  0.1224689E+00
         -2   -1    0    0    0  501 -0.00000000000E+00  0.00000000000E+00  0.38065101807E+02  0.38065101807E+02  0.00000000000E+00 0.  1.
          2   -1    0    0  501    0  0.00000000000E+00 -0.00000000000E+00 -0.58656862775E+03  0.58656862775E+03  0.00000000000E+00 0. -1.
         23    2    1    2    0    0 -0.71521033695E+02 -0.69391404473E+02 -0.20116904332E+03  0.24224687300E+03  0.91017241303E+02 0.  0.
          5    1    1    2  502    0  0.57401722105E+02  0.10417798069E+03 -0.22768794415E+03  0.25691882312E+03  0.41800000000E+01 0. -1.
         -5    1    1    2    0  502  0.14119311590E+02 -0.34786576222E+02 -0.11964653847E+03  0.12546803343E+03  0.41800000000E+01 0. -1.
        -11    1    3    3    0    0 -0.84853804063E+01 -0.33236441011E+02 -0.71146994207E+01  0.35032579688E+02  0.00000000000E+00 0. -1.
         11    1    3    3    0    0 -0.63035653289E+02 -0.36154963462E+02 -0.19405434390E+03  0.20721429332E+03  0.00000000000E+00 0.  1.
</event>
<event>
 7    1  0.4274778E-006  0.1286444E+03  0.7561462E-02  0.1229481E+00
          3   -1    0    0  501    0  0.00000000000E+00  0.00000000000E+00  0.13297323060E+03  0.13297323060E+03  0.00000000000E+00 0. -1.
         -3   -1    0    0    0  501 -0.00000000000E+00 -0.00000000000E+00 -0.14817728024E+03  0.14817728024E+03  0.00000000000E+00 0.  1.
         23    2    1    2    0    0  0.87061583221E+02  0.11333751706E+02  0.79749714010E+01  0.12652001826E+03  0.90749885135E+02 0.  0.
          5    1    1    2  502    0 -0.97859002479E+02 -0.36793593455E+02  0.16665099010E+02  0.10594975607E+03  0.41800000000E+01 0. -1.
         -5    1    1    2    0  502  0.10797419258E+02  0.25459841749E+02 -0.39844120048E+02  0.48680736508E+02  0.41800000000E+01 0. -1.
        -11    1    3    3    0    0 -0.71749980038E+01 -0.23230662041E+02 -0.63462613808E+01  0.25128057798E+02  0.00000000000E+00 0. -1.
         11    1    3    3    0    0  0.94236581225E+02  0.34564413747E+02  0.14321232782E+02  0.10139196047E+03  0.00000000000E+00 0.  1.
</event>
<event>
 7    1  0.4274778E-006  0.1157122E+03  0.7561462E-02  0.1250343E+00
         -2   -1    0    0    0  501 -0.00000000000E+00  0.00000000000E+00  0.11572882357E+03  0.11572882357E+03  0.00000000000E+00 0.  1.
          2   -1    0    0  501    0  0.00000000000E+00 -0.00000000000E+00 -0.13626495616E+03  0.13626495616E+03  0.00000000000E+00 0. -1.
         23    2    1    2    0    0 -0.49609484601E+02 -0.40591828380E+02 -0.88341501626E+01  0.11095272634E+03  0.90131391748E+02 0.  0.
          5    1    1    2  502    0  0.79802995665E+02 -0.49186772676E+01 -0.26442290827E+02  0.84317131399E+02  0.41800000000E+01 0.  1.
         -5    1    1    2    0  502 -0.30193511063E+02  0.45510505648E+02  0.14740308401E+02  0.56723921995E+02  0.41800000000E+01 0.  1.
        -11    1    3    3    0    0 -0.48701159448E+02  0.68100662932E+01  0.22546704744E+02  0.54097447531E+02  0.00000000000E+00 0.  1.
         11    1    3    3    0    0 -0.90832515334E+00 -0.47401894674E+02 -0.31380854907E+02  0.56855278805E+02  0.00000000000E+00 0. -1.
</event>
<event>
 7    1  0.4274778E-006  0.1452635E+03  0.7561462E-02  0.1206417E+00
         -1   -1    0    0    0  501 -0.00000000000E+00  0.00000000000E+00  0.77936965143E+02  0.77936965143E+02  0.00000000000E+00 0.  1.
          1   -1    0    0  501    0  0.00000000000E+00 -0.00000000000E+00 -0.48257772482E+03  0.48257772482E+03  0.00000000000E+00 0. -1.
         23    2    1    2    0    0 -0.16420233080E+02 -0.13898732093E+03 -0.30325244649E+03  0.34717003962E+03  0.94751731776E+02 0.  0.
          5    1    1    2  502    0  0.19561278863E+01  0.65356226070E+02 -0.11927980901E+03  0.13608970556E+03  0.41800000000E+01 0. -1.
         -5    1    1    2    0  502  0.14464105194E+02  0.73631094860E+02  0.17891495828E+02  0.77254944776E+02  0.41800000000E+01 0. -1.
        -11    1    3    3    0    0 -0.36221577022E+02 -0.89794052364E+02 -0.10893015425E+03  0.14574207693E+03  0.00000000000E+00 0.  1.
         11    1    3    3    0    0  0.19801343941E+02 -0.49193268566E+02 -0.19432229224E+03  0.20142796269E+03  0.00000000000E+00 0. -1.
</event>
<event>
 7    1  0.4274778E-006  0.1333069E+03  0.7561462E-02  0.1222630E+00
          1   -1    0    0  501    0  0.00000000000E+00  0.00000000000E+00  0.29063776277E+03  0.29063776277E+03  0.00000000000E+00 0. -1.
         -1   -1    0    0    0  501 -0.00000000000E+00 -0.00000000000E+00 -0.75576697882E+02  0.75576697882E+02  0.00000000000E+00 0.  1.
         23    2    1    2    0    0 -0.38416068127E+02  0.84251925856E+02  0.15334601933E+03  0.19879185774E+03  0.86191761543E+02 0.  0.
          5    1    1    2  502    0  0.36422989771E+02  0.15825414062E+02 -0.13493387202E+02  0.42149991842E+02  0.41800000000E+01 0.  1.
         -5    1    1    2    0  502  0.19930783558E+01 -0.10007733992E+03  0.75208432761E+02  0.12527261107E+03  0.41800000000E+01 0.  1.
        -11    1    3    3    0    0  0.16906310930E+02 -0.81749175614E+01  0.23467406435E+02  0.30056143984E+02  0.00000000000E+00 0. -1.
         11    1    3    3    0    0 -0.55322379057E+02  0.92426843417E+02  0.12987861289E+03  0.16873571375E+03  0.00000000000E+00 0.  1.
</event>
<event>
 7    1  0.7601667E-006  0.4771564E+03  0.7561462E-02  0.1019920E+00
          2   -1    0    0  501    0  0.00000000000E+00  0.00000000000E+00  0.15974675473E+04  0.15974675473E+04  0.00000000000E+00 0. -1.
         -2   -1    0    0    0  501 -0.00000000000E+00 -0.00000000000E+00 -0.41966257021E+03  0.41966257021E+03  0.00000000000E+00 0.  1.
         23    2    1    2    0    0  0.92884222353E+02  0.13199412862E+03  0.24723563079E+03  0.30912889739E+03  0.91571225375E+02 0.  0.
          5    1    1    2  502    0  0.32291931035E+03 -0.16533359465E+03  0.11714119357E+04  0.12263096974E+04  0.41800000000E+01 0. -1.
         -5    1    1    2    0  502 -0.41580353271E+03  0.33339466024E+02 -0.24084258937E+03  0.48169152272E+03  0.41800000000E+01 0.  1.
        -11    1    3    3    0    0  0.83935254543E+02  0.63446703407E+02  0.19812690409E+03  0.22433207807E+03  0.00000000000E+00 0. -1.
         11    1    3    3    0    0  0.89489678098E+01  0.68547425215E+02  0.49108726707E+02  0.84796819323E+02  0.00000000000E+00 0.  1.
</event>
<event>
 7    1  0.4274778E-006  0.8271057E+02  0.7561462E-02  0.1321531E+00
         -1   -1    0    0    0  501 -0.00000000000E+00  0.00000000000E+00  0.13322443986E+03  0.13322443986E+03  0.00000000000E+00 0.  1.
          1   -1    0    0  501    0  0.00000000000E+00 -0.00000000000E+00 -0.30011198397E+03  0.30011198397E+03  0.00000000000E+00 0. -1.
         23    2    1    2    0    0  0.18953652516E+02 -0.36082209501E+02 -0.25539505859E+03  0.27477177427E+03  0.92799381449E+02 0.  0.
          5    1    1    2  502    0 -0.30731191150E+00 -0.12249748835E+02  0.10363090763E+03  0.10443652715E+03  0.41800000000E+01 0. -1.
         -5    1    1    2    0  502 -0.18646340605E+02  0.48331958336E+02 -0.15123393152E+02  0.54128122404E+02  0.41800000000E+01 0. -1.
        -11    1    3    3    0    0  0.94597485814E+01 -0.67254106164E+02 -0.18851185914E+03  0.20037295894E+03  0.00000000000E+00 0. -1.
         11    1    3    3    0    0  0.94939039348E+01  0.31171896663E+02 -0.66883199452E+02  0.74398815330E+02  0.00000000000E+00 0.  1.
</event>
<event>
 7    1  0.4274778E-006  0.1122776E+03  0.7561462E-02  0.1256409E+00
         -1   -1    0    0    0  501 -0.00000000000E+00  0.00000000000E+00  0.17943626028E+03  0.17943626028E+03  0.00000000000E+00 0.  1.
          1   -1    0    0  501    0  0.00000000000E+00 -0.00000000000E+00 -0.13256880513E+03  0.13256880513E+03  0.00000000000E+00 0. -1.
         23    2    1    2    0    0 -0.10698095042E+03 -0.10834812103E+02  0.26578658530E+01  0.14122791045E+03  0.91520170093E+02 0.  0.
          5    1    1    2  502    0  0.60793929054E+02  0.16603930836E+02 -0.39793352386E+02  0.74649686022E+02  0.41800000000E+01 0. -1.
         -5    1    1    2    0  502  0.46187021367E+02 -0.57691187337E+01  0.84002941680E+02  0.96127468939E+02  0.41800000000E+01 0. -1.
        -11    1    3    3    0    0 -0.97536107158E+02 -0.22053031421E+02  0.34814543524E+02  0.10588522482E+03  0.00000000000E+00 0.  1.
         11    1    3    3    0    0 -0.94448432621E+01  0.11218219318E+02 -0.32156677671E+02  0.35342685633E+02  0.00000000000E+00 0. -1.
</event>
<event>
 7    1  0.4274778E-006  0.1265087E+03  0.7561462E-02  0.1232730E+00
          2   -1    0    0  501    0  0.00000000000E+00  0.00000000000E+00  0.20750888434E+03  0.20750888434E+03  0.00000000000E+00 0. -1.
         -2   -1    0    0    0  501 -0.00000000000E+00 -0.00000000000E+00 -0.11318141220E+03  0.11318141220E+03  0.00000000000E+00 0.  1.
         23    2    1    2    0    0 -0.67497635593E+02  0.28286889888E+02  0.12651653792E+03  0.17223056378E+03  0.91109021400E+02 0.  0.
          5    1    1    2  502    0  0.99356296832E+02 -0.44373189255E+02 -0.21814141879E+02  0.11105846582E+03  0.41800000000E+01 0.  1.
         -5    1    1    2    0  502 -0.31858661239E+02  0.16086299367E+02 -0.10374923902E+02  0.37401266947E+02  0.41800000000E+01 0.  1.
        -11    1    3    3    0    0 -0.22833597300E+02 -0.28130949094E+02  0.76354418738E+02  0.84514618401E+02  0.00000000000E+00 0. -1.
         11    1    3    3    0    0 -0.44664038292E+02  0.56417838982E+02  0.50162119186E+02  0.87715945376E+02  0.00000000000E+00 0.  1.
</event>
<event>
 7    1  0.4274778E-006  0.3291810E+03  0.7561462E-02  0.1071500E+00
          2   -1    0    0  501    0  0.00000000000E+00  0.00000000000E+00  0.84383970775E+03  0.84383970775E+03  0.00000000000E+00 0. -1.
         -2   -1    0    0    0  501 -0.00000000000E+00 -0.00000000000E+00 -0.13662357332E+03  0.13662357332E+03  0.00000000000E+00 0.  1.
         23    2    1    2    0    0 -0.30724038391E+03 -0.92946077580E+02  0.37295878718E+03  0.50045609897E+03  0.91227316158E+02 0.  0.
          5    1    1    2  502    0  0.22000888152E+03  0.43133331577E+02  0.14899906455E+03  0.26922590120E+03  0.41800000000E+01 0. -1.
         -5    1    1    2    0  502  0.87231502393E+02  0.49812746004E+02  0.18525828270E+03  0.21078128091E+03  0.41800000000E+01 0. -1.
        -11    1    3    3    0    0 -0.22574324449E+03 -0.24330142641E+02  0.24762564828E+03  0.33596194719E+03  0.00000000000E+00 0. -1.
         11    1    3    3    0    0 -0.81497139417E+02 -0.68615934939E+02  0.12533313891E+03  0.16449415178E+03  0.00000000000E+00 0.  1.
</event>
<event>
 7    1  0.4274778E-006  0.1384403E+03  0.7561462E-02  0.1215443E+00
          1   -1    0    0  501    0  0.00000000000E+00  0.00000000000E+00  0.33163963488E+02  0.33163963488E+02  0.00000000000E+00 0. -1.
         -1   -1    0    0    0  501 -0.00000000000E+00 -0.00000000000E+00 -0.61880921851E+03  0.61880921851E+03  0.00000000000E+00 0.  1.
         23    2    1    2    0    0  0.29197319125E+02  0.82004755139E+02 -0.18684810802E+03  0.22504935700E+03  0.90320176642E+02 0.  0.
          5    1    1    2  502    0 -0.73796602598E+02 -0.21991231733E+02 -0.21760658267E+03  0.23086716971E+03  0.41800000000E+01 0.  1.
         -5    1    1    2    0  502  0.44599283473E+02 -0.60013523406E+02 -0.18119056434E+03  0.19605665529E+03  0.41800000000E+01 0.  1.
        -11    1    3    3    0    0  0.57498289966E+02  0.28108774629E+02 -0.10639134476E+03  0.12415826513E+03  0.00000000000E+00 0.  1.
         11    1    3    3    0    0 -0.28300970841E+02  0.53895980510E+02 -0.80456763253E+02  0.10089109187E+03  0.00000000000E+00 0. -1.
</event>
<event>
 7    1  0.4274778E-006  0.1227875E+03  0.7561462E-02  0.1238568E+00
         -1   -1    0    0    0  501 -0.00000000000E+00  0.00000000000E+00  0.32273119010E+03  0.32273119010E+03  0.00000000000E+00 0.  1.
          1   -1    0    0  501    0  0.00000000000E+00 -0.00000000000E+00 -0.61740980645E+02  0.61740980645E+02  0.00000000000E+00 0. -1.
         23    2    1    2    0    0  0.75786998848E+02 -0.78923909851E+01  0.65121108354E+02  0.13989463853E+03  0.97589918058E+02 0.  0.
          5    1    1    2  502    0 -0.10735138810E+03 -0.11066452598E+02  0.13009418506E+03  0.16908209925E+03  0.41800000000E+01 0.  1.
         -5    1    1    2    0  502  0.31564389249E+02  0.18958843583E+02  0.65774916037E+02  0.75495432964E+02  0.41800000000E+01 0.  1.
        -11    1    3    3    0    0  0.27440593124E+02 -0.35479908453E+02  0.70937201561E+02  0.83927925151E+02  0.00000000000E+00 0.  1.
         11    1    3    3    0    0  0.48346405724E+02  0.27587517468E+02 -0.58160932064E+01  0.55966713380E+02  0.00000000000E+00 0. -1.
</event>
<event>
 7    1  0.4274778E-006  0.2026201E+03  0.7561462E-02  0.1147547E+00
         -2   -1    0    0    0  501 -0.00000000000E+00  0.00000000000E+00  0.15524291253E+03  0.15524291253E+03  0.00000000000E+00 0. -1.
          2   -1    0    0  501    0  0.00000000000E+00 -0.00000000000E+00 -0.31699514954E+03  0.31699514954E+03  0.00000000000E+00 0.  1.
         23    2    1    2    0    0  0.16221042206E+03 -0.58162441726E+02 -0.17025673625E+03  0.25913276924E+03  0.92018178660E+02 0.  0.
          5    1    1    2  502    0 -0.96517370777E+02  0.96188277743E+02 -0.21353912906E+01  0.13634448993E+03  0.41800000000E+01 0.  1.
         -5    1    1    2    0  502 -0.65693051282E+02 -0.38025836017E+02  0.10639890538E+02  0.76760802902E+02  0.41800000000E+01 0.  1.
        -11    1    3    3    0    0  0.86022334370E+02 -0.75840464508E+02 -0.80685459255E+02  0.14022040295E+03  0.00000000000E+00 0. -1.
         11    1    3    3    0    0  0.76188087688E+02  0.17678022782E+02 -0.89571276996E+02  0.11891236630E+03  0.00000000000E+00 0.  1.
</event>
<event>
 7    1  0.4274778E-006  0.1884781E+03  0.7561462E-02  0.1159841E+00
          2   -1    0    0  501    0  0.00000000000E+00  0.00000000000E+00  0.11477445810E+04  0.11477445810E+04  0.00000000000E+00 0. -1.
         -2   -1    0    0    0  501 -0.00000000000E+00 -0.00000000000E+00 -0.42238525478E+02  0.42238525478E+02  0.00000000000E+00 0.  1.
         23    2    1    2    0    0 -0.14027693932E+03  0.67625145852E+02  0.83131050972E+03  0.85074535463E+03  0.91867920352E+02 0.  0.
          5    1    1    2  502    0  0.11359974198E+03 -0.10294955193E+03  0.23078794826E+03  0.27709937041E+03  0.41800000000E+01 0. -1.
         -5    1    1    2    0  502  0.26677197332E+02  0.35324406080E+02  0.43407597515E+02  0.62138381411E+02  0.41800000000E+01 0. -1.
        -11    1    3    3    0    0 -0.88814558194E+02  0.86821676898E+02  0.52003945106E+03  0.53466537197E+03  0.00000000000E+00 0.  1.
         11    1    3    3    0    0 -0.51462381122E+02 -0.19196531046E+02  0.31127105867E+03  0.31607998266E+03  0.00000000000E+00 0. -1.
</event>
<event>
 7    1  0.4274778E-006  0.1188124E+03  0.7561462E-02  0.1245069E+00
         -1   -1    0    0    0  501 -0.00000000000E+00  0.00000000000E+00  0.47333871551E+02  0.47333871551E+02  0.00000000000E+00 0.  1.
          1   -1    0    0  501    0  0.00000000000E+00 -0.00000000000E+00 -0.38459503576E+03  0.38459503576E+03  0.00000000000E+00 0. -1.
         23    2    1    2    0    0  0.36249808542E+02  0.48725292944E+02 -0.23578672064E+03  0.25978792689E+03  0.90588004370E+02 0.  0.
          5    1    1    2  502    0  0.44418758443E+02 -0.35768651694E+02 -0.44236822178E+02  0.72296551660E+02  0.41800000000E+01 0. -1.
         -5    1    1    2    0  502 -0.80668566984E+02 -0.12956641250E+02 -0.57237621390E+02  0.99844428759E+02  0.41800000000E+01 0. -1.
        -11    1    3    3    0    0  0.38000650682E+02 -0.10465820731E+02 -0.15304435093E+03  0.15803846433E+03  0.00000000000E+00 0. -1.
         11    1    3    3    0    0 -0.17508421405E+01  0.59191113675E+02 -0.82742369709E+02  0.10174946256E+03  0.00000000000E+00 0.  1.
</event>
<event>
 7    1  0.4274778E-006  0.1490868E+03  0.7561462E-02  0.1201600E+00
         -2   -1    0    0    0  501 -0.00000000000E+00  0.00000000000E+00  0.26676055452E+02  0.26676055452E+02  0.00000000000E+00 0.  1.
          2   -1    0    0  501    0  0.00000000000E+00 -0.00000000000E+00 -0.11194108595E+04  0.11194108595E+04  0.00000000000E+00 0. -1.
         23    2    1    2    0    0  0.36166374862E+02  0.12259619352E+03 -0.56034363954E+03  0.58344822637E+03  0.10044403983E+03 0.  0.
          5    1    1    2  502    0 -0.40550610308E+02 -0.49005185160E+02 -0.43889888863E+03  0.44350373957E+03  0.41800000000E+01 0. -1.
         -5    1    1    2    0  502  0.43842354457E+01 -0.73591008357E+02 -0.93492275908E+02  0.11913494905E+03  0.41800000000E+01 0.  1.
        -11    1    3    3    0    0 -0.25796757369E+02  0.83331561659E+02 -0.25864006126E+03  0.27295476392E+03  0.00000000000E+00 0.  1.
         11    1    3    3    0    0  0.61963132231E+02  0.39264631857E+02 -0.30170357829E+03  0.31049346245E+03  0.00000000000E+00 0. -1.
</event>
<event>
 7    1  0.4274778E-006  0.1851196E+03  0.7561462E-02  0.1162938E+00
          1   -1    0    0  501    0  0.00000000000E+00  0.00000000000E+00  0.39703688503E+03  0.39703688503E+03  0.00000000000E+00 0. -1.
         -1   -1    0    0    0  501 -0.00000000000E+00 -0.00000000000E+00 -0.10846809015E+03  0.10846809015E+03  0.00000000000E+00 0.  1.
         23    2    1    2    0    0  0.23392264604E+02 -0.15154267836E+03  0.24386724856E+03  0.30263008233E+03  0.92743465551E+02 0.  0.
          5    1    1    2  502    0 -0.42968516781E+02  0.16635616140E+03  0.31640233852E+02  0.17475480728E+03  0.41800000000E+01 0.  1.
         -5    1    1    2    0  502  0.19576252177E+02 -0.14813483043E+02  0.13061312461E+02  0.28120085568E+02  0.41800000000E+01 0.  1.
        -11    1    3    3    0    0  0.50689251722E+02 -0.12707691475E+03  0.15641834062E+03  0.20780914269E+03  0.00000000000E+00 0.  1.
         11    1    3    3    0    0 -0.27296987118E+02 -0.24465763615E+02  0.87448907941E+02  0.94820939644E+02  0.00000000000E+00 0. -1.
</event>
<event>
 7    1  0.4274778E-006  0.1080888E+03  0.7561462E-02  0.1264151E+00
          4   -1    0    0  501    0  0.00000000000E+00  0.00000000000E+00  0.64490820203E+02  0.64490820203E+02  0.00000000000E+00 0. -1.
         -4   -1    0    0    0  501 -0.00000000000E+00 -0.00000000000E+00 -0.19142308332E+03  0.19142308332E+03  0.00000000000E+00 0.  1.
         23    2    1    2    0    0 -0.14482838030E+02 -0.37320464902E+01 -0.31259947245E+02  0.97725448605E+02  0.91375041641E+02 0.  0.
          5    1    1    2  502    0 -0.39624880814E+02  0.41461465906E+02 -0.29373444655E+02  0.64571324793E+02  0.41800000000E+01 0.  1.
         -5    1    1    2    0  502  0.54107718844E+02 -0.37729419416E+02 -0.66298871213E+02  0.93617130121E+02  0.41800000000E+01 0.  1.
        -11    1    3    3    0    0 -0.79728829463E+01  0.43842030884E+02 -0.14246917435E+02  0.46783172091E+02  0.00000000000E+00 0. -1.
         11    1    3    3    0    0 -0.65099550834E+01 -0.47574077374E+02 -0.17013029810E+02  0.50942276514E+02  0.00000000000E+00 0.  1.
</event>
<event>
 7    1  0.4274778E-006  0.1517671E+03  0.7561462E-02  0.1198318E+00
         -3   -1    0    0    0  501 -0.00000000000E+00  0.00000000000E+00  0.36938903508E+03  0.36938903508E+03  0.00000000000E+00 0.  1.
          3   -1    0    0  501    0  0.00000000000E+00 -0.00000000000E+00 -0.69865132417E+02  0.69865132417E+02  0.00000000000E+00 0. -1.
         23    2    1    2    0    0  0.75392808971E+02  0.85565791384E+02  0.92906834692E+02  0.17215011157E+03  0.89433778190E+02 0.  0.
          5    1    1    2  502    0  0.18375538682E+02 -0.59724646225E+02  0.12599428438E+03  0.14070083825E+03  0.41800000000E+01 0. -1.
         -5    1    1    2    0  502 -0.93768347653E+02 -0.25841145159E+02  0.80622783594E+02  0.12640321768E+03  0.41800000000E+01 0. -1.
        -11    1    3    3    0    0  0.60299862131E+02  0.10370157368E+03  0.68215371063E+02  0.13799792247E+03  0.00000000000E+00 0.  1.
         11    1    3    3    0    0  0.15092946840E+02 -0.18135782301E+02  0.24691463629E+02  0.34152189096E+02  0.00000000000E+00 0. -1.
</event>
<event>
 7    1  0.4274778E-006  0.1283953E+03  0.7561462E-02  0.1229856E+00
         -1   -1    0    0    0  501 -0.00000000000E+00  0.00000000000E+00  0.59215483672E+02  0.59215483672E+02  0.00000000000E+00 0.  1.
          1   -1    0    0  501    0  0.00000000000E+00 -0.00000000000E+00 -0.35926767490E+03  0.35926767490E+03  0.00000000000E+00 0. -1.
         23    2    1    2    0    0 -0.37516966161E+02  0.87302472369E+02 -0.16795067082E+03  0.21317907064E+03  0.90601566758E+02 0.  0.
          5    1    1    2  502    0  0.76597771988E+02 -0.55439412442E+02 -0.12079574233E+03  0.15345954154E+03  0.41800000000E+01 0.  1.
         -5    1    1    2    0  502 -0.39080805827E+02 -0.31863059928E+02 -0.11305778076E+02  0.51844546386E+02  0.41800000000E+01 0.  1.
        -11    1    3    3    0    0  0.84397966164E+01  0.54336820431E+02 -0.26907441628E+02  0.61218711489E+02  0.00000000000E+00 0.  1.
         11    1    3    3    0    0 -0.45956762777E+02  0.32965651939E+02 -0.14104322919E+03  0.15196035915E+03  0.00000000000E+00 0. -1.
</event>
<event>
 7    1  0.4274778E-006  0.1214958E+03  0.7561462E-02  0.1240650E+00
         -2   -1    0    0    0  501 -0.00000000000E+00  0.00000000000E+00  0.32168230772E+02  0.32168230772E+02  0.00000000000E+00 0.  1.
          2   -1    0    0  501    0  0.00000000000E+00 -0.00000000000E+00 -0.54795147760E+03  0.54795147760E+03  0.00000000000E+00 0. -1.
         23    2    1    2    0    0 -0.11552095499E+02 -0.67907581303E+02 -0.30398421790E+03  0.32467641506E+03  0.90903681186E+02 0.  0.
          5    1    1    2  502    0 -0.46354827821E+02  0.61431793572E+02 -0.15902609960E+03  0.17671844295E+03  0.41800000000E+01 0.  1.
         -5    1    1    2    0  502  0.57906923320E+02  0.64757877310E+01 -0.52772929318E+02  0.78724850359E+02  0.41800000000E+01 0.  1.
        -11    1    3    3    0    0  0.35790537491E+02 -0.25529493092E+02 -0.18082919253E+03  0.18609651921E+03  0.00000000000E+00 0. -1.
         11    1    3    3    0    0 -0.47342632990E+02 -0.42378088211E+02 -0.12315502538E+03  0.13857989585E+03  0.00000000000E+00 0.  1.
</event>
<event>
 7    1  0.4274778E-006  0.1080308E+03  0.7561462E-02  0.1264261E+00
          4   -1    0    0  501    0  0.00000000000E+00  0.00000000000E+00  0.23025879284E+03  0.23025879284E+03  0.00000000000E+00 0. -1.
         -4   -1    0    0    0  501 -0.00000000000E+00 -0.00000000000E+00 -0.96379354816E+02  0.96379354816E+02  0.00000000000E+00 0.  1.
         23    2    1    2    0    0 -0.67688180090E+02 -0.16958678800E+02  0.14115050041E+03  0.18321283004E+03  0.93670650755E+02 0.  0.
          5    1    1    2  502    0  0.66535285685E+02  0.65865410817E+02 -0.10018847267E+02  0.94249913973E+02  0.41800000000E+01 0. -1.
         -5    1    1    2    0  502  0.11528944048E+01 -0.48906732017E+02  0.27477848788E+01  0.49175403647E+02  0.41800000000E+01 0. -1.
        -11    1    3    3    0    0 -0.45489075127E+02 -0.21928368886E+02  0.11775903879E+02  0.51853459191E+02  0.00000000000E+00 0.  1.
         11    1    3    3    0    0 -0.22199104963E+02  0.49696900856E+01  0.12937459653E+03  0.13135937085E+03  0.00000000000E+00 0. -1.
</event>
<event>
 7    1  0.4274778E-006  0.1086854E+03  0.7561462E-02  0.1263024E+00
         -1   -1    0    0    0  501 -0.00000000000E+00  0.00000000000E+00  0.11298980199E+04  0.11298980199E+04  0.00000000000E+00 0.  1.
          1   -1    0    0  501    0  0.00000000000E+00 -0.00000000000E+00 -0.14599589309E+02  0.14599589309E+02  0.00000000000E+00 0. -1.
         23    2    1    2    0    0  0.40922795478E+02 -0.23007941814E+02  0.26840848128E+03  0.28713301857E+03  0.90544005619E+02 0.  0.
          5    1    1    2  502    0  0.24008579113E+02  0.43209819382E+02  0.57240928511E+03  0.57455492552E+03  0.41800000000E+01 0. -1.
         -5    1    1    2    0  502 -0.64931374591E+02 -0.20201877568E+02  0.27448066420E+03  0.28280966512E+03  0.41800000000E+01 0. -1.
        -11    1    3    3    0    0  0.45633536591E+02  0.24566290758E+02  0.10869715332E+03  0.12042007076E+03  0.00000000000E+00 0.  1.
         11    1    3    3    0    0 -0.47107411122E+01 -0.47574232572E+02  0.15971132796E+03  0.16671294780E+03  0.00000000000E+00 0. -1.
</event>
<event>
 7    1  0.4274778E-006  0.1001427E+03  0.7561462E-02  0.1279996E+00
         -1   -1    0    0    0  501 -0.00000000000E+00  0.00000000000E+00  0.11255191553E+03  0.11255191553E+03  0.00000000000E+00 0.  1.
          1   -1    0    0  501    0  0.00000000000E+00 -0.00000000000E+00 -0.26152109928E+03  0.26152109928E+03  0.00000000000E+00 0. -1.
         23    2    1    2    0    0 -0.25791236111E+02 -0.29600464416E+02 -0.20720900056E+03  0.23061262171E+03  0.93301854365E+02 0.  0.
          5    1    1    2  502    0  0.44656288230E+02  0.68206338483E+02  0.58258952120E+02  0.10028891559E+03  0.41800000000E+01 0.  1.
         -5    1    1    2    0  502 -0.18865052119E+02 -0.38605874067E+02 -0.19135318250E-01  0.43171477507E+02  0.41800000000E+01 0.  1.
        -11    1    3    3    0    0 -0.32675757859E+02 -0.46729879643E+02 -0.20406984064E+03  0.21188649476E+03  0.00000000000E+00 0. -1.
         11    1    3    3    0    0  0.68845217484E+01  0.17129415227E+02 -0.31391599189E+01  0.18726126955E+02  0.00000000000E+00 0.  1.
</event>
<event>
 7    1  0.4274778E-006  0.1258374E+03  0.7561462E-02  0.1233766E+00
          1   -1    0    0  501    0  0.00000000000E+00  0.00000000000E+00  0.66729149684E+03  0.66729149684E+03  0.00000000000E+00 0. -1.
         -1   -1    0    0    0  501 -0.00000000000E+00 -0.00000000000E+00 -0.24736001456E+02  0.24736001456E+02  0.00000000000E+00 0.  1.
         23    2    1    2    0    0  0.50598791698E+02 -0.45080845197E+02  0.32456678485E+03  0.34366434017E+03  0.90382855385E+02 0.  0.
          5    1    1    2  502    0 -0.45582761708E+02 -0.36379624631E+02  0.10413988121E+03  0.11943137155E+03  0.41800000000E+01 0.  1.
         -5    1    1    2    0  502 -0.50160299905E+01  0.81460469828E+02  0.21384882932E+03  0.22893178657E+03  0.41800000000E+01 0.  1.
        -11    1    3    3    0    0  0.10531788869E+02  0.27018603328E+02  0.62005755525E+02  0.68451714521E+02  0.00000000000E+00 0.  1.
         11    1    3    3    0    0  0.40067002829E+02 -0.72099448525E+02  0.26256102933E+03  0.27521262565E+03  0.00000000000E+00 0. -1.
</event>
<event>
 7    1  0.4274778E-006  0.1095988E+03  0.7561462E-02  0.1261315E+00
         -1   -1    0    0    0  501 -0.00000000000E+00  0.00000000000E+00  0.65476213803E+02  0.65476213803E+02  0.00000000000E+00 0.  1.
          1   -1    0    0  501    0  0.00000000000E+00 -0.00000000000E+00 -0.19319802459E+03  0.19319802459E+03  0.00000000000E+00 0. -1.
         23    2    1    2    0    0  0.20681665329E+02  0.63313102094E+01 -0.74713771744E+02  0.12109171782E+03  0.92807541007E+02 0.  0.
          5    1    1    2  502    0  0.11200822826E+02 -0.60728001287E+02 -0.14451449015E+02  0.63558361770E+02  0.41800000000E+01 0. -1.
         -5    1    1    2    0  502 -0.31882488155E+02  0.54396691077E+02 -0.38556590025E+02  0.74024158796E+02  0.41800000000E+01 0. -1.
        -11    1    3    3    0    0 -0.12710026826E+02  0.42811876502E+02 -0.44988132401E+02  0.63390327404E+02  0.00000000000E+00 0.  1.
         11    1    3    3    0    0  0.33391692155E+02 -0.36480566293E+02 -0.29725639343E+02  0.57701390420E+02  0.00000000000E+00 0. -1.
</event>
<event>
 7    1  0.4274778E-006  0.1735830E+03  0.7561462E-02  0.1174162E+00
          2   -1    0    0  501    0  0.00000000000E+00  0.00000000000E+00  0.25760926954E+03  0.25760926954E+03  0.00000000000E+00 0. -1.
         -2   -1    0    0    0  501 -0.00000000000E+00 -0.00000000000E+00 -0.13858221142E+03  0.13858221142E+03  0.00000000000E+00 0.  1.
         23    2    1    2    0    0  0.13159819298E+03 -0.53712916502E+02  0.11695965152E+03  0.20683745186E+03  0.94334562149E+02 0.  0.
          5    1    1    2  502    0 -0.15131486261E+03  0.66371603565E+02 -0.14792422736E+01  0.16529076793E+03  0.41800000000E+01 0.  1.
         -5    1    1    2    0  502  0.19716669633E+02 -0.12658687063E+02  0.35466488734E+01  0.24063261163E+02  0.41800000000E+01 0.  1.
        -11    1    3    3    0    0  0.14404020988E+02 -0.36995870281E+02 -0.10080530850E+01  0.39713806283E+02  0.00000000000E+00 0.  1.
         11    1    3    3    0    0  0.11719417199E+03 -0.16717046221E+02  0.11796770460E+03  0.16712364558E+03  0.00000000000E+00 0. -1.
</event>
<event>
 7    1  0.4274778E-006  0.1162090E+03  0.7561462E-02  0.1249485E+00
          1   -1    0    0  501    0  0.00000000000E+00  0.00000000000E+00  0.23024733742E+03  0.23024733742E+03  0.00000000000E+00 0. -1.
         -1   -1    0    0    0  501 -0.00000000000E+00 -0.00000000000E+00 -0.85449656196E+02  0.85449656196E+02  0.00000000000E+00 0.  1.
         23    2    1    2    0    0 -0.72813942427E+02 -0.41390326375E+02  0.10281201477E+03  0.15941367871E+03  0.88472488662E+02 0.  0.
          5    1    1    2  502    0 -0.61871059529E+01 -0.36726639124E+02  0.21579160903E+02  0.43246489877E+02  0.41800000000E+01 0.  1.
         -5    1    1    2    0  502  0.79001048380E+02  0.78116965498E+02  0.20406505552E+02  0.11303682503E+03  0.41800000000E+01 0.  1.
        -11    1    3    3    0    0 -0.40980739728E+02 -0.22791956952E+02 -0.33698717332E+01  0.47013299883E+02  0.00000000000E+00 0.  1.
         11    1    3    3    0    0 -0.31833202699E+02 -0.18598369423E+02  0.10618188650E+03  0.11240037883E+03  0.00000000000E+00 0. -1.
</event>
<event>
 7    1  0.4274778E-006  0.1201604E+03  0.7561462E-02  0.1242833E+00
         -1   -1    0    0    0  501 -0.00000000000E+00  0.00000000000E+00  0.54431669984E+03  0.54431669984E+03  0.00000000000E+00 0.  1.
          1   -1    0    0  501    0  0.00000000000E+00 -0.00000000000E+00 -0.33848194295E+02  0.33848194295E+02  0.00000000000E+00 0. -1.
         23    2    1    2    0    0 -0.70455325904E+02 -0.18167031688E+01  0.14950227869E+03  0.18969149129E+03  0.93084247727E+02 0.  0.
          5    1    1    2  502    0  0.10340855471E+03  0.78802940327E+01  0.31340498617E+03  0.33014479547E+03  0.41800000000E+01 0. -1.
         -5    1    1    2    0  502 -0.32953228804E+02 -0.60635908639E+01  0.47561240677E+02  0.58328607368E+02  0.41800000000E+01 0. -1.
        -11    1    3    3    0    0  0.11234678999E+02  0.15611431883E+02  0.76103225896E+02  0.78496087860E+02  0.00000000000E+00 0.  1.
         11    1    3    3    0    0 -0.81690004903E+02 -0.17428135052E+02  0.73399052795E+02  0.11119540343E+03  0.00000000000E+00 0. -1.
</event>
<event>
 7    1  0.4274778E-006  0.1107432E+03  0.7561462E-02  0.1259200E+00
         -1   -1    0    0    0  501 -0.00000000000E+00  0.00000000000E+00  0.10301029619E+03  0.10301029619E+03  0.00000000000E+00 0.  1.
          1   -1    0    0  501    0  0.00000000000E+00 -0.00000000000E+00 -0.18105344188E+03  0.18105344188E+03  0.00000000000E+00 0. -1.
         23    2    1    2    0    0 -0.22377402130E+02  0.22779194480E+02 -0.11493815543E+03  0.14979617304E+03  0.90600629450E+02 0.  0.
          5    1    1    2  502    0  0.12623337434E+02 -0.73880222655E+02  0.32786045841E+02  0.81914792006E+02  0.41800000000E+01 0. -1.
         -5    1    1    2    0  502  0.97540646967E+01  0.51101028176E+02  0.41089638969E+01  0.52352773021E+02  0.41800000000E+01 0. -1.
        -11    1    3    3    0    0  0.34178108439E+02  0.29846331810E+01 -0.28396577512E+02  0.44535567203E+02  0.00000000000E+00 0.  1.
         11    1    3    3    0    0 -0.56555510569E+02  0.19794561299E+02 -0.86541577920E+02  0.10526060584E+03  0.00000000000E+00 0. -1.
</event>
<event>
 7    1  0.4274778E-006  0.1353753E+03  0.7561462E-02  0.1219691E+00
          1   -1    0    0  501    0  0.00000000000E+00  0.00000000000E+00  0.51750537526E+02  0.51750537526E+02  0.00000000000E+00 0. -1.
         -1   -1    0    0    0  501 -0.00000000000E+00 -0.00000000000E+00 -0.42234040258E+03  0.42234040258E+03  0.00000000000E+00 0.  1.
         23    2    1    2    0    0  0.60179903099E+02  0.69408675827E+02 -0.10287090023E+03  0.16465607399E+03  0.89944513832E+02 0.  0.
          5    1    1    2  502    0 -0.73284914701E+02  0.85276540612E+01 -0.15491568497E+03  0.17163840321E+03  0.41800000000E+01 0.  1.
         -5    1    1    2    0  502  0.13105011602E+02 -0.77936329888E+02 -0.11280327986E+03  0.13779646292E+03  0.41800000000E+01 0.  1.
        -11    1    3    3    0    0  0.77062847162E+02  0.49422049365E+02 -0.10389229492E+03  0.13847321156E+03  0.00000000000E+00 0.  1.
         11    1    3    3    0    0 -0.16882944063E+02  0.19986626462E+02  0.10213946894E+01  0.26182862423E+02  0.00000000000E+00 0. -1.
</event>
<event>
 7    1  0.4274778E-006  0.8536106E+02  0.7561462E-02  0.1314491E+00
         -2   -1    0    0    0  501 -0.00000000000E+00  0.00000000000E+00  0.24180582993E+03  0.24180582993E+03  0.00000000000E+00 0.  1.
          2   -1    0    0  501    0  0.00000000000E+00 -0.00000000000E+00 -0.87235428618E+02  0.87235428618E+02  0.00000000000E+00 0. -1.
         23    2    1    2    0    0  0.19638011146E+02  0.48979876158E+01 -0.34477766523E+02  0.10145007115E+03  0.93240328118E+02 0.  0.
          5    1    1    2  502    0  0.51400433774E+02 -0.89432500595E+01  0.10550537671E+03  0.11777454406E+03  0.41800000000E+01 0.  1.
         -5    1    1    2    0  502 -0.71038444920E+02  0.40452624438E+01  0.83542791121E+02  0.10981664333E+03  0.41800000000E+01 0.  1.
        -11    1    3    3    0    0  0.12242854700E+01 -0.17820421638E+02  0.27573140399E+02  0.32853376900E+02  0.00000000000E+00 0.  1.
         11    1    3    3    0    0  0.18413725676E+02  0.22718409254E+02 -0.62050906922E+02  0.68596694251E+02  0.00000000000E+00 0. -1.
</event>
<event>
 7    1  0.4274778E-006  0.1903355E+03  0.7561462E-02  0.1158159E+00
          2   -1    0    0  501    0  0.00000000000E+00  0.00000000000E+00  0.12119417300E+03  0.12119417300E+03  0.00000000000E+00 0. -1.
         -2   -1    0    0    0  501 -0.00000000000E+00 -0.00000000000E+00 -0.38432503685E+03  0.38432503685E+03  0.00000000000E+00 0.  1.
         23    2    1    2    0    0  0.13857618573E+03 -0.11162151375E+03 -0.64735183993E+02  0.21111674898E+03  0.93364426147E+02 0.  0.
          5    1    1    2  502    0 -0.92679145331E+02  0.91135558286E+02 -0.20578013987E+03  0.24342976878E+03  0.41800000000E+01 0. -1.
         -5    1    1    2    0  502 -0.45897040396E+02  0.20485955468E+02  0.73844600146E+01  0.50972692083E+02  0.41800000000E+01 0. -1.
        -11    1    3    3    0    0  0.43684210756E+02 -0.94025692352E+02 -0.24356551047E+02  0.10650062286E+03  0.00000000000E+00 0.  1.
         11    1    3    3    0    0  0.94891974971E+02 -0.17595821402E+02 -0.40378632947E+02  0.10461612612E+03  0.00000000000E+00 0. -1.
</event>
<event>
 7    1  0.4274778E-006  0.2015890E+03  0.7561462E-02  0.1148405E+00
         -1   -1    0    0    0  501 -0.00000000000E+00  0.00000000000E+00  0.38909499138E+02  0.38909499138E+02  0.00000000000E+00 0. -1.
          1   -1    0    0  501    0  0.00000000000E+00 -0.00000000000E+00 -0.12185936602E+04  0.12185936602E+04  0.00000000000E+00 0.  1.
         23    2    1    2    0    0 -0.14925686169E+03  0.10406381041E+03 -0.70918978876E+03  0.73777663042E+03  0.90869755819E+02 0.  0.
          5    1    1    2  502    0  0.25827474547E+01  0.15205078011E+02 -0.41579743443E+01  0.16511394017E+02  0.41800000000E+01 0. -1.
         -5    1    1    2    0  502  0.14667411423E+03 -0.11926888842E+03 -0.46633639801E+03  0.50321513495E+03  0.41800000000E+01 0. -1.
        -11    1    3    3    0    0 -0.19922103364E+02  0.57155370165E+02 -0.30099273021E+03  0.30701832222E+03  0.00000000000E+00 0.  1.
         11    1    3    3    0    0 -0.12933475832E+03  0.46908440245E+02 -0.40819705855E+03  0.43075830820E+03  0.00000000000E+00 0. -1.
</event>
<event>
 7    1  0.4274778E-006  0.1661187E+03  0.7561462E-02  0.1181957E+00
         -1   -1    0    0    0  501 -0.00000000000E+00  0.00000000000E+00  0.18064146316E+03  0.18064146316E+03  0.00000000000E+00 0.  1.
          1   -1    0    0  501    0  0.00000000000E+00 -0.00000000000E+00 -0.20285644754E+03  0.20285644754E+03  0.00000000000E+00 0. -1.
         23    2    1    2    0    0  0.15544554771E+03 -0.29254845082E+02 -0.10385865656E+02  0.18149224352E+03  0.88387804515E+02 0.  0.
          5    1    1    2  502    0 -0.15580063686E+03  0.15928131970E+02  0.28575938357E+02  0.15925325896E+03  0.41800000000E+01 0. -1.
         -5    1    1    2    0  502  0.35508915134E+00  0.13326713112E+02 -0.40405057080E+02  0.42752408217E+02  0.41800000000E+01 0. -1.
        -11    1    3    3    0    0  0.11823863130E+03 -0.74524819200E+01 -0.44449727381E+02  0.12653731340E+03  0.00000000000E+00 0. -1.
         11    1    3    3    0    0  0.37206916410E+02 -0.21802363162E+02  0.34063861725E+02  0.54954930114E+02  0.00000000000E+00 0.  1.
</event>
<event>
 7    1  0.4274778E-006  0.8265539E+02  0.7561462E-02  0.1321680E+00
          2   -1    0    0  501    0  0.00000000000E+00  0.00000000000E+00  0.11215581902E+03  0.11215581902E+03  0.00000000000E+00 0. -1.
         -2   -1    0    0    0  501 -0.00000000000E+00 -0.00000000000E+00 -0.11996500397E+03  0.11996500397E+03  0.00000000000E+00 0.  1.
         23    2    1    2    0    0  0.23795832010E+02 -0.23202672171E+02  0.18676900303E+02  0.99993448403E+02  0.92440561994E+02 0.  0.
          5    1    1    2  502    0  0.43844054937E+02  0.15718289752E+02  0.18665773769E+02  0.50351259135E+02  0.41800000000E+01 0. -1.
         -5    1    1    2    0  502 -0.67639886948E+02  0.74843824187E+01 -0.45151859020E+02  0.81776115458E+02  0.41800000000E+01 0. -1.
        -11    1    3    3    0    0  0.34111306160E+02 -0.15370884469E+02  0.52103547910E+02  0.64145342794E+02  0.00000000000E+00 0. -1.
         11    1    3    3    0    0 -0.10315474149E+02 -0.78317877021E+01 -0.33426647607E+02  0.35848105610E+02  0.00000000000E+00 0.  1.
</event>
<event>
 7    1  0.4274778E-006  0.8101655E+02  0.7561462E-02  0.1326191E+00
          2   -1    0    0  501    0  0.00000000000E+00  0.00000000000E+00  0.97452398930E+02  0.97452398930E+02  0.00000000000E+00 0. -1.
         -2   -1    0    0    0  501 -0.00000000000E+00 -0.00000000000E+00 -0.15937729699E+03  0.15937729699E+03  0.00000000000E+00 0.  1.
         23    2    1    2    0    0 -0.51579368578E+02 -0.17497244248E+02  0.32905964036E+01  0.10561607101E+03  0.90428654810E+02 0.  0.
          5    1    1    2  502    0  0.75657383557E+02  0.21709607536E+02  0.27458273553E+01  0.78869250750E+02  0.41800000000E+01 0. -1.
         -5    1    1    2    0  502 -0.24078014978E+02 -0.42123632884E+01 -0.67961321822E+02  0.72344374167E+02  0.41800000000E+01 0. -1.
        -11    1    3    3    0    0 -0.15468803432E+02 -0.16024429112E+02  0.45131256564E+02  0.50327890151E+02  0.00000000000E+00 0. -1.
         11    1    3    3    0    0 -0.36110565146E+02 -0.14728151358E+01 -0.41840660160E+02  0.55288180855E+02  0.00000000000E+00 0.  1.
</event>
<event>
 7    1  0.4274778E-006  0.7661155E+02  0.7561462E-02  0.1338952E+00
         -2   -1    0    0    0  501 -0.00000000000E+00  0.00000000000E+00  0.30492988266E+03  0.30492988266E+03  0.00000000000E+00 0.  1.
          2   -1    0    0  501    0  0.00000000000E+00 -0.00000000000E+00 -0.56082962201E+02  0.56082962201E+02  0.00000000000E+00 0. -1.
         23    2    1    2    0    0 -0.15366246885E+02  0.99673204183E+01  0.15976452843E+02  0.96036228047E+02  0.92909854334E+02 0.  0.
          5    1    1    2  502    0  0.20938334340E+02 -0.47673602746E+02  0.33734514826E+02  0.62182603148E+02  0.41800000000E+01 0.  1.
         -5    1    1    2    0  502 -0.55720874550E+01  0.37706282328E+02  0.19913595279E+03  0.20279401367E+03  0.41800000000E+01 0.  1.
        -11    1    3    3    0    0 -0.36244021815E+02 -0.55002969873E+01  0.44365537856E+02  0.57551571077E+02  0.00000000000E+00 0.  1.
         11    1    3    3    0    0  0.20877774930E+02  0.15467617406E+02 -0.28389085013E+02  0.38484656970E+02  0.00000000000E+00 0. -1.
</event>
<event>
 7    1  0.4274778E-006  0.1579822E+03  0.7561462E-02  0.1190994E+00
         -1   -1    0    0    0  501 -0.00000000000E+00  0.00000000000E+00  0.39274485217E+03  0.39274485217E+03  0.00000000000E+00 0.  1.
          1   -1    0    0  501    0  0.00000000000E+00 -0.00000000000E+00 -0.85970453190E+02  0.85970453190E+02  0.00000000000E+00 0. -1.
         23    2    1    2    0    0 -0.51362435283E+02  0.11642963757E+03  0.42336134540E+02  0.16215789519E+03  0.91153027508E+02 0.  0.
          5    1    1    2  502    0 -0.23561164079E+02 -0.35672969184E+01  0.62966380489E+01  0.24999482211E+02  0.41800000000E+01 0. -1.
         -5    1    1    2    0  502  0.74923599362E+02 -0.11286234065E+03  0.25814162639E+03  0.29155792796E+03  0.41800000000E+01 0.  1.
        -11    1    3    3    0    0 -0.75703524803E+02  0.10474542351E+03  0.38735205568E+02  0.13491865536E+03  0.00000000000E+00 0. -1.
         11    1    3    3    0    0  0.24341089520E+02  0.11684214052E+02  0.36009289717E+01  0.27239239830E+02  0.00000000000E+00 0.  1.
</event>
<event>
 7    1  0.4274778E-006  0.1130759E+03  0.7561462E-02  0.1254977E+00
         -1   -1    0    0    0  501 -0.00000000000E+00  0.00000000000E+00  0.26871300150E+03  0.26871300150E+03  0.00000000000E+00 0.  1.
          1   -1    0    0  501    0  0.00000000000E+00 -0.00000000000E+00 -0.62567635495E+02  0.62567635495E+02  0.00000000000E+00 0. -1.
         23    2    1    2    0    0  0.51472843350E+02 -0.64360478620E+01  0.33249543295E+02  0.11166582081E+03  0.93128121924E+02 0.  0.
          5    1    1    2  502    0  0.31886547467E+02 -0.19709803652E+02  0.18142158237E+02  0.41854970730E+02  0.41800000000E+01 0. -1.
         -5    1    1    2    0  502 -0.83359390817E+02  0.26145851514E+02  0.15475366448E+03  0.17775984546E+03  0.41800000000E+01 0. -1.
        -11    1    3    3    0    0  0.69757691498E+02 -0.25763747492E+02  0.39688218048E+02  0.84291523060E+02  0.00000000000E+00 0. -1.
         11    1    3    3    0    0 -0.18284848147E+02  0.19327699630E+02 -0.64386747530E+01  0.27374297750E+02  0.00000000000E+00 0.  1.
</event>
<event>
 7    1  0.4274778E-006  0.9008711E+02  0.7561462E-02  0.1302641E+00
          1   -1    0    0  501    0  0.00000000000E+00  0.00000000000E+00  0.34529760457E+03  0.34529760457E+03  0.00000000000E+00 0. -1.
         -1   -1    0    0    0  501 -0.00000000000E+00 -0.00000000000E+00 -0.39231270062E+02  0.39231270062E+02  0.00000000000E+00 0.  1.
         23    2    1    2    0    0  0.30665448131E+02 -0.25574037230E+02  0.18626843389E+03  0.21366653873E+03  0.96762902069E+02 0.  0.
          5    1    1    2  502    0  0.22542079495E+02  0.12482854641E+02  0.11242564228E+03  0.11541648258E+03  0.41800000000E+01 0. -1.
         -5    1    1    2    0  502 -0.53207527627E+02  0.13091182589E+02  0.73722583268E+01  0.55445853322E+02  0.41800000000E+01 0.  1.
        -11    1    3    3    0    0  0.36193313870E+02  0.27687140215E+02  0.52153272418E+02  0.69256750761E+02  0.00000000000E+00 0. -1.
         11    1    3    3    0    0 -0.55278657382E+01 -0.53261177445E+02  0.13411516147E+03  0.14440978796E+03  0.00000000000E+00 0.  1.
</event>
<event>
 7    1  0.4274778E-006  0.9307047E+02  0.7561462E-02  0.1295582E+00
          1   -1    0    0  501    0  0.00000000000E+00  0.00000000000E+00  0.11233213168E+03  0.11233213168E+03  0.00000000000E+00 0. -1.
         -1   -1    0    0    0  501 -0.00000000000E+00 -0.00000000000E+00 -0.14741420999E+03  0.14741420999E+03  0.00000000000E+00 0.  1.
         23    2    1    2    0    0 -0.10006088783E+02  0.18371328377E+02  0.48865880498E+02  0.10765062809E+03  0.93611729672E+02 0.  0.
          5    1    1    2  502    0  0.57505897550E+02 -0.44153074456E+02 -0.47718507167E+02  0.86896205690E+02  0.41800000000E+01 0.  1.
         -5    1    1    2    0  502 -0.47499808767E+02  0.25781746079E+02 -0.36229451638E+02  0.65199507895E+02  0.41800000000E+01 0.  1.
        -11    1    3    3    0    0 -0.27854622021E+02  0.27605427686E+02 -0.14008029366E+02  0.41643300690E+02  0.00000000000E+00 0.  1.
         11    1    3    3    0    0  0.17848533238E+02 -0.92340993092E+01  0.62873909864E+02  0.66007327399E+02  0.00000000000E+00 0. -1.
</event>
<event>
 7    1  0.4274778E-006  0.1010926E+03  0.7561462E-02  0.1278015E+00
          2   -1    0    0  501    0  0.00000000000E+00  0.00000000000E+00  0.26615335818E+03  0.26615335818E+03  0.00000000000E+00 0. -1.
         -2   -1    0    0    0  501 -0.00000000000E+00 -0.00000000000E+00 -0.49801858596E+02  0.49801858596E+02  0.00000000000E+00 0.  1.
         23    2    1    2    0    0 -0.14706944494E+02 -0.11914714092E+02  0.13526099220E+03  0.16569218661E+03  0.93808901830E+02 0.  0.
          5    1    1    2  502    0  0.36247631194E+02  0.59833748800E+02  0.28040195386E+02  0.75483065782E+02  0.41800000000E+01 0. -1.
         -5    1    1    2    0  502 -0.21540686700E+02 -0.47919034708E+02  0.53050311991E+02  0.74779964384E+02  0.41800000000E+01 0. -1.
        -11    1    3    3    0    0 -0.34710435227E+02 -0.34699230709E+02  0.12398127400E+03  0.13334244346E+03  0.00000000000E+00 0.  1.
         11    1    3    3    0    0  0.20003490732E+02  0.22784516617E+02  0.11279718205E+02  0.32349743148E+02  0.00000000000E+00 0. -1.
</event>
<event>
 7    1  0.4274778E-006  0.1609197E+03  0.7561462E-02  0.1187662E+00
         -2   -1    0    0    0  501 -0.00000000000E+00  0.00000000000E+00  0.63128216275E+02  0.63128216275E+02  0.00000000000E+00 0.  1.
          2   -1    0    0  501    0  0.00000000000E+00 -0.00000000000E+00 -0.50132368137E+03  0.50132368137E+03  0.00000000000E+00 0. -1.
         23    2    1    2    0    0  0.37685642177E+02 -0.14001751464E+03 -0.23248146636E+03  0.28796154836E+03  0.88595197948E+02 0.  0.
          5    1    1    2  502    0 -0.52238677151E+02  0.52078842429E+02 -0.15998913891E+03  0.17622452210E+03  0.41800000000E+01 0. -1.
         -5    1    1    2    0  502  0.14553034974E+02  0.87938672209E+02 -0.45724859832E+02  0.10026582720E+03  0.41800000000E+01 0.  1.
        -11    1    3    3    0    0 -0.53527809560E+01 -0.99406924475E+02 -0.92107460750E+02  0.13562512018E+03  0.00000000000E+00 0.  1.
         11    1    3    3    0    0  0.43038423133E+02 -0.40610590163E+02 -0.14037400561E+03  0.15233642818E+03  0.00000000000E+00 0. -1.
</event>
<event>
 7    1  0.4274778E-006  0.7938590E+02  0.7561462E-02  0.1330803E+00
         -1   -1    0    0    0  501 -0.00000000000E+00  0.00000000000E+00  0.19399128792E+02  0.19399128792E+02  0.00000000000E+00 0.  1.
          1   -1    0    0  501    0  0.00000000000E+00 -0.00000000000E+00 -0.73282169305E+03  0.73282169305E+03  0.00000000000E+00 0. -1.
         23    2    1    2    0    0 -0.39825989758E+02 -0.27900011012E+02 -0.32239171824E+03  0.33879951200E+03  0.92109550346E+02 0.  0.
          5    1    1    2  502    0  0.30413457387E+02  0.35411144652E+02 -0.38477491548E+02  0.60637589923E+02  0.41800000000E+01 0.  1.
         -5    1    1    2    0  502  0.94125323712E+01 -0.75111336403E+01 -0.35255335447E+03  0.35278371992E+03  0.41800000000E+01 0.  1.
        -11    1    3    3    0    0 -0.63304582409E+02 -0.80888657004E+00 -0.15164422777E+03  0.16432923132E+03  0.00000000000E+00 0.  1.
         11    1    3    3    0    0  0.23478592651E+02 -0.27091124442E+02 -0.17074749048E+03  0.17447028068E+03  0.00000000000E+00 0. -1.
</event>
<event>
 7    1  0.4274778E-006  0.1145199E+03  0.7561462E-02  0.1252421E+00
         -2   -1    0    0    0  501 -0.00000000000E+00  0.00000000000E+00  0.96334927499E+02  0.96334927499E+02  0.00000000000E+00 0.  1.
          2   -1    0    0  501    0  0.00000000000E+00 -0.00000000000E+00 -0.16926730149E+03  0.16926730149E+03  0.00000000000E+00 0. -1.
         23    2    1    2    0    0 -0.52125472119E+02 -0.26612430481E+02 -0.67674765192E+02  0.12739879653E+03  0.90693402268E+02 0.  0.
          5    1    1    2  502    0 -0.35507341005E+02 -0.12886416500E+02  0.13207394315E+02  0.40233551422E+02  0.41800000000E+01 0. -1.
         -5    1    1    2    0  502  0.87632813124E+02  0.39498846981E+02 -0.18465003109E+02  0.97969881028E+02  0.41800000000E+01 0. -1.
        -11    1    3    3    0    0 -0.55841043215E+02  0.11094242669E+02 -0.91254856638E+01  0.57659160732E+02  0.00000000000E+00 0.  1.
         11    1    3    3    0    0  0.37155710959E+01 -0.37706673150E+02 -0.58549279528E+02  0.69739635803E+02  0.00000000000E+00 0. -1.
</event>
<event>
 7    1  0.4274778E-006  0.1315527E+03  0.7561462E-02  0.1225170E+00
          1   -1    0    0  501    0  0.00000000000E+00  0.00000000000E+00  0.10870040966E+03  0.10870040966E+03  0.00000000000E+00 0. -1.
         -1   -1    0    0    0  501 -0.00000000000E+00 -0.00000000000E+00 -0.21027582230E+03  0.21027582230E+03  0.00000000000E+00 0.  1.
         23    2    1    2    0    0 -0.18489603185E+02 -0.97278548788E+02 -0.86548302157E+01  0.13435010099E+03  0.90388395659E+02 0.  0.
          5    1    1    2  502    0 -0.22912937355E+02 -0.11521815302E+02  0.11286718784E+02  0.28330502061E+02  0.41800000000E+01 0. -1.
         -5    1    1    2    0  502  0.41402540540E+02  0.10880036409E+03 -0.10420730121E+03  0.15629562890E+03  0.41800000000E+01 0. -1.
        -11    1    3    3    0    0  0.23653883873E+02 -0.14500055518E+02  0.23184103738E+02  0.36156057562E+02  0.00000000000E+00 0. -1.
         11    1    3    3    0    0 -0.42143487057E+02 -0.82778493270E+02 -0.31838933954E+02  0.98194043428E+02  0.00000000000E+00 0.  1.
</event>
<event>
 7    1  0.4274778E-006  0.1589540E+03  0.7561462E-02  0.1189883E+00
         -2   -1    0    0    0  501 -0.00000000000E+00  0.00000000000E+00  0.44021288382E+02  0.44021288382E+02  0.00000000000E+00 0.  1.
          2   -1    0    0  501    0  0.00000000000E+00 -0.00000000000E+00 -0.81254081849E+03  0.81254081849E+03  0.00000000000E+00 0. -1.
         23    2    1    2    0    0 -0.99501752227E+02  0.82600616864E+02 -0.55612247152E+03  0.57819809889E+03  0.91199658046E+02 0.  0.
          5    1    1    2  502    0  0.12447056420E+03 -0.57276762200E+02 -0.13176961482E+03  0.19014271647E+03  0.41800000000E+01 0. -1.
         -5    1    1    2    0  502 -0.24968811970E+02 -0.25323854664E+02 -0.80627443769E+02  0.88221291506E+02  0.41800000000E+01 0. -1.
        -11    1    3    3    0    0 -0.16435995519E+02 -0.11075372598E+02 -0.22055499020E+02  0.29652164574E+02  0.00000000000E+00 0.  1.
         11    1    3    3    0    0 -0.83065756708E+02  0.93675989462E+02 -0.53406697250E+03  0.54854593432E+03  0.00000000000E+00 0. -1.
</event>
<event>
 7    1  0.4274778E-006  0.1136185E+03  0.7561462E-02  0.1254012E+00
         -2   -1    0    0    0  501 -0.00000000000E+00  0.00000000000E+00  0.90142474626E+02  0.90142474626E+02  0.00000000000E+00 0.  1.
          2   -1    0    0  501    0  0.00000000000E+00 -0.00000000000E+00 -0.16129231358E+03  0.16129231358E+03  0.00000000000E+00 0. -1.
         23    2    1    2    0    0  0.46539659426E+02 -0.23383798156E+01 -0.54523430559E+02  0.11691638662E+03  0.92332166994E+02 0.  0.
          5    1    1    2  502    0 -0.89137671460E+02 -0.11551523877E+01 -0.19947453580E+02  0.91445241290E+02  0.41800000000E+01 0.  1.
         -5    1    1    2    0  502  0.42598012034E+02  0.34935322033E+01  0.33210451838E+01  0.43073160293E+02  0.41800000000E+01 0.  1.
        -11    1    3    3    0    0 -0.11681877290E+02  0.27316930591E+02  0.30038153859E+01  0.29861410897E+02  0.00000000000E+00 0.  1.
         11    1    3    3    0    0  0.58221536716E+02 -0.29655310406E+02 -0.57527245945E+02  0.87054975727E+02  0.00000000000E+00 0. -1.
</event>
<event>
 7    1  0.4274778E-006  0.9473973E+02  0.7561462E-02  0.1291763E+00
         -3   -1    0    0    0  501 -0.00000000000E+00  0.00000000000E+00  0.49302396025E+03  0.49302396025E+03  0.00000000000E+00 0.  1.
          3   -1    0    0  501    0  0.00000000000E+00 -0.00000000000E+00 -0.57163439094E+02  0.57163439094E+02  0.00000000000E+00 0. -1.
         23    2    1    2    0    0  0.29519905099E+02 -0.90446446841E+01  0.17924996764E+00  0.95848137932E+02  0.90739203325E+02 0.  0.
          5    1    1    2  502    0 -0.67336238902E+02  0.36262448037E+02  0.20226818890E+03  0.21628459688E+03  0.41800000000E+01 0.  1.
         -5    1    1    2    0  502  0.37816333803E+02 -0.27217803353E+02  0.23341308229E+03  0.23805466453E+03  0.41800000000E+01 0.  1.
        -11    1    3    3    0    0  0.33073378124E+02  0.18794683427E+02 -0.34417332931E+02  0.51299525064E+02  0.00000000000E+00 0. -1.
         11    1    3    3    0    0 -0.35534730257E+01 -0.27839328111E+02  0.34596582899E+02  0.44548612869E+02  0.00000000000E+00 0.  1.
</event>
<event>
 7    1  0.4274778E-006  0.1442637E+03  0.7561462E-02  0.1207704E+00
          1   -1    0    0  501    0  0.00000000000E+00  0.00000000000E+00  0.32791717877E+03  0.32791717877E+03  0.00000000000E+00 0. -1.
         -1   -1    0    0    0  501 -0.00000000000E+00 -0.00000000000E+00 -0.78841468022E+02  0.78841468022E+02  0.00000000000E+00 0.  1.
         23    2    1    2    0    0 -0.11169749240E+02  0.97655655046E+02  0.19924273213E+03  0.24004921590E+03  0.90909677630E+02 0.  0.
          5    1    1    2  502    0  0.40627054298E+02  0.10928384227E+02 -0.29156130023E+01  0.42378772068E+02  0.41800000000E+01 0. -1.
         -5    1    1    2    0  502 -0.29457305058E+02 -0.10858403927E+03  0.52748591624E+02  0.12433065883E+03  0.41800000000E+01 0. -1.
        -11    1    3    3    0    0 -0.48272272490E+02  0.30978015444E+02  0.92436611888E+02  0.10878592257E+03  0.00000000000E+00 0. -1.
         11    1    3    3    0    0  0.37102523250E+02  0.66677639602E+02  0.10680612024E+03  0.13126329333E+03  0.00000000000E+00 0.  1.
</event>
<event>
 7    1  0.4274778E-006  0.1171640E+03  0.7561462E-02  0.1247850E+00
          1   -1    0    0  501    0  0.00000000000E+00  0.00000000000E+00  0.12477804565E+03  0.12477804565E+03  0.00000000000E+00 0. -1.
         -1   -1    0    0    0  501 -0.00000000000E+00 -0.00000000000E+00 -0.22911847335E+03  0.22911847335E+03  0.00000000000E+00 0.  1.
         23    2    1    2    0    0 -0.21246265617E+02 -0.56322943869E+02  0.42318760368E+02  0.11745936105E+03  0.91554061681E+02 0.  0.
          5    1    1    2  502    0  0.51312077192E+02 -0.12789055995E+02  0.17414745142E+02  0.55832203676E+02  0.41800000000E+01 0. -1.
         -5    1    1    2    0  502 -0.30065811575E+02  0.69111999863E+02 -0.16407393321E+03  0.18060495428E+03  0.41800000000E+01 0.  1.
        -11    1    3    3    0    0  0.12619854746E+02 -0.68617335560E+02  0.41989406925E+02  0.81429170247E+02  0.00000000000E+00 0.  1.
         11    1    3    3    0    0 -0.33866120364E+02  0.12294391691E+02  0.32935344255E+00  0.36030190802E+02  0.00000000000E+00 0. -1.
</event>
<event>
 7    1  0.4274778E-006  0.1540868E+03  0.7561462E-02  0.1195539E+00
         -2   -1    0    0    0  501 -0.00000000000E+00  0.00000000000E+00  0.17333039236E+03  0.17333039236E+03  0.00000000000E+00 0.  1.
          2   -1    0    0  501    0  0.00000000000E+00 -0.00000000000E+00 -0.16745200868E+03  0.16745200868E+03  0.00000000000E+00 0. -1.
         23    2    1    2    0    0  0.75300206754E+02  0.82705764529E+02 -0.64363745111E+02  0.15886755959E+03  0.92659835868E+02 0.  0.
          5    1    1    2  502    0 -0.33651007676E+02 -0.11023381705E+03  0.34528174553E+02  0.12038916886E+03  0.41800000000E+01 0.  1.
         -5    1    1    2    0  502 -0.41649199078E+02  0.27528052524E+02  0.35713954243E+02  0.61525672587E+02  0.41800000000E+01 0.  1.
        -11    1    3    3    0    0  0.26250719123E+02  0.89458836722E+02 -0.27701226169E+02  0.97259146889E+02  0.00000000000E+00 0.  1.
         11    1    3    3    0    0  0.49049487631E+02 -0.67530721931E+01 -0.36662518941E+02  0.61608412705E+02  0.00000000000E+00 0. -1.
</event>
<event>
 7    1  0.4274778E-006  0.1083300E+03  0.7561462E-02  0.1263694E+00
         -2   -1    0    0    0  501 -0.00000000000E+00  0.00000000000E+00  0.55480951576E+03  0.55480951576E+03  0.00000000000E+00 0.  1.
          2   -1    0    0  501    0  0.00000000000E+00 -0.00000000000E+00 -0.23213446716E+02  0.23213446716E+02  0.00000000000E+00 0. -1.
         23    2    1    2    0    0  0.21521052885E+02 -0.32551796931E+02  0.23487598739E+03  0.25365805781E+03  0.87480887278E+02 0.  0.
          5    1    1    2  502    0 -0.61166405354E+00  0.74073437535E+02  0.11587051317E+03  0.13758886766E+03  0.41800000000E+01 0. -1.
         -5    1    1    2    0  502 -0.20909388832E+02 -0.41521640604E+02  0.18084956848E+03  0.18677603701E+03  0.41800000000E+01 0. -1.
        -11    1    3    3    0    0  0.14370627754E+02  0.29770861494E+02  0.81427625022E+02  0.87882178244E+02  0.00000000000E+00 0. -1.
         11    1    3    3    0    0  0.71504251318E+01 -0.62322658424E+02  0.15344836237E+03  0.16577587957E+03  0.00000000000E+00 0.  1.
</event>
<event>
 7    1  0.4274778E-006  0.9804757E+02  0.7561462E-02  0.1284456E+00
          1   -1    0    0  501    0  0.00000000000E+00  0.00000000000E+00  0.34784506701E+03  0.34784506701E+03  0.00000000000E+00 0. -1.
         -1   -1    0    0    0  501 -0.00000000000E+00 -0.00000000000E+00 -0.17559256585E+03  0.17559256585E+03  0.00000000000E+00 0.  1.
         23    2    1    2    0    0 -0.52170368296E+02 -0.20145993938E+02  0.31316499536E+03  0.33154477865E+03  0.93391742329E+02 0.  0.
          5    1    1    2  502    0  0.93973455014E+01  0.63270898623E+02 -0.45116590217E+02  0.78386834531E+02  0.41800000000E+01 0. -1.
         -5    1    1    2    0  502  0.42773022794E+02 -0.43124904685E+02 -0.95795903978E+02  0.11350601967E+03  0.41800000000E+01 0.  1.
        -11    1    3    3    0    0 -0.44899026517E+02 -0.33422621543E+02  0.31130095639E+03  0.31629302816E+03  0.00000000000E+00 0. -1.
         11    1    3    3    0    0 -0.72713417790E+01  0.13276627605E+02  0.18640389669E+01  0.15251750493E+02  0.00000000000E+00 0.  1.
</event>
<event>
 7    1  0.4274778E-006  0.1865784E+03  0.7561462E-02  0.1161584E+00
         -1   -1    0    0    0  501 -0.00000000000E+00  0.00000000000E+00  0.15030295236E+03  0.15030295236E+03  0.00000000000E+00 0.  1.
          1   -1    0    0  501    0  0.00000000000E+00 -0.00000000000E+00 -0.31888208242E+03  0.31888208242E+03  0.00000000000E+00 0. -1.
         23    2    1    2    0    0 -0.11098959071E+03 -0.12448531780E+03 -0.17889266665E+03  0.26045282230E+03  0.89542184876E+02 0.  0.
          5    1    1    2  502    0  0.10964390078E+03  0.14691608683E+03  0.18849685476E+02  0.18433367731E+03  0.41800000000E+01 0.  1.
         -5    1    1    2    0  502  0.13456899226E+01 -0.22430769033E+02 -0.85361488918E+01  0.24398535175E+02  0.41800000000E+01 0.  1.
        -11    1    3    3    0    0 -0.82223366796E+02 -0.96810552613E+02 -0.71222609831E+02  0.14562151385E+03  0.00000000000E+00 0.  1.
         11    1    3    3    0    0 -0.28766223910E+02 -0.27674765184E+02 -0.10767005682E+03  0.11483130845E+03  0.00000000000E+00 0. -1.
</event>
<event>
 7    1  0.4274778E-006  0.8487115E+02  0.7561462E-02  0.1315770E+00
          1   -1    0    0  501    0  0.00000000000E+00  0.00000000000E+00  0.21439207285E+03  0.21439207285E+03  0.00000000000E+00 0. -1.
         -1   -1    0    0    0  501 -0.00000000000E+00 -0.00000000000E+00 -0.72012451786E+02  0.72012451786E+02  0.00000000000E+00 0.  1.
         23    2    1    2    0    0 -0.14565300690E+02 -0.55459392617E+02  0.83605587201E+02  0.13679837619E+03  0.91847750670E+02 0.  0.
          5    1    1    2  502    0 -0.59865880449E+00  0.45407585650E-01  0.85852129019E+02  0.85955924237E+02  0.41800000000E+01 0. -1.
         -5    1    1    2    0  502  0.15163959495E+02  0.55413985032E+02 -0.27078095157E+02  0.63650224210E+02  0.41800000000E+01 0. -1.
        -11    1    3    3    0    0 -0.32353850460E+02  0.14700063354E+02  0.22380372601E+02  0.41996959175E+02  0.00000000000E+00 0. -1.
         11    1    3    3    0    0  0.17788549770E+02 -0.70159455971E+02  0.61225214600E+02  0.94801417014E+02  0.00000000000E+00 0.  1.
</event>
<event>
 7    1  0.4274778E-006  0.1119032E+03  0.7561462E-02  0.1257085E+00
         -1   -1    0    0    0  501 -0.00000000000E+00  0.00000000000E+00  0.70410683355E+02  0.70410683355E+02  0.00000000000E+00 0.  1.
          1   -1    0    0  501    0  0.00000000000E+00 -0.00000000000E+00 -0.23338577735E+03  0.23338577735E+03  0.00000000000E+00 0. -1.
         23    2    1    2    0    0 -0.43152757549E+02  0.53537251290E+02 -0.70469643392E+02  0.13369854566E+03  0.90448508616E+02 0.  0.
          5    1    1    2  502    0  0.80865072380E+01  0.23921017137E+02 -0.80075607736E+02  0.84066533260E+02  0.41800000000E+01 0.  1.
         -5    1    1    2    0  502  0.35066250311E+02 -0.77458268427E+02 -0.12429842867E+02  0.86031381788E+02  0.41800000000E+01 0.  1.
        -11    1    3    3    0    0 -0.23288062298E+02 -0.23762731915E+02 -0.26786826031E+02  0.42714579741E+02  0.00000000000E+00 0. -1.
         11    1    3    3    0    0 -0.19864695251E+02  0.77299983205E+02 -0.43682817361E+02  0.90983965914E+02  0.00000000000E+00 0.  1.
</event>
<event>
 7    1  0.4274778E-006  0.9510889E+02  0.7561462E-02  0.1290931E+00
          1   -1    0    0  501    0  0.00000000000E+00  0.00000000000E+00  0.32680341337E+03  0.32680341337E+03  0.00000000000E+00 0.  1.
         -1   -1    0    0    0  501 -0.00000000000E+00 -0.00000000000E+00 -0.45845887063E+02  0.45845887063E+02  0.00000000000E+00 0. -1.
         23    2    1    2    0    0  0.16625538105E+02  0.21598855931E+02  0.19723334147E+03  0.21967884131E+03  0.92816395325E+02 0.  0.
          5    1    1    2  502    0 -0.29250574296E+02 -0.53026204421E+02  0.98564762239E+02  0.11575776089E+03  0.41800000000E+01 0.  1.
         -5    1    1    2    0  502  0.12625036191E+02  0.31427348490E+02 -0.14840577395E+02  0.37212698227E+02  0.41800000000E+01 0.  1.
        -11    1    3    3    0    0 -0.37871481991E+02  0.38102823754E+01  0.97146886717E+02  0.10433736147E+03  0.00000000000E+00 0.  1.
         11    1    3    3    0    0  0.54497020096E+02  0.17788573555E+02  0.10008645475E+03  0.11534147984E+03  0.00000000000E+00 0. -1.
</event>
<event>
 7    1  0.4274778E-006  0.8949325E+02  0.7561462E-02  0.1304084E+00
         -1   -1    0    0    0  501 -0.00000000000E+00  0.00000000000E+00  0.16143168993E+02  0.16143168993E+02  0.00000000000E+00 0.  1.
          1   -1    0    0  501    0  0.00000000000E+00 -0.00000000000E+00 -0.85190116373E+03  0.85190116373E+03  0.00000000000E+00 0. -1.
         23    2    1    2    0    0 -0.95156032740E+01 -0.40462779732E+02 -0.38781661767E+03  0.40111093900E+03  0.93597399518E+02 0.  0.
          5    1    1    2  502    0 -0.24290650964E+02  0.33858990523E+02 -0.41314499881E+02  0.58828796214E+02  0.41800000000E+01 0.  1.
         -5    1    1    2    0  502  0.33806254238E+02  0.66037892085E+01 -0.40662687718E+03  0.40810459751E+03  0.41800000000E+01 0.  1.
        -11    1    3    3    0    0 -0.19414368545E+01 -0.70959128223E+02 -0.26725026149E+03  0.27651703261E+03  0.00000000000E+00 0.  1.
         11    1    3    3    0    0 -0.75741664195E+01  0.30496348491E+02 -0.12056635618E+03  0.12459390639E+03  0.00000000000E+00 0. -1.
</event>
<event>
 7    1  0.4274778E-006  0.8301176E+02  0.7561462E-02  0.1320715E+00
         -2   -1    0    0    0  501 -0.00000000000E+00  0.00000000000E+00  0.35030007822E+02  0.35030007822E+02  0.00000000000E+00 0. -1.
          2   -1    0    0  501    0  0.00000000000E+00 -0.00000000000E+00 -0.47668589796E+03  0.47668589796E+03  0.00000000000E+00 0.  1.
         23    2    1    2    0    0 -0.35353604677E+02 -0.25612706479E+02 -0.31665007971E+03  0.32956205577E+03  0.80237070794E+02 0.  0.
          5    1    1    2  502    0  0.74276648170E+01  0.49668677795E+02  0.14035211614E+01  0.50414184811E+02  0.41800000000E+01 0.  1.
         -5    1    1    2    0  502  0.27925939860E+02 -0.24055971316E+02 -0.12640933159E+03  0.13173966520E+03  0.41800000000E+01 0.  1.
        -11    1    3    3    0    0 -0.52902994167E+02 -0.29481898711E+02 -0.29624208827E+03  0.30236944953E+03  0.00000000000E+00 0.  1.
         11    1    3    3    0    0  0.17549389490E+02  0.38691922320E+01 -0.20407991436E+02  0.27192606246E+02  0.00000000000E+00 0. -1.
</event>
<event>
 7    1  0.4274778E-006  0.2078221E+03  0.7561462E-02  0.1143302E+00
          2   -1    0    0  501    0  0.00000000000E+00  0.00000000000E+00  0.60601556390E+03  0.60601556390E+03  0.00000000000E+00 0. -1.
         -2   -1    0    0    0  501 -0.00000000000E+00 -0.00000000000E+00 -0.94820980766E+02  0.94820980766E+02  0.00000000000E+00 0.  1.
         23    2    1    2    0    0  0.10700047801E+03  0.16440187934E+03  0.12399196481E+03  0.24911417603E+03  0.90591308289E+02 0.  0.
          5    1    1    2  502    0 -0.60414360384E+02 -0.15709288116E+03  0.35925160654E+03  0.39674583483E+03  0.41800000000E+01 0.  1.
         -5    1    1    2    0  502 -0.46586117623E+02 -0.73089981802E+01  0.27951011792E+02  0.54976533811E+02  0.41800000000E+01 0.  1.
        -11    1    3    3    0    0  0.60673020336E+02  0.58194212280E+02  0.68542491971E+01  0.84349051397E+02  0.00000000000E+00 0.  1.
         11    1    3    3    0    0  0.46327457672E+02  0.10620766706E+03  0.11713771561E+03  0.16476512463E+03  0.00000000000E+00 0. -1.
</event>
<event>
 7    1  0.4274778E-006  0.8097473E+02  0.7561462E-02  0.1326308E+00
         -1   -1    0    0    0  501 -0.00000000000E+00  0.00000000000E+00  0.30488025421E+02  0.30488025421E+02  0.00000000000E+00 0.  1.
          1   -1    0    0  501    0  0.00000000000E+00 -0.00000000000E+00 -0.43934750194E+03  0.43934750194E+03  0.00000000000E+00 0. -1.
         23    2    1    2    0    0 -0.41505679669E+02 -0.10455412056E+02 -0.21368066562E+03  0.23782949818E+03  0.95243930289E+02 0.  0.
          5    1    1    2  502    0  0.15756113477E+02 -0.14244125892E+02 -0.19488151861E+03  0.19608015945E+03  0.41800000000E+01 0. -1.
         -5    1    1    2    0  502  0.25749566192E+02  0.24699537949E+02 -0.29729229466E+00  0.35925869741E+02  0.41800000000E+01 0.  1.
        -11    1    3    3    0    0 -0.62778440001E+02  0.21179616720E+02 -0.13887796028E+03  0.15387266341E+03  0.00000000000E+00 0.  1.
         11    1    3    3    0    0  0.21272760332E+02 -0.31635028777E+02 -0.74802705344E+02  0.83956834770E+02  0.00000000000E+00 0. -1.
</event>
<event>
 7    1  0.4274778E-006  0.7699816E+02  0.7561462E-02  0.1337793E+00
          1   -1    0    0  501    0  0.00000000000E+00  0.00000000000E+00  0.45671637198E+02  0.45671637198E+02  0.00000000000E+00 0. -1.
         -1   -1    0    0    0  501 -0.00000000000E+00 -0.00000000000E+00 -0.27593613132E+03  0.27593613132E+03  0.00000000000E+00 0.  1.
         23    2    1    2    0    0  0.15375360955E+02 -0.10687936729E+02 -0.59562266570E+02  0.11708188718E+03  0.99044792853E+02 0.  0.
          5    1    1    2  502    0 -0.10231940483E+02 -0.38735741552E+02 -0.18432296808E+02  0.44298670919E+02  0.41800000000E+01 0. -1.
         -5    1    1    2    0  502 -0.51434204719E+01  0.49423678281E+02 -0.15226993074E+03  0.16022721041E+03  0.41800000000E+01 0.  1.
        -11    1    3    3    0    0  0.89022354247E+00 -0.35288710917E+02  0.14153048386E+02  0.38031492145E+02  0.00000000000E+00 0. -1.
         11    1    3    3    0    0  0.14485137412E+02  0.24600774188E+02 -0.73715314956E+02  0.79050395037E+02  0.00000000000E+00 0.  1.
</event>
<event>
 7    1  0.4274778E-006  0.1165185E+03  0.7561462E-02  0.1248953E+00
         -2   -1    0    0    0  501 -0.00000000000E+00  0.00000000000E+00  0.26597171750E+02  0.26597171750E+02  0.00000000000E+00 0.  1.
          2   -1    0    0  501    0  0.00000000000E+00 -0.00000000000E+00 -0.52215698333E+03  0.52215698333E+03  0.00000000000E+00 0. -1.
         23    2    1    2    0    0  0.20521905599E+01 -0.46093554895E+02 -0.25117870656E+03  0.27036755486E+03  0.88763983685E+02 0.  0.
          5    1    1    2  502    0  0.30767914012E+02  0.80060139273E+02 -0.16079787542E+03  0.18229020701E+03  0.41800000000E+01 0. -1.
         -5    1    1    2    0  502 -0.32820104572E+02 -0.33966584378E+02 -0.83583229606E+02  0.96096393220E+02  0.41800000000E+01 0. -1.
        -11    1    3    3    0    0 -0.33059055682E+02 -0.54410823130E+02 -0.17000158450E+03  0.18153230448E+03  0.00000000000E+00 0.  1.
         11    1    3    3    0    0  0.35111246242E+02  0.83172682354E+01 -0.81177122057E+02  0.88835250374E+02  0.00000000000E+00 0. -1.
</event>
<event>
 7    1  0.4274778E-006  0.2377348E+03  0.7561462E-02  0.1121311E+00
          2   -1    0    0  501    0  0.00000000000E+00  0.00000000000E+00  0.10289989014E+04  0.10289989014E+04  0.00000000000E+00 0. -1.
         -2   -1    0    0    0  501 -0.00000000000E+00 -0.00000000000E+00 -0.10809335786E+03  0.10809335786E+03  0.00000000000E+00 0.  1.
         23    2    1    2    0    0  0.17852588952E+03  0.14318644465E+03  0.82217851543E+03  0.85822468637E+03  0.90544187496E+02 0.  0.
          5    1    1    2  502    0 -0.13732062554E+03 -0.12506032342E+03  0.12745903754E+03  0.22530050454E+03  0.41800000000E+01 0.  1.
         -5    1    1    2    0  502 -0.41205263980E+02 -0.18126121224E+02 -0.28732009401E+02  0.53567068377E+02  0.41800000000E+01 0.  1.
        -11    1    3    3    0    0  0.90585015396E+02  0.12550095440E+03  0.47144637729E+03  0.49620340711E+03  0.00000000000E+00 0.  1.
         11    1    3    3    0    0  0.87940874126E+02  0.17685490250E+02  0.35073213815E+03  0.36202127926E+03  0.00000000000E+00 0. -1.
</event>
<event>
 7    1  0.4274778E-006  0.7715683E+02  0.7561462E-02  0.1337319E+00
          1   -1    0    0  501    0  0.00000000000E+00  0.00000000000E+00  0.14597840459E+02  0.14597840459E+02  0.00000000000E+00 0. -1.
         -1   -1    0    0    0  501 -0.00000000000E+00 -0.00000000000E+00 -0.82755204052E+03  0.82755204052E+03  0.00000000000E+00 0.  1.
         23    2    1    2    0    0 -0.88116944644E+01 -0.19164938912E+02 -0.18282781848E+03  0.19938489195E+03  0.76703214309E+02 0.  0.
          5    1    1    2  502    0 -0.33157295461E+02  0.13854897436E+02 -0.55705138069E+03  0.55822493455E+03  0.41800000000E+01 0.  1.
         -5    1    1    2    0  502  0.41968989926E+02  0.53100414758E+01 -0.73075000897E+02  0.84540054483E+02  0.41800000000E+01 0.  1.
        -11    1    3    3    0    0  0.11911045868E+01 -0.46501660167E+02 -0.14060721459E+03  0.14810203213E+03  0.00000000000E+00 0.  1.
         11    1    3    3    0    0 -0.10002799051E+02  0.27336721255E+02 -0.42220603891E+02  0.51282859815E+02  0.00000000000E+00 0. -1.
</event>
<event>
 7    1  0.4274778E-006  0.9536052E+02  0.7561462E-02  0.1290366E+00
          3   -1    0    0  501    0  0.00000000000E+00  0.00000000000E+00  0.14221174923E+02  0.14221174923E+02  0.00000000000E+00 0.  1.
         -3   -1    0    0    0  501 -0.00000000000E+00 -0.00000000000E+00 -0.10033228304E+04  0.10033228304E+04  0.00000000000E+00 0. -1.
         23    2    1    2    0    0  0.50484480453E+02 -0.18581633272E+02 -0.41490436802E+03  0.42742184584E+03  0.87463362818E+02 0.  0.
          5    1    1    2  502    0 -0.21217437709E+02  0.44131007136E+02 -0.52500204531E+03  0.52729720788E+03  0.41800000000E+01 0. -1.
         -5    1    1    2    0  502 -0.29267042744E+02 -0.25549373865E+02 -0.49195242182E+02  0.62824951645E+02  0.41800000000E+01 0. -1.
        -11    1    3    3    0    0 -0.23514408514E+02 -0.16031214129E+02 -0.12688511420E+03  0.13003753089E+03  0.00000000000E+00 0. -1.
         11    1    3    3    0    0  0.73998888967E+02 -0.25504191428E+01 -0.28801925382E+03  0.29738431495E+03  0.00000000000E+00 0.  1.
</event>
<event>
 7    1  0.4274778E-006  0.1138030E+03  0.7561462E-02  0.1253685E+00
         -4   -1    0    0    0  501 -0.00000000000E+00  0.00000000000E+00  0.14859899430E+03  0.14859899430E+03  0.00000000000E+00 0.  1.
          4   -1    0    0  501    0  0.00000000000E+00 -0.00000000000E+00 -0.12978210283E+03  0.12978210283E+03  0.00000000000E+00 0. -1.
         23    2    1    2    0    0 -0.97935859196E+01  0.72951980589E+02 -0.36394710253E+02  0.12309513150E+03  0.91705674131E+02 0.  0.
          5    1    1    2  502    0  0.91218391300E+00 -0.10601020015E+03  0.24006950393E+02  0.10877867752E+03  0.41800000000E+01 0. -1.
         -5    1    1    2    0  502  0.88814020066E+01  0.33058219560E+02  0.31204651331E+02  0.46507288104E+02  0.41800000000E+01 0. -1.
        -11    1    3    3    0    0  0.17070428303E+02  0.13426038777E+02 -0.51649815001E+02  0.56030004724E+02  0.00000000000E+00 0. -1.
         11    1    3    3    0    0 -0.26864014223E+02  0.59525941812E+02  0.15255104748E+02  0.67065126777E+02  0.00000000000E+00 0.  1.
</event>
<event>
 7    1  0.4274778E-006  0.8327479E+02  0.7561462E-02  0.1320007E+00
          1   -1    0    0  501    0  0.00000000000E+00  0.00000000000E+00  0.24315484746E+03  0.24315484746E+03  0.00000000000E+00 0. -1.
         -1   -1    0    0    0  501 -0.00000000000E+00 -0.00000000000E+00 -0.57071913501E+02  0.57071913501E+02  0.00000000000E+00 0.  1.
         23    2    1    2    0    0 -0.25044477413E+02  0.24566605805E+02  0.11849507605E+03  0.15378423908E+03  0.91530132592E+02 0.  0.
          5    1    1    2  502    0  0.18632497756E+02 -0.44867758739E+02 -0.22554576036E+02  0.53725850827E+02  0.41800000000E+01 0.  1.
         -5    1    1    2    0  502  0.64119796565E+01  0.20301152934E+02  0.90142433943E+02  0.92716671051E+02  0.41800000000E+01 0.  1.
        -11    1    3    3    0    0 -0.45034877131E+02 -0.18441333436E+02  0.75169981532E+02  0.89547468198E+02  0.00000000000E+00 0. -1.
         11    1    3    3    0    0  0.19990399718E+02  0.43007939242E+02  0.43325094520E+02  0.64236770886E+02  0.00000000000E+00 0.  1.
</event>
<event>
 7    1  0.4274778E-006  0.1104636E+03  0.7561462E-02  0.1259714E+00
         -2   -1    0    0    0  501 -0.00000000000E+00  0.00000000000E+00  0.12147118194E+03  0.12147118194E+03  0.00000000000E+00 0.  1.
          2   -1    0    0  501    0  0.00000000000E+00 -0.00000000000E+00 -0.13957134202E+03  0.13957134202E+03  0.00000000000E+00 0. -1.
         23    2    1    2    0    0 -0.44660433440E+02 -0.54862632114E+02  0.58271681440E+01  0.11535111567E+03  0.90925581003E+02 0.  0.
          5    1    1    2  502    0 -0.20933058752E+02  0.69144758159E+02 -0.29616639812E+02  0.78190845265E+02  0.41800000000E+01 0.  1.
         -5    1    1    2    0  502  0.65593492192E+02 -0.14282126044E+02  0.56893115933E+01  0.67500563025E+02  0.41800000000E+01 0.  1.
        -11    1    3    3    0    0 -0.26271043111E+01 -0.34493330272E+02 -0.37938492433E+02  0.51342192380E+02  0.00000000000E+00 0. -1.
         11    1    3    3    0    0 -0.42033329129E+02 -0.20369301842E+02  0.43765660577E+02  0.64008923292E+02  0.00000000000E+00 0.  1.
</event>
<event>
 7    1  0.4274778E-006  0.1094160E+03  0.7561462E-02  0.1261655E+00
          2   -1    0    0  501    0  0.00000000000E+00  0.00000000000E+00  0.27892590689E+03  0.27892590689E+03  0.00000000000E+00 0. -1.
         -2   -1    0    0    0  501 -0.00000000000E+00 -0.00000000000E+00 -0.47345992733E+02  0.47345992733E+02  0.00000000000E+00 0.  1.
         23    2    1    2    0    0 -0.52325597222E+00 -0.17282125378E+02  0.14257130588E+03  0.17177644413E+03  0.94242367553E+02 0.  0.
          5    1    1    2  502    0 -0.50762579479E+01  0.69790992322E+02  0.67525834559E+02  0.97333250932E+02  0.41800000000E+01 0.  1.
         -5    1    1    2    0  502  0.55995139201E+01 -0.52508866943E+02  0.21482773713E+02  0.57162204561E+02  0.41800000000E+01 0.  1.
        -11    1    3    3    0    0 -0.27962162501E+02  0.30051515554E+02  0.64010234405E+02  0.76041345512E+02  0.00000000000E+00 0. -1.
         11    1    3    3    0    0  0.27438906528E+02 -0.47333640932E+02  0.78561071477E+02  0.95735098615E+02  0.00000000000E+00 0.  1.
</event>
<event>
 7    1  0.4274778E-006  0.1168699E+03  0.7561462E-02  0.1248352E+00
          2   -1    0    0  501    0  0.00000000000E+00  0.00000000000E+00  0.50226780340E+03  0.50226780340E+03  0.00000000000E+00 0. -1.
         -2   -1    0    0    0  501 -0.00000000000E+00 -0.00000000000E+00 -0.37839099627E+02  0.37839099627E+02  0.00000000000E+00 0.  1.
         23    2    1    2    0    0  0.26645914095E+02 -0.54793356989E+02  0.32662744523E+03  0.34427743833E+03  0.90161798226E+02 0.  0.
          5    1    1    2  502    0 -0.76596556724E+02  0.33192308688E+02  0.71844791045E+02  0.11021754968E+03  0.41800000000E+01 0.  1.
         -5    1    1    2    0  502  0.49950642629E+02  0.21601048301E+02  0.65956467496E+02  0.85611915008E+02  0.41800000000E+01 0.  1.
        -11    1    3    3    0    0  0.52447336031E+02 -0.38462704842E+02  0.28685109308E+03  0.29413203212E+03  0.00000000000E+00 0. -1.
         11    1    3    3    0    0 -0.25801421936E+02 -0.16330652147E+02  0.39776352152E+02  0.50145406210E+02  0.00000000000E+00 0.  1.
</event>
<event>
 7    1  0.4274778E-006  0.1327542E+03  0.7561462E-02  0.1223425E+00
          1   -1    0    0  501    0  0.00000000000E+00  0.00000000000E+00  0.13381720866E+03  0.13381720866E+03  0.00000000000E+00 0. -1.
         -1   -1    0    0    0  501 -0.00000000000E+00 -0.00000000000E+00 -0.14283948218E+03  0.14283948218E+03  0.00000000000E+00 0.  1.
         23    2    1    2    0    0  0.95195873230E+01  0.86532988377E+02 -0.61589770668E+00  0.12402383072E+03  0.88334311772E+02 0.  0.
          5    1    1    2  502    0 -0.19733493525E+02  0.23680365925E+02  0.21606031891E+02  0.37874312022E+02  0.41800000000E+01 0. -1.
         -5    1    1    2    0  502  0.10213906202E+02 -0.11021335430E+03 -0.30012407704E+02  0.11475854810E+03  0.41800000000E+01 0. -1.
        -11    1    3    3    0    0  0.89293497262E+01  0.10489053307E+03 -0.40079763510E+01  0.10534619637E+03  0.00000000000E+00 0.  1.
         11    1    3    3    0    0  0.59023759679E+00 -0.18357544692E+02  0.33920786443E+01  0.18677634355E+02  0.00000000000E+00 0. -1.
</event>
<event>
 7    1  0.4274778E-006  0.1855780E+03  0.7561462E-02  0.1162511E+00
         -4   -1    0    0    0  501 -0.00000000000E+00  0.00000000000E+00  0.12727441685E+03  0.12727441685E+03  0.00000000000E+00 0.  1.
          4   -1    0    0  501    0  0.00000000000E+00 -0.00000000000E+00 -0.37631878532E+03  0.37631878532E+03  0.00000000000E+00 0. -1.
         23    2    1    2    0    0 -0.15017770388E+03 -0.92966886699E+02 -0.20017210091E+03  0.28170369796E+03  0.89955092671E+02 0.  0.
          5    1    1    2  502    0  0.21210641971E+02  0.10138374067E+02  0.38580406373E+02  0.45371776662E+02  0.41800000000E+01 0. -1.
         -5    1    1    2    0  502  0.12896706191E+03  0.82828512631E+02 -0.87452673924E+02  0.17651772755E+03  0.41800000000E+01 0. -1.
        -11    1    3    3    0    0 -0.45565850934E+02  0.10554593425E+02 -0.25420574186E+02  0.53233934719E+02  0.00000000000E+00 0.  1.
         11    1    3    3    0    0 -0.10461185295E+03 -0.10352148012E+03 -0.17475152673E+03  0.22846976324E+03  0.00000000000E+00 0. -1.
</event>
<event>
 7    1  0.4274778E-006  0.8827166E+02  0.7561462E-02  0.1307092E+00
          1   -1    0    0  501    0  0.00000000000E+00  0.00000000000E+00  0.41881103612E+03  0.41881103612E+03  0.00000000000E+00 0. -1.
         -1   -1    0    0    0  501 -0.00000000000E+00 -0.00000000000E+00 -0.11335747098E+03  0.11335747098E+03  0.00000000000E+00 0.  1.
         23    2    1    2    0    0 -0.23375875044E+02  0.49562390527E+02  0.36655319929E+03  0.38255668638E+03  0.94791921062E+02 0.  0.
          5    1    1    2  502    0  0.21532623751E+02  0.10358580103E+02  0.31170683268E+02  0.39497315893E+02  0.41800000000E+01 0.  1.
         -5    1    1    2    0  502  0.18432512923E+01 -0.59920970630E+02 -0.92270317419E+02  0.11011450483E+03  0.41800000000E+01 0.  1.
        -11    1    3    3    0    0 -0.34111577444E+02 -0.68275608589E+01  0.50435917014E+02  0.61269870475E+02  0.00000000000E+00 0.  1.
         11    1    3    3    0    0  0.10735702400E+02  0.56389951386E+02  0.31611728228E+03  0.32128681591E+03  0.00000000000E+00 0. -1.
</event>
<event>
 7    1  0.4274778E-006  0.1625251E+03  0.7561462E-02  0.1185875E+00
          2   -1    0    0  501    0  0.00000000000E+00  0.00000000000E+00  0.77867107278E+03  0.77867107278E+03  0.00000000000E+00 0. -1.
         -2   -1    0    0    0  501 -0.00000000000E+00 -0.00000000000E+00 -0.39928193476E+02  0.39928193476E+02  0.00000000000E+00 0.  1.
         23    2    1    2    0    0  0.10965224476E+03  0.73601702577E+02  0.44629747766E+03  0.47419561834E+03  0.90770151940E+02 0.  0.
          5    1    1    2  502    0 -0.92089582501E+02 -0.10041181194E+03  0.17073230201E+03  0.21847199943E+03  0.41800000000E+01 0.  1.
         -5    1    1    2    0  502 -0.17562662255E+02  0.26810109367E+02  0.12171309963E+03  0.12593164849E+03  0.41800000000E+01 0.  1.
        -11    1    3    3    0    0  0.79297291220E+02  0.27583222213E+01  0.17470302824E+03  0.19187708778E+03  0.00000000000E+00 0.  1.
         11    1    3    3    0    0  0.30354953536E+02  0.70843380355E+02  0.27159444942E+03  0.28231853056E+03  0.00000000000E+00 0. -1.
</event>
<event>
 7    1  0.4274778E-006  0.1761851E+03  0.7561462E-02  0.1171547E+00
          1   -1    0    0  501    0  0.00000000000E+00  0.00000000000E+00  0.68633404315E+03  0.68633404315E+03  0.00000000000E+00 0. -1.
         -1   -1    0    0    0  501 -0.00000000000E+00 -0.00000000000E+00 -0.49163585010E+02  0.49163585010E+02  0.00000000000E+00 0.  1.
         23    2    1    2    0    0 -0.97735477071E+02 -0.13767774922E+01  0.23608672307E+03  0.27168510619E+03  0.92313255377E+02 0.  0.
          5    1    1    2  502    0  0.12841647014E+03 -0.75919161346E+02  0.27057711637E+03  0.30900478502E+03  0.41800000000E+01 0. -1.
         -5    1    1    2    0  502 -0.30680993068E+02  0.77295938838E+02  0.13050661870E+03  0.15480773695E+03  0.41800000000E+01 0.  1.
        -11    1    3    3    0    0 -0.10274196826E+03  0.14001968748E+02  0.13984341370E+03  0.17409235344E+03  0.00000000000E+00 0.  1.
         11    1    3    3    0    0  0.50064911883E+01 -0.15378746240E+02  0.96243309375E+02  0.97592752750E+02  0.00000000000E+00 0. -1.
</event>
<event>
 7    1  0.4274778E-006  0.9573698E+02  0.7561462E-02  0.1289525E+00
         -1   -1    0    0    0  501 -0.00000000000E+00  0.00000000000E+00  0.18684628940E+02  0.18684628940E+02  0.00000000000E+00 0.  1.
          1   -1    0    0  501    0  0.00000000000E+00 -0.00000000000E+00 -0.63964464821E+03  0.63964464821E+03  0.00000000000E+00 0. -1.
         23    2    1    2    0    0 -0.12840255421E+02  0.74342821751E+01 -0.23904119139E+03  0.25617332737E+03  0.90906225103E+02 0.  0.
          5    1    1    2  502    0  0.16258012619E+02  0.48121833216E+02 -0.29130591659E+03  0.29573069379E+03  0.41800000000E+01 0.  1.
         -5    1    1    2    0  502 -0.34177571979E+01 -0.55556115391E+02 -0.90612911285E+02  0.10642525599E+03  0.41800000000E+01 0.  1.
        -11    1    3    3    0    0 -0.29419389460E+02  0.39109098943E+02 -0.18509808282E+03  0.19145840896E+03  0.00000000000E+00 0. -1.
         11    1    3    3    0    0  0.16579134039E+02 -0.31674816768E+02 -0.53943108571E+02  0.64714918412E+02  0.00000000000E+00 0.  1.
</event>
<event>
 7    1  0.4274778E-006  0.1105015E+03  0.7561462E-02  0.1259644E+00
         -2   -1    0    0    0  501 -0.00000000000E+00  0.00000000000E+00  0.63996894596E+03  0.63996894596E+03  0.00000000000E+00 0.  1.
          2   -1    0    0  501    0  0.00000000000E+00 -0.00000000000E+00 -0.12033394004E+03  0.12033394004E+03  0.00000000000E+00 0. -1.
         23    2    1    2    0    0 -0.67201541416E+02  0.87865651530E+01 -0.83127874172E+02  0.14097781475E+03  0.91494534758E+02 0.  0.
          5    1    1    2  502    0  0.61105354356E+02 -0.47007194595E+02  0.53984309715E+03  0.54533621062E+03  0.41800000000E+01 0. -1.
         -5    1    1    2    0  502  0.60961870600E+01  0.38220629442E+02  0.62919782949E+02  0.73988860634E+02  0.41800000000E+01 0. -1.
        -11    1    3    3    0    0 -0.83410933341E+02  0.19210687629E+02 -0.41540900435E+02  0.95142423393E+02  0.00000000000E+00 0.  1.
         11    1    3    3    0    0  0.16209391926E+02 -0.10424122476E+02 -0.41586973736E+02  0.45835391354E+02  0.00000000000E+00 0. -1.
</event>
<event>
 7    1  0.4274778E-006  0.9018092E+02  0.7561462E-02  0.1302414E+00
          4   -1    0    0  501    0  0.00000000000E+00  0.00000000000E+00  0.69811218160E+02  0.69811218160E+02  0.00000000000E+00 0. -1.
         -4   -1    0    0    0  501 -0.00000000000E+00 -0.00000000000E+00 -0.17191417849E+03  0.17191417849E+03  0.00000000000E+00 0.  1.
         23    2    1    2    0    0 -0.11600762934E+02 -0.16303682090E+00 -0.61256844710E+02  0.10962503571E+03  0.90170079016E+02 0.  0.
          5    1    1    2  502    0  0.40701974505E+02  0.49052013341E+02 -0.36164777375E+01  0.63978918814E+02  0.41800000000E+01 0. -1.
         -5    1    1    2    0  502 -0.29101211571E+02 -0.48888976520E+02 -0.37229637885E+02  0.68121442124E+02  0.41800000000E+01 0. -1.
        -11    1    3    3    0    0 -0.19418431155E+02  0.25817947290E+02 -0.73176681347E+02  0.79990427951E+02  0.00000000000E+00 0.  1.
         11    1    3    3    0    0  0.78176682208E+01 -0.25980984111E+02  0.11919836637E+02  0.29634607763E+02  0.00000000000E+00 0. -1.
</event>
<event>
 7    1  0.4274778E-006  0.1404538E+03  0.7561462E-02  0.1212720E+00
         -2   -1    0    0    0  501 -0.00000000000E+00  0.00000000000E+00  0.20812483963E+03  0.20812483963E+03  0.00000000000E+00 0.  1.
          2   -1    0    0  501    0  0.00000000000E+00 -0.00000000000E+00 -0.18815921722E+03  0.18815921722E+03  0.00000000000E+00 0. -1.
         23    2    1    2    0    0 -0.50505302281E+02  0.11525237721E+03 -0.96632800063E+02  0.18397169793E+03  0.93133192680E+02 0.  0.
          5    1    1    2  502    0  0.61307005148E+02 -0.85062297266E+02  0.15383675974E+02  0.10605787657E+03  0.41800000000E+01 0. -1.
         -5    1    1    2    0  502 -0.10801702867E+02 -0.30190079948E+02  0.10121474650E+03  0.10625448236E+03  0.41800000000E+01 0. -1.
        -11    1    3    3    0    0  0.63321657303E+01  0.71832393228E+02 -0.11898922151E+02  0.73086068358E+02  0.00000000000E+00 0.  1.
         11    1    3    3    0    0 -0.56837468011E+02  0.43419983986E+02 -0.84733877912E+02  0.11088562957E+03  0.00000000000E+00 0. -1.
</event>
<event>
 7    1  0.4274778E-006  0.9920473E+02  0.7561462E-02  0.1281977E+00
          3   -1    0    0  501    0  0.00000000000E+00  0.00000000000E+00  0.85300326878E+03  0.85300326878E+03  0.00000000000E+00 0. -1.
         -3   -1    0    0    0  501 -0.00000000000E+00 -0.00000000000E+00 -0.19655436481E+02  0.19655436481E+02  0.00000000000E+00 0.  1.
         23    2    1    2    0    0  0.48413402846E+02  0.17448838957E+00  0.54245851976E+03  0.55233326160E+03  0.92015749666E+02 0.  0.
          5    1    1    2  502    0  0.18262574463E+02 -0.17267150628E+02  0.46531635018E+01  0.25899815586E+02  0.41800000000E+01 0. -1.
         -5    1    1    2    0  502 -0.66675977308E+02  0.17092662239E+02  0.28623614904E+03  0.29442562808E+03  0.41800000000E+01 0. -1.
        -11    1    3    3    0    0 -0.25972518203E+02  0.12071844046E+02  0.15120759084E+03  0.15389618789E+03  0.00000000000E+00 0.  1.
         11    1    3    3    0    0  0.74385921049E+02 -0.11897355657E+02  0.39125092892E+03  0.39843707371E+03  0.00000000000E+00 0. -1.
</event>
<event>
 7    1  0.4274778E-006  0.1153687E+03  0.7561462E-02  0.1250939E+00
          3   -1    0    0  501    0  0.00000000000E+00  0.00000000000E+00  0.57465741138E+02  0.57465741138E+02  0.00000000000E+00 0. -1.
         -3   -1    0    0    0  501 -0.00000000000E+00 -0.00000000000E+00 -0.23440163693E+03  0.23440163693E+03  0.00000000000E+00 0.  1.
         23    2    1    2    0    0  0.28878546128E+02  0.25765642413E+02 -0.77414948990E+02  0.12740151903E+03  0.93489218461E+02 0.  0.
          5    1    1    2  502    0 -0.16549624710E+02  0.50285461917E+02 -0.48873008014E+02  0.72170361441E+02  0.41800000000E+01 0. -1.
         -5    1    1    2    0  502 -0.12328921419E+02 -0.76051104331E+02 -0.50647938788E+02  0.92295497597E+02  0.41800000000E+01 0. -1.
        -11    1    3    3    0    0 -0.33031296733E+02  0.19233882357E+02 -0.22278056199E+02  0.44241615956E+02  0.00000000000E+00 0.  1.
         11    1    3    3    0    0  0.61909842862E+02  0.65317600568E+01 -0.55136892791E+02  0.83159903074E+02  0.00000000000E+00 0. -1.
</event>
<event>
 7    1  0.4274778E-006  0.1195806E+03  0.7561462E-02  0.1243791E+00
         -2   -1    0    0    0  501 -0.00000000000E+00  0.00000000000E+00  0.15598128393E+03  0.15598128393E+03  0.00000000000E+00 0.  1.
          2   -1    0    0  501    0  0.00000000000E+00 -0.00000000000E+00 -0.11644130820E+03  0.11644130820E+03  0.00000000000E+00 0. -1.
         23    2    1    2    0    0 -0.83967364095E+02 -0.25060179983E+02 -0.10418457164E+02  0.11172996166E+03  0.68531082210E+02 0.  0.
          5    1    1    2  502    0  0.57912293321E+02 -0.46117373089E+02  0.97434853169E+01  0.74786721578E+02  0.41800000000E+01 0. -1.
         -5    1    1    2    0  502  0.26055070774E+02  0.71177553071E+02  0.40214947582E+02  0.85905908896E+02  0.41800000000E+01 0. -1.
        -11    1    3    3    0    0 -0.52026802192E+02 -0.72497054147E+01 -0.38909967321E+02  0.65370726873E+02  0.00000000000E+00 0. -1.
         11    1    3    3    0    0 -0.31940561903E+02 -0.17810474568E+02  0.28491510157E+02  0.46359234787E+02  0.00000000000E+00 0.  1.
</event>
<event>
 7    1  0.4274778E-006  0.1608757E+03  0.7561462E-02  0.1187712E+00
          1   -1    0    0  501    0  0.00000000000E+00  0.00000000000E+00  0.58650148169E+03  0.58650148169E+03  0.00000000000E+00 0. -1.
         -1   -1    0    0    0  501 -0.00000000000E+00 -0.00000000000E+00 -0.65598855647E+02  0.65598855647E+02  0.00000000000E+00 0.  1.
         23    2    1    2    0    0 -0.12949047151E+03  0.45399948638E+02  0.10139331983E+03  0.19334065268E+03  0.90945396396E+02 0.  0.
          5    1    1    2  502    0  0.55501091873E+02 -0.82648522012E+02  0.18684955096E+03  0.21175782509E+03  0.41800000000E+01 0. -1.
         -5    1    1    2    0  502  0.73989379636E+02  0.37248573375E+02  0.23265975526E+03  0.24700185958E+03  0.41800000000E+01 0. -1.
        -11    1    3    3    0    0 -0.81511788522E+02  0.40264542110E+02  0.11929369194E+02  0.91693592300E+02  0.00000000000E+00 0.  1.
         11    1    3    3    0    0 -0.47978682987E+02  0.51354065278E+01  0.89463950633E+02  0.10164706038E+03  0.00000000000E+00 0. -1.
</event>
<event>
 7    1  0.4274778E-006  0.6512509E+02  0.7561462E-02  0.1377502E+00
          2   -1    0    0  501    0  0.00000000000E+00  0.00000000000E+00  0.33732774928E+03  0.33732774928E+03  0.00000000000E+00 0. -1.
         -2   -1    0    0    0  501 -0.00000000000E+00 -0.00000000000E+00 -0.50135754678E+02  0.50135754678E+02  0.00000000000E+00 0.  1.
         23    2    1    2    0    0 -0.29522857023E+02  0.20872504993E+02  0.23176657992E+03  0.24594445826E+03  0.73930159132E+02 0.  0.
          5    1    1    2  502    0  0.13291577285E+02 -0.33974255207E+02 -0.33729866767E+02  0.49860729595E+02  0.41800000000E+01 0.  1.
         -5    1    1    2    0  502  0.16231279738E+02  0.13101750214E+02  0.89155281451E+02  0.91658316105E+02  0.41800000000E+01 0.  1.
        -11    1    3    3    0    0 -0.45692255620E+02 -0.20229483627E+00  0.19678713277E+03  0.20202227296E+03  0.00000000000E+00 0. -1.
         11    1    3    3    0    0  0.16169398597E+02  0.21074799829E+02  0.34979447149E+02  0.43922185302E+02  0.00000000000E+00 0.  1.
</event>
<event>
 7    1  0.4274778E-006  0.1157285E+03  0.7561462E-02  0.1250315E+00
          1   -1    0    0  501    0  0.00000000000E+00  0.00000000000E+00  0.18444195217E+03  0.18444195217E+03  0.00000000000E+00 0. -1.
         -1   -1    0    0    0  501 -0.00000000000E+00 -0.00000000000E+00 -0.75195161385E+02  0.75195161385E+02  0.00000000000E+00 0.  1.
         23    2    1    2    0    0  0.20549456868E+02 -0.38015969488E+02  0.61309231051E+02  0.11888162198E+03  0.92230819794E+02 0.  0.
          5    1    1    2  502    0 -0.44824440790E+02 -0.33855757224E+02  0.18774613935E+02  0.59375090045E+02  0.41800000000E+01 0. -1.
         -5    1    1    2    0  502  0.24274983922E+02  0.71871726712E+02  0.29162945798E+02  0.81380401526E+02  0.41800000000E+01 0. -1.
        -11    1    3    3    0    0 -0.30086735100E+02 -0.38061015335E+02  0.43626674877E+02  0.65246756840E+02  0.00000000000E+00 0.  1.
         11    1    3    3    0    0  0.50636191968E+02  0.45045847526E-01  0.17682556174E+02  0.53634865144E+02  0.00000000000E+00 0. -1.
</event>
<event>
 7    1  0.4274778E-006  0.1032385E+03  0.7561462E-02  0.1273630E+00
          2   -1    0    0  501    0  0.00000000000E+00  0.00000000000E+00  0.34941911377E+03  0.34941911377E+03  0.00000000000E+00 0. -1.
         -2   -1    0    0    0  501 -0.00000000000E+00 -0.00000000000E+00 -0.36541720811E+02  0.36541720811E+02  0.00000000000E+00 0.  1.
         23    2    1    2    0    0 -0.56189330903E+01 -0.24460489321E+02  0.15956890934E+03  0.18650910190E+03  0.93239049313E+02 0.  0.
          5    1    1    2  502    0 -0.34409266505E+02 -0.28288511462E+02  0.17015455805E+02  0.47866853233E+02  0.41800000000E+01 0.  1.
         -5    1    1    2    0  502  0.40028199596E+02  0.52749000784E+02  0.13629302782E+03  0.15158487946E+03  0.41800000000E+01 0.  1.
        -11    1    3    3    0    0  0.32785775603E+02 -0.41905002505E+02  0.74403956224E+02  0.91470678464E+02  0.00000000000E+00 0. -1.
         11    1    3    3    0    0 -0.38404708693E+02  0.17444513184E+02  0.85164953112E+02  0.95038423433E+02  0.00000000000E+00 0.  1.
</event>
<event>
 7    1  0.4274778E-006  0.9597364E+02  0.7561462E-02  0.1288998E+00
         -1   -1    0    0    0  501 -0.00000000000E+00  0.00000000000E+00  0.59997742725E+02  0.59997742725E+02  0.00000000000E+00 0.  1.
          1   -1    0    0  501    0  0.00000000000E+00 -0.00000000000E+00 -0.25038967630E+03  0.25038967630E+03  0.00000000000E+00 0. -1.
         23    2    1    2    0    0  0.41896897166E+02  0.36913992579E+02 -0.95572363054E+02  0.14378451289E+03  0.91771001554E+02 0.  0.
          5    1    1    2  502    0  0.10767925237E+02  0.28294822635E+02 -0.74105832167E+02  0.80160413940E+02  0.41800000000E+01 0.  1.
         -5    1    1    2    0  502 -0.52664822402E+02 -0.65208815213E+02 -0.20713738350E+02  0.86442492193E+02  0.41800000000E+01 0.  1.
        -11    1    3    3    0    0  0.30311236157E+02 -0.77771695074E+01  0.63159560393E+01  0.31924077177E+02  0.00000000000E+00 0.  1.
         11    1    3    3    0    0  0.11585661009E+02  0.44691162086E+02 -0.10188831909E+03  0.11186043571E+03  0.00000000000E+00 0. -1.
</event>
<event>
 7    1  0.4274778E-006  0.9093342E+02  0.7561462E-02  0.1300607E+00
         -1   -1    0    0    0  501 -0.00000000000E+00  0.00000000000E+00  0.37114948758E+02  0.37114948758E+02  0.00000000000E+00 0.  1.
          1   -1    0    0  501    0  0.00000000000E+00 -0.00000000000E+00 -0.49186155221E+03  0.49186155221E+03  0.00000000000E+00 0. -1.
         23    2    1    2    0    0 -0.78742770055E+02 -0.78848466374E+00 -0.23981847994E+03  0.26812656764E+03  0.90431783174E+02 0.  0.
          5    1    1    2  502    0 -0.42122924528E+01  0.22086677231E+01  0.15050123689E+02  0.16327897717E+02  0.41800000000E+01 0.  1.
         -5    1    1    2    0  502  0.82955062507E+02 -0.14201830594E+01 -0.22997824720E+03  0.24452203561E+03  0.41800000000E+01 0.  1.
        -11    1    3    3    0    0 -0.54254295008E+01  0.16300620792E+02 -0.43586625452E+00  0.17185328128E+02  0.00000000000E+00 0.  1.
         11    1    3    3    0    0 -0.73317340554E+02 -0.17089105456E+02 -0.23938261369E+03  0.25094123951E+03  0.00000000000E+00 0. -1.
</event>
<event>
 7    1  0.4274778E-006  0.4069225E+02  0.7561462E-02  0.1503178E+00
          2   -1    0    0  501    0  0.00000000000E+00  0.00000000000E+00  0.13982216609E+03  0.13982216609E+03  0.00000000000E+00 0. -1.
         -2   -1    0    0    0  501 -0.00000000000E+00 -0.00000000000E+00 -0.97771129835E+02  0.97771129835E+02  0.00000000000E+00 0.  1.
         23    2    1    2    0    0 -0.92918164774E+01 -0.22753932190E+02  0.54221108333E+02  0.10951133564E+03  0.91916944904E+02 0.  0.
          5    1    1    2  502    0  0.41195706374E+01 -0.11565455179E+02 -0.64145897274E+02  0.65443862606E+02  0.41800000000E+01 0.  1.
         -5    1    1    2    0  502  0.51722458399E+01  0.34319387369E+02  0.51975825197E+02  0.62638097683E+02  0.41800000000E+01 0.  1.
        -11    1    3    3    0    0 -0.16182472230E+02 -0.10177060461E+02 -0.23604988100E+02  0.30374996795E+02  0.00000000000E+00 0.  1.
         11    1    3    3    0    0  0.68906557524E+01 -0.12576871729E+02  0.77826096433E+02  0.79136338841E+02  0.00000000000E+00 0. -1.
</event>
<event>
 7    1  0.4274778E-006  0.3408920E+03  0.7561462E-02  0.1066417E+00
          1   -1    0    0  501    0  0.00000000000E+00  0.00000000000E+00  0.18649198802E+03  0.18649198802E+03  0.00000000000E+00 0. -1.
         -1   -1    0    0    0  501 -0.00000000000E+00 -0.00000000000E+00 -0.94487814133E+03  0.94487814133E+03  0.00000000000E+00 0.  1.
         23    2    1    2    0    0  0.24159454699E+03  0.22992194544E+03 -0.64822003212E+02  0.35168348771E+03  0.90814961883E+02 0.  0.
          5    1    1    2  502    0 -0.10671326907E+03 -0.14283878189E+03 -0.24352413492E+03  0.30184783599E+03  0.41800000000E+01 0.  1.
         -5    1    1    2    0  502 -0.13488127792E+03 -0.87083163546E+02 -0.45004001519E+03  0.47783880564E+03  0.41800000000E+01 0.  1.
        -11    1    3    3    0    0  0.15783240016E+03  0.95586291664E+02 -0.57227531512E+02  0.19319108690E+03  0.00000000000E+00 0.  1.
         11    1    3    3    0    0  0.83762146833E+02  0.13433565377E+03 -0.75944716994E+01  0.15849240082E+03  0.00000000000E+00 0. -1.
</event>
<event>
 7    1  0.4274778E-006  0.1046263E+03  0.7561462E-02  0.1270858E+00
         -2   -1    0    0    0  501 -0.00000000000E+00  0.00000000000E+00  0.42861112194E+02  0.42861112194E+02  0.00000000000E+00 0.  1.
          2   -1    0    0  501    0  0.00000000000E+00 -0.00000000000E+00 -0.33981738560E+03  0.33981738560E+03  0.00000000000E+00 0. -1.
         23    2    1    2    0    0  0.29504575017E+02  0.41783425067E+02 -0.14662519974E+03  0.18053018072E+03  0.92064229728E+02 0.  0.
          5    1    1    2  502    0  0.11138481203E+02 -0.67810665190E+02 -0.13465090188E+03  0.15123058505E+03  0.41800000000E+01 0.  1.
         -5    1    1    2    0  502 -0.40643056220E+02  0.26027240122E+02 -0.15680171788E+02  0.50917732025E+02  0.41800000000E+01 0.  1.
        -11    1    3    3    0    0  0.45112618912E+02 -0.23270277874E+01 -0.11631887712E+03  0.12478238905E+03  0.00000000000E+00 0. -1.
         11    1    3    3    0    0 -0.15608043896E+02  0.44110452855E+02 -0.30306322624E+02  0.55747791672E+02  0.00000000000E+00 0.  1.
</event>
<event>
 7    1  0.4274778E-006  0.1195131E+03  0.7561462E-02  0.1243902E+00
          2   -1    0    0  501    0  0.00000000000E+00  0.00000000000E+00  0.74568813371E+03  0.74568813371E+03  0.00000000000E+00 0. -1.
         -2   -1    0    0    0  501 -0.00000000000E+00 -0.00000000000E+00 -0.22432037918E+02  0.22432037918E+02  0.00000000000E+00 0.  1.
         23    2    1    2    0    0 -0.22283073184E+02 -0.62113181253E+02  0.40544511386E+03  0.42025846870E+03  0.88751662121E+02 0.  0.
          5    1    1    2  502    0 -0.46492026366E+02  0.16106640813E+02  0.63779199323E+02  0.80660963671E+02  0.41800000000E+01 0.  1.
         -5    1    1    2    0  502  0.68775099551E+02  0.46006540439E+02  0.25403178261E+03  0.26720073925E+03  0.41800000000E+01 0.  1.
        -11    1    3    3    0    0 -0.31860674717E+02  0.10505988166E+02  0.18341940669E+03  0.18646221368E+03  0.00000000000E+00 0.  1.
         11    1    3    3    0    0  0.95776015329E+01 -0.72619169419E+02  0.22202570717E+03  0.23379625502E+03  0.00000000000E+00 0. -1.
</event>
<event>
 7    1  0.4274778E-006  0.1874554E+03  0.7561462E-02  0.1160777E+00
          1   -1    0    0  501    0  0.00000000000E+00  0.00000000000E+00  0.41438819126E+02  0.41438819126E+02  0.00000000000E+00 0. -1.
         -1   -1    0    0    0  501 -0.00000000000E+00 -0.00000000000E+00 -0.98950023291E+03  0.98950023291E+03  0.00000000000E+00 0.  1.
         23    2    1    2    0    0 -0.13368453116E+03  0.99736010546E+02 -0.35793011972E+03  0.40506275475E+03  0.90238788859E+02 0.  0.
          5    1    1    2  502    0  0.14605330374E+03 -0.91758213501E+02 -0.40639038504E+03  0.44149943910E+03  0.41800000000E+01 0. -1.
         -5    1    1    2    0  502 -0.12368772580E+02 -0.79777970449E+01 -0.18374090903E+03  0.18437685818E+03  0.41800000000E+01 0. -1.
        -11    1    3    3    0    0 -0.70462261799E+02  0.10181344116E+03 -0.26678661858E+03  0.29411903541E+03  0.00000000000E+00 0. -1.
         11    1    3    3    0    0 -0.63222269364E+02 -0.20774306118E+01 -0.91143501135E+02  0.11094371934E+03  0.00000000000E+00 0.  1.
</event>
<event>
 7    1  0.4274778E-006  0.2568360E+03  0.7561462E-02  0.1109059E+00
          2   -1    0    0  501    0  0.00000000000E+00  0.00000000000E+00  0.43502682536E+03  0.43502682536E+03  0.00000000000E+00 0.  1.
         -2   -1    0    0    0  501 -0.00000000000E+00 -0.00000000000E+00 -0.18275236272E+03  0.18275236272E+03  0.00000000000E+00 0. -1.
         23    2    1    2    0    0 -0.16803313081E+03 -0.17599564337E+03  0.21998880623E+03  0.34227918238E+03  0.97725965286E+02 0.  0.
          5    1    1    2  502    0  0.52877060593E+02 -0.59995667156E+01  0.27479945152E+02  0.60038305466E+02  0.41800000000E+01 0. -1.
         -5    1    1    2    0  502  0.11515607021E+03  0.18199521009E+03  0.48057112617E+01  0.21546170022E+03  0.41800000000E+01 0. -1.
        -11    1    3    3    0    0 -0.68370299236E+02 -0.52573646092E+02  0.22818137393E+02  0.89214087873E+02  0.00000000000E+00 0. -1.
         11    1    3    3    0    0 -0.99662831570E+02 -0.12342199728E+03  0.19717066883E+03  0.25306509451E+03  0.00000000000E+00 0.  1.
</event>
<event>
 7    1  0.4274778E-006  0.1300485E+03  0.7561462E-02  0.1227384E+00
          2   -1    0    0  501    0  0.00000000000E+00  0.00000000000E+00  0.17234203682E+03  0.17234203682E+03  0.00000000000E+00 0. -1.
         -2   -1    0    0    0  501 -0.00000000000E+00 -0.00000000000E+00 -0.13080184485E+03  0.13080184485E+03  0.00000000000E+00 0.  1.
         23    2    1    2    0    0 -0.75489481800E+01 -0.99528048372E+02  0.46122229923E+02  0.14304237570E+03  0.91493399331E+02 0.  0.
          5    1    1    2  502    0  0.52317174342E+02  0.21702728280E+02  0.29472823186E+02  0.63986052015E+02  0.41800000000E+01 0.  1.
         -5    1    1    2    0  502 -0.44768226162E+02  0.77825320092E+02 -0.34054861145E+02  0.96115453954E+02  0.41800000000E+01 0.  1.
        -11    1    3    3    0    0 -0.30966355823E+02 -0.57839147710E+02 -0.13125137640E+02  0.66907035795E+02  0.00000000000E+00 0.  1.
         11    1    3    3    0    0  0.23417407643E+02 -0.41688900661E+02  0.59247367564E+02  0.76135339904E+02  0.00000000000E+00 0. -1.
</event>
<event>
 7    1  0.4274778E-006  0.1052383E+03  0.7561462E-02  0.1269651E+00
          2   -1    0    0  501    0  0.00000000000E+00  0.00000000000E+00  0.95524165141E+02  0.95524165141E+02  0.00000000000E+00 0. -1.
         -2   -1    0    0    0  501 -0.00000000000E+00 -0.00000000000E+00 -0.15821607825E+03  0.15821607825E+03  0.00000000000E+00 0.  1.
         23    2    1    2    0    0 -0.17288823269E+02 -0.22342391924E+01  0.92960193473E+01  0.10836469719E+03  0.10654856351E+03 0.  0.
          5    1    1    2  502    0 -0.35660177439E+02 -0.39417768401E+02 -0.11076357699E+02  0.54457018102E+02  0.41800000000E+01 0. -1.
         -5    1    1    2    0  502  0.52949000709E+02  0.41652007593E+02 -0.60911574755E+02  0.90918528099E+02  0.41800000000E+01 0. -1.
        -11    1    3    3    0    0 -0.26223975029E+01 -0.44677450283E+02 -0.25541683782E+02  0.51529885920E+02  0.00000000000E+00 0. -1.
         11    1    3    3    0    0 -0.14666425766E+02  0.42443211091E+02  0.34837703129E+02  0.56834811267E+02  0.00000000000E+00 0.  1.
</event>
<event>
 7    1  0.4274778E-006  0.1024857E+03  0.7561462E-02  0.1275154E+00
         -1   -1    0    0    0  501 -0.00000000000E+00  0.00000000000E+00  0.19584499097E+03  0.19584499097E+03  0.00000000000E+00 0.  1.
          1   -1    0    0  501    0  0.00000000000E+00 -0.00000000000E+00 -0.10942985503E+03  0.10942985503E+03  0.00000000000E+00 0. -1.
         23    2    1    2    0    0  0.43675125805E+02  0.63582095492E+02 -0.18686225621E+02  0.12459650126E+03  0.96046413872E+02 0.  0.
          5    1    1    2  502    0 -0.19325718573E+02  0.14314562965E+02 -0.19791295973E+02  0.31425434086E+02  0.41800000000E+01 0. -1.
         -5    1    1    2    0  502 -0.24349407233E+02 -0.77896658458E+02  0.12489265754E+03  0.14925291065E+03  0.41800000000E+01 0. -1.
        -11    1    3    3    0    0  0.38949854693E+02  0.76084598237E+02  0.16414907845E+02  0.87036811000E+02  0.00000000000E+00 0.  1.
         11    1    3    3    0    0  0.47252711120E+01 -0.12502502745E+02 -0.35101133467E+02  0.37559690263E+02  0.00000000000E+00 0. -1.
</event>
<event>
 7    1  0.4274778E-006  0.8134860E+02  0.7561462E-02  0.1325267E+00
         -1   -1    0    0    0  501 -0.00000000000E+00  0.00000000000E+00  0.11422934637E+03  0.11422934637E+03  0.00000000000E+00 0.  1.
          1   -1    0    0  501    0  0.00000000000E+00 -0.00000000000E+00 -0.13668431580E+03  0.13668431580E+03  0.00000000000E+00 0. -1.
         23    2    1    2    0    0  0.25054998593E+02  0.24832965136E+02 -0.62925985749E+02  0.11478382709E+03  0.89281678789E+02 0.  0.
          5    1    1    2  502    0 -0.53837895979E+02 -0.45705115243E+01  0.71020239674E+02  0.89335074089E+02  0.41800000000E+01 0. -1.
         -5    1    1    2    0  502  0.28782897386E+02 -0.20262453612E+02 -0.30549223361E+02  0.46794760992E+02  0.41800000000E+01 0. -1.
        -11    1    3    3    0    0  0.28321740488E+02 -0.15707066073E+02  0.76960656328E+01  0.33287570279E+02  0.00000000000E+00 0.  1.
         11    1    3    3    0    0 -0.32667418947E+01  0.40540031209E+02 -0.70622051382E+02  0.81496256812E+02  0.00000000000E+00 0. -1.
</event>
<event>
 7    1  0.4274778E-006  0.6073116E+02  0.7561462E-02  0.1394789E+00
         -1   -1    0    0    0  501 -0.00000000000E+00  0.00000000000E+00  0.52810278022E+03  0.52810278022E+03  0.00000000000E+00 0.  1.
          1   -1    0    0  501    0  0.00000000000E+00 -0.00000000000E+00 -0.31330964549E+02  0.31330964549E+02  0.00000000000E+00 0. -1.
         23    2    1    2    0    0 -0.28520728279E+02 -0.10816896038E+02  0.85003412478E+02  0.12800690880E+03  0.90717977198E+02 0.  0.
          5    1    1    2  502    0  0.29462235706E+02 -0.99726747415E+01  0.40878934085E+03  0.40999228671E+03  0.41800000000E+01 0.  1.
         -5    1    1    2    0  502 -0.94150742733E+00  0.20789570780E+02  0.29790623520E+01  0.21434549259E+02  0.41800000000E+01 0.  1.
        -11    1    3    3    0    0 -0.31158977439E+02 -0.33653573401E+02  0.66404452142E+01  0.46341562235E+02  0.00000000000E+00 0. -1.
         11    1    3    3    0    0  0.26382491606E+01  0.22836677363E+02  0.78362967263E+02  0.81665346567E+02  0.00000000000E+00 0.  1.
</event>
<event>
 7    1  0.4274778E-006  0.1189570E+03  0.7561462E-02  0.1244828E+00
         -1   -1    0    0    0  501 -0.00000000000E+00  0.00000000000E+00  0.47028951501E+03  0.47028951501E+03  0.00000000000E+00 0.  1.
          1   -1    0    0  501    0  0.00000000000E+00 -0.00000000000E+00 -0.40502948941E+02  0.40502948941E+02  0.00000000000E+00 0. -1.
         23    2    1    2    0    0  0.13961142916E+02 -0.28581774614E+02  0.12169638441E+03  0.17675830919E+03  0.12418397053E+03 0.  0.
          5    1    1    2  502    0 -0.30980544635E+02  0.73573782644E+02  0.21008846049E+03  0.22478329402E+03  0.41800000000E+01 0.  1.
         -5    1    1    2    0  502  0.17019401718E+02 -0.44992008030E+02  0.98001721167E+02  0.10925086074E+03  0.41800000000E+01 0.  1.
        -11    1    3    3    0    0 -0.41602163101E+02 -0.34183348062E+02  0.10577003889E+03  0.11868674057E+03  0.00000000000E+00 0.  1.
         11    1    3    3    0    0  0.55563306017E+02  0.56015734485E+01  0.15926345519E+02  0.58071568623E+02  0.00000000000E+00 0. -1.
</event>
<event>
 7    1  0.4274778E-006  0.1006711E+03  0.7561462E-02  0.1278891E+00
          2   -1    0    0  501    0  0.00000000000E+00  0.00000000000E+00  0.87780846752E+03  0.87780846752E+03  0.00000000000E+00 0. -1.
         -2   -1    0    0    0  501 -0.00000000000E+00 -0.00000000000E+00 -0.19861213492E+02  0.19861213492E+02  0.00000000000E+00 0.  1.
         23    2    1    2    0    0 -0.47201442805E+02 -0.53374439606E+02  0.30332682812E+03  0.32466900810E+03  0.91246880249E+02 0.  0.
          5    1    1    2  502    0 -0.51498719162E+00  0.45120833097E+02  0.56102035401E+02  0.72118413511E+02  0.41800000000E+01 0.  1.
         -5    1    1    2    0  502  0.47716429997E+02  0.82536065086E+01  0.49851839051E+03  0.50088225940E+03  0.41800000000E+01 0.  1.
        -11    1    3    3    0    0 -0.42453534458E+02 -0.74511138670E+02  0.27998288084E+03  0.29282183310E+03  0.00000000000E+00 0. -1.
         11    1    3    3    0    0 -0.47479083474E+01  0.21136699064E+02  0.23343947282E+02  0.31847175004E+02  0.00000000000E+00 0.  1.
</event>
<event>
 7    1  0.4274778E-006  0.1189763E+03  0.7561462E-02  0.1244795E+00
          4   -1    0    0  501    0  0.00000000000E+00  0.00000000000E+00  0.17061133331E+03  0.17061133331E+03  0.00000000000E+00 0. -1.
         -4   -1    0    0    0  501 -0.00000000000E+00 -0.00000000000E+00 -0.14488564866E+03  0.14488564866E+03  0.00000000000E+00 0.  1.
         23    2    1    2    0    0  0.44086559313E+00  0.86488271601E+02  0.84569960427E+02  0.15242685558E+03  0.92744016569E+02 0.  0.
          5    1    1    2  502    0  0.55883543670E+02 -0.60079001982E+02 -0.78662480261E+01  0.82533673069E+02  0.41800000000E+01 0.  1.
         -5    1    1    2    0  502 -0.56324409263E+02 -0.26409269619E+02 -0.50978027744E+02  0.80536453320E+02  0.41800000000E+01 0.  1.
        -11    1    3    3    0    0 -0.16052684656E+02  0.24420883967E+02 -0.15835786022E+02  0.33239139239E+02  0.00000000000E+00 0.  1.
         11    1    3    3    0    0  0.16493550249E+02  0.62067387634E+02  0.10040574645E+03  0.11918771634E+03  0.00000000000E+00 0. -1.
</event>
<event>
 7    1  0.4274778E-006  0.1058919E+03  0.7561462E-02  0.1268372E+00
         -1   -1    0    0    0  501 -0.00000000000E+00  0.00000000000E+00  0.75000045976E+02  0.75000045976E+02  0.00000000000E+00 0.  1.
          1   -1    0    0  501    0  0.00000000000E+00 -0.00000000000E+00 -0.16408657389E+03  0.16408657389E+03  0.00000000000E+00 0. -1.
         23    2    1    2    0    0 -0.25582546901E+02  0.28716627205E+02 -0.64494234241E+02  0.11828250060E+03  0.91390001166E+02 0.  0.
          5    1    1    2  502    0 -0.37668526604E+02  0.10449350355E+02 -0.24439733099E+02  0.46291249425E+02  0.41800000000E+01 0. -1.
         -5    1    1    2    0  502  0.63251073505E+02 -0.39165977561E+02 -0.15256057386E+00  0.74512869845E+02  0.41800000000E+01 0.  1.
        -11    1    3    3    0    0 -0.59040627551E+02  0.10856129035E+02 -0.48274675194E+02  0.77033080584E+02  0.00000000000E+00 0. -1.
         11    1    3    3    0    0  0.33458080650E+02  0.17860498170E+02 -0.16219559048E+02  0.41249420012E+02  0.00000000000E+00 0.  1.
</event>
<event>
 6    1  0.4274778E-006  0.2136598E+03  0.7561462E-02  0.1138700E+00
         -2   -1    0    0    0  501 -0.00000000000E+00  0.00000000000E+00  0.40586717066E+02  0.40586717066E+02  0.00000000000E+00 0.  1.
          2   -1    0    0  501    0  0.00000000000E+00 -0.00000000000E+00 -0.13717800579E+04  0.13717800579E+04  0.00000000000E+00 0. -1.
          5    1    1    2  502    0 -0.60599880061E+02  0.14748359229E+03 -0.34613442466E+03  0.38111713133E+03  0.41800000000E+01 0. -1.
         -5    1    1    2    0  502 -0.35757052630E+02 -0.68632202473E+01 -0.26871739116E+02  0.45444838740E+02  0.41800000000E+01 0.  1.
        -11    1    1    2    0    0  0.12755827217E+03 -0.15156842755E+03 -0.84314359917E+03  0.86610347525E+03  0.00000000000E+00 0.  1.
         11    1    1    2    0    0 -0.31201339475E+02  0.10948055507E+02 -0.11504357793E+03  0.11970132969E+03  0.00000000000E+00 0. -1.
</event>
<event>
 7    1  0.4274778E-006  0.2738077E+03  0.7561462E-02  0.1099120E+00
         -1   -1    0    0    0  501 -0.00000000000E+00  0.00000000000E+00  0.89467666415E+02  0.89467666415E+02  0.00000000000E+00 0.  1.
          1   -1    0    0  501    0  0.00000000000E+00 -0.00000000000E+00 -0.87470581684E+03  0.87470581684E+03  0.00000000000E+00 0. -1.
         23    2    1    2    0    0  0.24574126493E+03 -0.64078930065E+02 -0.39400705585E+03  0.48125814810E+03  0.10896314281E+03 0.  0.
          5    1    1    2  502    0 -0.24789977899E+03  0.31398755440E+02 -0.34006356455E+03  0.42202000261E+03  0.41800000000E+01 0.  1.
         -5    1    1    2    0  502  0.21585140645E+01  0.32680174625E+02 -0.51167530026E+02  0.60895332542E+02  0.41800000000E+01 0.  1.
        -11    1    3    3    0    0  0.16450480308E+03 -0.78337287952E+02 -0.32960746308E+03  0.37661603874E+03  0.00000000000E+00 0. -1.
         11    1    3    3    0    0  0.81236461847E+02  0.14258357887E+02 -0.64399592775E+02  0.10464210937E+03  0.00000000000E+00 0.  1.
</event>
<event>
 7    1  0.4274778E-006  0.7365757E+02  0.7561462E-02  0.1348079E+00
         -2   -1    0    0    0  501 -0.00000000000E+00  0.00000000000E+00  0.22896859664E+03  0.22896859664E+03  0.00000000000E+00 0.  1.
          2   -1    0    0  501    0  0.00000000000E+00 -0.00000000000E+00 -0.89365284622E+02  0.89365284622E+02  0.00000000000E+00 0. -1.
         23    2    1    2    0    0 -0.12911619011E+02 -0.50948946594E+02 -0.21308608971E+02  0.10784789318E+03  0.91731162544E+02 0.  0.
          5    1    1    2  502    0  0.39994315524E+02  0.42845987745E+02  0.17050207192E+03  0.18034343034E+03  0.41800000000E+01 0. -1.
         -5    1    1    2    0  502 -0.27082696513E+02  0.81029588486E+01 -0.95901509267E+01  0.30142557743E+02  0.41800000000E+01 0. -1.
        -11    1    3    3    0    0 -0.11820956604E+02 -0.32399657256E+01 -0.50459839939E+02  0.51927139721E+02  0.00000000000E+00 0. -1.
         11    1    3    3    0    0 -0.10906624078E+01 -0.47708980868E+02  0.29151230968E+02  0.55920753455E+02  0.00000000000E+00 0.  1.
</event>
<event>
 7    1  0.4274778E-006  0.1317107E+03  0.7561462E-02  0.1224939E+00
          1   -1    0    0  501    0  0.00000000000E+00  0.00000000000E+00  0.16522361568E+03  0.16522361568E+03  0.00000000000E+00 0. -1.
         -1   -1    0    0    0  501 -0.00000000000E+00 -0.00000000000E+00 -0.11768410677E+03  0.11768410677E+03  0.00000000000E+00 0.  1.
         23    2    1    2    0    0 -0.68045315295E+02  0.46671948892E+02  0.46233576844E+02  0.13304783052E+03  0.93572142392E+02 0.  0.
          5    1    1    2  502    0  0.52171682361E+01  0.40924286913E+02 -0.51623782534E+01  0.41786823916E+02  0.41800000000E+01 0.  1.
         -5    1    1    2    0  502  0.62828147059E+02 -0.87596235805E+02  0.64683103180E+01  0.10807306801E+03  0.41800000000E+01 0.  1.
        -11    1    3    3    0    0 -0.11987857004E+02  0.55981102496E+02 -0.37429997187E+01  0.57372489915E+02  0.00000000000E+00 0.  1.
         11    1    3    3    0    0 -0.56057458291E+02 -0.93091536044E+01  0.49976576563E+02  0.75675340606E+02  0.00000000000E+00 0. -1.
</event>
<event>
 7    1  0.4274778E-006  0.1117919E+03  0.7561462E-02  0.1257287E+00
         -2   -1    0    0    0  501 -0.00000000000E+00  0.00000000000E+00  0.14269184307E+02  0.14269184307E+02  0.00000000000E+00 0. -1.
          2   -1    0    0  501    0  0.00000000000E+00 -0.00000000000E+00 -0.88925132066E+03  0.88925132066E+03  0.00000000000E+00 0.  1.
         23    2    1    2    0    0  0.19217915926E+02  0.21606653668E+02 -0.42803688378E+03  0.43850031622E+03  0.90723633462E+02 0.  0.
          5    1    1    2  502    0 -0.17124142763E+01  0.52202754549E+02 -0.17850260515E+03  0.18603416995E+03  0.41800000000E+01 0.  1.
         -5    1    1    2    0  502 -0.17505501649E+02 -0.73809408217E+02 -0.26844264743E+03  0.27898601880E+03  0.41800000000E+01 0.  1.
        -11    1    3    3    0    0 -0.24100881964E+02 -0.22800925563E+02 -0.14671038240E+03  0.15041499600E+03  0.00000000000E+00 0. -1.
         11    1    3    3    0    0  0.43318797889E+02  0.44407579231E+02 -0.28132650138E+03  0.28808532022E+03  0.00000000000E+00 0.  1.
</event>
<event>
 7    1  0.4274778E-006  0.9187033E+02  0.7561462E-02  0.1298385E+00
         -4   -1    0    0    0  501 -0.00000000000E+00  0.00000000000E+00  0.13869775346E+03  0.13869775346E+03  0.00000000000E+00 0.  1.
          4   -1    0    0  501    0  0.00000000000E+00 -0.00000000000E+00 -0.12047748168E+03  0.12047748168E+03  0.00000000000E+00 0. -1.
         23    2    1    2    0    0  0.49569150440E+02 -0.41740225701E+02 -0.21240269346E+02  0.11287319127E+03  0.89943655405E+02 0.  0.
          5    1    1    2  502    0 -0.24826662442E+02 -0.27893980083E+01  0.78178756245E+02  0.82179889494E+02  0.41800000000E+01 0. -1.
         -5    1    1    2    0  502 -0.24742487998E+02  0.44529623710E+02 -0.38718215114E+02  0.64122154375E+02  0.41800000000E+01 0. -1.
        -11    1    3    3    0    0  0.42736715188E+02 -0.67916647874E+02 -0.31057601896E+01  0.80304069822E+02  0.00000000000E+00 0.  1.
         11    1    3    3    0    0  0.68324352524E+01  0.26176422173E+02 -0.18134509157E+02  0.32569121444E+02  0.00000000000E+00 0. -1.
</event>
<event>
 7    1  0.4274778E-006  0.1326259E+03  0.7561462E-02  0.1223611E+00
          2   -1    0    0  501    0  0.00000000000E+00  0.00000000000E+00  0.34175414466E+02  0.34175414466E+02  0.00000000000E+00 0. -1.
         -2   -1    0    0    0  501 -0.00000000000E+00 -0.00000000000E+00 -0.64142083502E+03  0.64142083502E+03  0.00000000000E+00 0.  1.
         23    2    1    2    0    0  0.97730868170E+02  0.12940818918E+02 -0.23257586555E+03  0.26847842223E+03  0.90941423892E+02 0.  0.
          5    1    1    2  502    0 -0.10825835321E+03 -0.50609653026E+02 -0.29332008006E+03  0.31675755679E+03  0.41800000000E+01 0.  1.
         -5    1    1    2    0  502  0.10527485039E+02  0.37668834109E+02 -0.81349474954E+02  0.90360270472E+02  0.41800000000E+01 0.  1.
        -11    1    3    3    0    0  0.72474946385E+02  0.27111506362E+02 -0.73281895312E+02  0.10657339167E+03  0.00000000000E+00 0. -1.
         11    1    3    3    0    0  0.25255921784E+02 -0.14170687444E+02 -0.15929397023E+03  0.16190503056E+03  0.00000000000E+00 0.  1.
</event>
<event>
 7    1  0.4274778E-006  0.1063151E+03  0.7561462E-02  0.1267550E+00
          1   -1    0    0  501    0  0.00000000000E+00  0.00000000000E+00  0.41598388305E+03  0.41598388305E+03  0.00000000000E+00 0. -1.
         -1   -1    0    0    0  501 -0.00000000000E+00 -0.00000000000E+00 -0.83885340777E+02  0.83885340777E+02  0.00000000000E+00 0.  1.
         23    2    1    2    0    0  0.46534046703E+02 -0.34826332830E+02  0.34411828322E+03  0.36141323359E+03  0.93935305409E+02 0.  0.
          5    1    1    2  502    0 -0.14608431602E+02 -0.47320920450E+02 -0.45381640279E+01  0.49907345340E+02  0.41800000000E+01 0.  1.
         -5    1    1    2    0  502 -0.31925615101E+02  0.82147253280E+02 -0.74815769189E+01  0.88548644903E+02  0.41800000000E+01 0.  1.
        -11    1    3    3    0    0  0.55766054154E+02 -0.24690401025E+02  0.34217327288E+03  0.34756584609E+03  0.00000000000E+00 0. -1.
         11    1    3    3    0    0 -0.92320074504E+01 -0.10135931804E+02  0.19450103434E+01  0.13847387492E+02  0.00000000000E+00 0.  1.
</event>
<event>
 7    1  0.4274778E-006  0.9110338E+02  0.7561462E-02  0.1300201E+00
         -3   -1    0    0    0  501 -0.00000000000E+00  0.00000000000E+00  0.14801670965E+03  0.14801670965E+03  0.00000000000E+00 0.  1.
          3   -1    0    0  501    0  0.00000000000E+00 -0.00000000000E+00 -0.12506459027E+03  0.12506459027E+03  0.00000000000E+00 0. -1.
         23    2    1    2    0    0 -0.60040618470E+01 -0.59680839750E+02 -0.52462745245E+02  0.11518129934E+03  0.83165742274E+02 0.  0.
          5    1    1    2  502    0  0.31940352951E+02  0.37890480678E+02 -0.22220126254E+02  0.54470919612E+02  0.41800000000E+01 0.  1.
         -5    1    1    2    0  502 -0.25936291104E+02  0.21790359073E+02  0.97634990884E+02  0.10342908097E+03  0.41800000000E+01 0.  1.
        -11    1    3    3    0    0  0.19432506658E+02 -0.68667945493E+02 -0.22419663975E+02  0.74803411593E+02  0.00000000000E+00 0. -1.
         11    1    3    3    0    0 -0.25436568506E+02  0.89871057428E+01 -0.30043081270E+02  0.40377887750E+02  0.00000000000E+00 0.  1.
</event>
<event>
 7    1  0.4274778E-006  0.7375939E+02  0.7561462E-02  0.1347756E+00
          1   -1    0    0  501    0  0.00000000000E+00  0.00000000000E+00  0.17166729361E+02  0.17166729361E+02  0.00000000000E+00 0. -1.
         -1   -1    0    0    0  501 -0.00000000000E+00 -0.00000000000E+00 -0.90124591840E+03  0.90124591840E+03  0.00000000000E+00 0.  1.
         23    2    1    2    0    0 -0.32020703447E+02  0.58771402430E+01 -0.20642961216E+03  0.22854561105E+03  0.92520513018E+02 0.  0.
          5    1    1    2  502    0  0.24852556955E+02 -0.26544100073E+02 -0.66112013855E+03  0.66213257647E+03  0.41800000000E+01 0.  1.
         -5    1    1    2    0  502  0.71681464920E+01  0.20666959830E+02 -0.16529438328E+02  0.27734460228E+02  0.41800000000E+01 0.  1.
        -11    1    3    3    0    0  0.13332856572E+02  0.33145307666E+02 -0.13500746714E+03  0.13965454761E+03  0.00000000000E+00 0.  1.
         11    1    3    3    0    0 -0.45353560019E+02 -0.27268167423E+02 -0.71422145018E+02  0.88891063443E+02  0.00000000000E+00 0. -1.
</event>
<event>
 7    1  0.4274778E-006  0.7827304E+02  0.7561462E-02  0.1334025E+00
          2   -1    0    0  501    0  0.00000000000E+00  0.00000000000E+00  0.84629706199E+02  0.84629706199E+02  0.00000000000E+00 0. -1.
         -2   -1    0    0    0  501 -0.00000000000E+00 -0.00000000000E+00 -0.15804625643E+03  0.15804625643E+03  0.00000000000E+00 0.  1.
         23    2    1    2    0    0 -0.31071562336E+02  0.16992907272E+02 -0.12789329985E+02  0.99148598992E+02  0.91720645643E+02 0.  0.
          5    1    1    2  502    0  0.43032567504E+02  0.23921380017E+02  0.19139324824E+02  0.52988870932E+02  0.41800000000E+01 0.  1.
         -5    1    1    2    0  502 -0.11961005168E+02 -0.40914287289E+02 -0.79766545067E+02  0.90538492703E+02  0.41800000000E+01 0.  1.
        -11    1    3    3    0    0 -0.16646377121E+02 -0.19158478230E+02 -0.42963044291E+02  0.49899622585E+02  0.00000000000E+00 0.  1.
         11    1    3    3    0    0 -0.14425185215E+02  0.36151385502E+02  0.30173714305E+02  0.49248976407E+02  0.00000000000E+00 0. -1.
</event>
<event>
 7    1  0.4274778E-006  0.1370542E+03  0.7561462E-02  0.1217349E+00
          2   -1    0    0  501    0  0.00000000000E+00  0.00000000000E+00  0.71019381325E+03  0.71019381325E+03  0.00000000000E+00 0. -1.
         -2   -1    0    0    0  501 -0.00000000000E+00 -0.00000000000E+00 -0.41621045010E+02  0.41621045010E+02  0.00000000000E+00 0.  1.
         23    2    1    2    0    0  0.11192884967E+03 -0.71942573389E+01  0.47529811551E+03  0.49572590757E+03  0.85182463564E+02 0.  0.
          5    1    1    2  502    0 -0.13356705076E+03  0.17020041830E+02  0.18817885279E+03  0.23142729292E+03  0.41800000000E+01 0.  1.
         -5    1    1    2    0  502  0.21638201087E+02 -0.98257844914E+01  0.50957999470E+01  0.24661657776E+02  0.41800000000E+01 0.  1.
        -11    1    3    3    0    0  0.35938729717E+02  0.10105707614E+02  0.45199897981E+02  0.58623786960E+02  0.00000000000E+00 0.  1.
         11    1    3    3    0    0  0.75990119954E+02 -0.17299964953E+02  0.43009821753E+03  0.43710212061E+03  0.00000000000E+00 0. -1.
</event>
<event>
 7    1  0.4274778E-006  0.1036432E+03  0.7561462E-02  0.1272816E+00
          3   -1    0    0  501    0  0.00000000000E+00  0.00000000000E+00  0.13735738303E+03  0.13735738303E+03  0.00000000000E+00 0. -1.
         -3   -1    0    0    0  501 -0.00000000000E+00 -0.00000000000E+00 -0.10854645905E+03  0.10854645905E+03  0.00000000000E+00 0.  1.
         23    2    1    2    0    0  0.66295209005E+01  0.56655548478E+02  0.24581717784E+02  0.10834771667E+03  0.88775926563E+02 0.  0.
          5    1    1    2  502    0 -0.61046314216E+02 -0.55478559573E+02 -0.19451391759E+01  0.82618272906E+02  0.41800000000E+01 0.  1.
         -5    1    1    2    0  502  0.54416793315E+02 -0.11769889046E+01  0.61743453739E+01  0.54937852510E+02  0.41800000000E+01 0.  1.
        -11    1    3    3    0    0 -0.94796404573E+01  0.52656748131E+02 -0.22788163160E+02  0.58154080572E+02  0.00000000000E+00 0.  1.
         11    1    3    3    0    0  0.16109161358E+02  0.39988003470E+01  0.47369880944E+02  0.50193636096E+02  0.00000000000E+00 0. -1.
</event>
<event>
 7    1  0.4274778E-006  0.2085079E+03  0.7561462E-02  0.1142753E+00
          1   -1    0    0  501    0  0.00000000000E+00  0.00000000000E+00  0.71438219723E+03  0.71438219723E+03  0.00000000000E+00 0. -1.
         -1   -1    0    0    0  501 -0.00000000000E+00 -0.00000000000E+00 -0.63316513754E+02  0.63316513754E+02  0.00000000000E+00 0.  1.
         23    2    1    2    0    0  0.95258736816E+02  0.15663455768E+03  0.30534006681E+03  0.36686237073E+03  0.88016084114E+02 0.  0.
          5    1    1    2  502    0  0.27300368670E+02 -0.26477874551E+02  0.32696709014E+02  0.50328273868E+02  0.41800000000E+01 0.  1.
         -5    1    1    2    0  502 -0.12255910549E+03 -0.13015668313E+03  0.31302890766E+03  0.36050806639E+03  0.41800000000E+01 0.  1.
        -11    1    3    3    0    0  0.43464560380E+02  0.10257650461E+02  0.99188815641E+02  0.10877871368E+03  0.00000000000E+00 0. -1.
         11    1    3    3    0    0  0.51794176437E+02  0.14637690722E+03  0.20615125117E+03  0.25808365705E+03  0.00000000000E+00 0.  1.
</event>
<event>
 7    1  0.4274778E-006  0.9446877E+02  0.7561462E-02  0.1292377E+00
          2   -1    0    0  501    0  0.00000000000E+00  0.00000000000E+00  0.55941020750E+03  0.55941020750E+03  0.00000000000E+00 0. -1.
         -2   -1    0    0    0  501 -0.00000000000E+00 -0.00000000000E+00 -0.25224391630E+02  0.25224391630E+02  0.00000000000E+00 0.  1.
         23    2    1    2    0    0 -0.34933751661E+02 -0.12112658055E+02  0.31271616894E+03  0.32759788488E+03  0.90343170037E+02 0.  0.
          5    1    1    2  502    0  0.10064616907E+02 -0.41377372410E+02  0.20308658086E+02  0.47363461173E+02  0.41800000000E+01 0. -1.
         -5    1    1    2    0  502  0.24869134754E+02  0.53490030465E+02  0.20116098884E+03  0.20967325308E+03  0.41800000000E+01 0. -1.
        -11    1    3    3    0    0  0.74707591059E+01 -0.37065575031E+02  0.66356446288E+02  0.76373078096E+02  0.00000000000E+00 0.  1.
         11    1    3    3    0    0 -0.42404510767E+02  0.24952916976E+02  0.24635972265E+03  0.25122480679E+03  0.00000000000E+00 0. -1.
</event>
<event>
 7    1  0.4274778E-006  0.8213936E+02  0.7561462E-02  0.1323088E+00
         -3   -1    0    0    0  501 -0.00000000000E+00  0.00000000000E+00  0.34685289234E+03  0.34685289234E+03  0.00000000000E+00 0.  1.
          3   -1    0    0  501    0  0.00000000000E+00 -0.00000000000E+00 -0.38912160932E+02  0.38912160932E+02  0.00000000000E+00 0. -1.
         23    2    1    2    0    0 -0.66607543064E+01 -0.20645262765E+02  0.74623142830E+02  0.12014384433E+03  0.91626073595E+02 0.  0.
          5    1    1    2  502    0  0.44861142025E+01 -0.50508829272E+02  0.63014316955E+02  0.80991009355E+02  0.41800000000E+01 0.  1.
         -5    1    1    2    0  502  0.21746401039E+01  0.71154092037E+02  0.17030327162E+03  0.18463019958E+03  0.41800000000E+01 0.  1.
        -11    1    3    3    0    0  0.10740114076E+02  0.43882069571E+01 -0.18677980158E+02  0.21988027502E+02  0.00000000000E+00 0. -1.
         11    1    3    3    0    0 -0.17400868382E+02 -0.25033469722E+02  0.93301122987E+02  0.98155816830E+02  0.00000000000E+00 0.  1.
</event>
<event>
 7    1  0.4274778E-006  0.1910929E+03  0.7561462E-02  0.1157479E+00
         -2   -1    0    0    0  501 -0.00000000000E+00  0.00000000000E+00  0.65503507489E+03  0.65503507489E+03  0.00000000000E+00 0. -1.
          2   -1    0    0  501    0  0.00000000000E+00 -0.00000000000E+00 -0.62616836937E+02  0.62616836937E+02  0.00000000000E+00 0.  1.
         23    2    1    2    0    0  0.15479581483E+03 -0.64582601657E+02  0.22589617062E+03  0.29560954782E+03  0.90682237151E+02 0.  0.
          5    1    1    2  502    0 -0.79628490318E+02  0.81996976892E+02  0.29638023459E+03  0.31768367371E+03  0.41800000000E+01 0.  1.
         -5    1    1    2    0  502 -0.75167324513E+02 -0.17414375235E+02  0.70141832748E+02  0.10435869030E+03  0.41800000000E+01 0.  1.
        -11    1    3    3    0    0  0.11878004071E+03 -0.87783262208E+02  0.17962794444E+03  0.23255278458E+03  0.00000000000E+00 0. -1.
         11    1    3    3    0    0  0.36015774124E+02  0.23200660551E+02  0.46268226183E+02  0.63056763236E+02  0.00000000000E+00 0.  1.
</event>
<event>
 7    1  0.4274778E-006  0.9393218E+02  0.7561462E-02  0.1293599E+00
         -1   -1    0    0    0  501 -0.00000000000E+00  0.00000000000E+00  0.10678430674E+03  0.10678430674E+03  0.00000000000E+00 0.  1.
          1   -1    0    0  501    0  0.00000000000E+00 -0.00000000000E+00 -0.16302285968E+03  0.16302285968E+03  0.00000000000E+00 0. -1.
         23    2    1    2    0    0 -0.25502258472E+02 -0.63534785140E+02 -0.59742885698E+02  0.12715875153E+03  0.88955615831E+02 0.  0.
          5    1    1    2  502    0  0.37130604819E+02  0.74363662571E-01  0.50427992139E+02  0.62762585474E+02  0.41800000000E+01 0. -1.
         -5    1    1    2    0  502 -0.11628346347E+02  0.63460421478E+02 -0.46923659375E+02  0.79885829419E+02  0.41800000000E+01 0. -1.
        -11    1    3    3    0    0 -0.38529936490E+02 -0.26971779921E+02  0.93098034239E+01  0.47944815755E+02  0.00000000000E+00 0.  1.
         11    1    3    3    0    0  0.13027678017E+02 -0.36563005219E+02 -0.69052689122E+02  0.79213935770E+02  0.00000000000E+00 0. -1.
</event>
<event>
 7    1  0.4274778E-006  0.1224553E+03  0.7561462E-02  0.1239101E+00
         -1   -1    0    0    0  501 -0.00000000000E+00  0.00000000000E+00  0.39046824880E+02  0.39046824880E+02  0.00000000000E+00 0.  1.
          1   -1    0    0  501    0  0.00000000000E+00 -0.00000000000E+00 -0.45624737860E+03  0.45624737860E+03  0.00000000000E+00 0. -1.
         23    2    1    2    0    0  0.75653900018E+02 -0.16442479700E+02 -0.20254138390E+03  0.23506392386E+03  0.90764356341E+02 0.  0.
          5    1    1    2  502    0 -0.83565406237E+02 -0.37979091148E+02 -0.13803748096E+03  0.16582342124E+03  0.41800000000E+01 0.  1.
         -5    1    1    2    0  502  0.79115062189E+01  0.54421570848E+02 -0.76621688864E+02  0.94406858377E+02  0.41800000000E+01 0.  1.
        -11    1    3    3    0    0  0.33510460781E+02 -0.37892177458E+02 -0.36388543079E+02  0.62312873162E+02  0.00000000000E+00 0.  1.
         11    1    3    3    0    0  0.42143439237E+02  0.21449697758E+02 -0.16615284082E+03  0.17275105070E+03  0.00000000000E+00 0. -1.
</event>
<event>
 7    1  0.4274778E-006  0.2433153E+03  0.7561462E-02  0.1117604E+00
          1   -1    0    0  501    0  0.00000000000E+00  0.00000000000E+00  0.17742991568E+04  0.17742991568E+04  0.00000000000E+00 0. -1.
         -1   -1    0    0    0  501 -0.00000000000E+00 -0.00000000000E+00 -0.36182548224E+02  0.36182548224E+02  0.00000000000E+00 0.  1.
         23    2    1    2    0    0  0.11154349094E+03  0.19655733561E+03  0.96776749505E+03  0.99797791574E+03  0.91155138522E+02 0.  0.
          5    1    1    2  502    0 -0.12019411915E+03 -0.91255254518E+02  0.49668618332E+03  0.51912309221E+03  0.41800000000E+01 0. -1.
         -5    1    1    2    0  502  0.86506282142E+01 -0.10530208109E+03  0.27366293017E+03  0.29338069704E+03  0.41800000000E+01 0. -1.
        -11    1    3    3    0    0  0.81811870329E+02  0.17505837291E+03  0.90388467171E+03  0.92430845274E+03  0.00000000000E+00 0.  1.
         11    1    3    3    0    0  0.29731620607E+02  0.21498962700E+02  0.63882823339E+02  0.73669463001E+02  0.00000000000E+00 0. -1.
</event>
<event>
 7    1  0.4274778E-006  0.9333457E+02  0.7561462E-02  0.1294972E+00
         -2   -1    0    0    0  501 -0.00000000000E+00  0.00000000000E+00  0.70469375464E+02  0.70469375464E+02  0.00000000000E+00 0.  1.
          2   -1    0    0  501    0  0.00000000000E+00 -0.00000000000E+00 -0.19550994439E+03  0.19550994439E+03  0.00000000000E+00 0. -1.
         23    2    1    2    0    0 -0.35613231320E+02  0.30344405357E+02 -0.54424514182E+02  0.11490394151E+03  0.89731838550E+02 0.  0.
          5    1    1    2  502    0 -0.39744155770E+02 -0.17956985324E+02  0.42892598627E+01  0.44021828562E+02  0.41800000000E+01 0. -1.
         -5    1    1    2    0  502  0.75357387090E+02 -0.12387420034E+02 -0.74905314611E+02  0.10705354978E+03  0.41800000000E+01 0. -1.
        -11    1    3    3    0    0 -0.47108536971E+02  0.27438380623E+02  0.45904011732E+01  0.54709695391E+02  0.00000000000E+00 0.  1.
         11    1    3    3    0    0  0.11495305651E+02  0.29060247345E+01 -0.59014915355E+02  0.60194246122E+02  0.00000000000E+00 0. -1.
</event>
<event>
 7    1  0.4274778E-006  0.9074988E+02  0.7561462E-02  0.1301046E+00
          2   -1    0    0  501    0  0.00000000000E+00  0.00000000000E+00  0.23636082607E+03  0.23636082607E+03  0.00000000000E+00 0. -1.
         -2   -1    0    0    0  501 -0.00000000000E+00 -0.00000000000E+00 -0.88332998881E+02  0.88332998881E+02  0.00000000000E+00 0.  1.
         23    2    1    2    0    0 -0.30986595081E+02 -0.79168848548E+02  0.10639182941E+03  0.16782498739E+03  0.98072062138E+02 0.  0.
          5    1    1    2  502    0  0.10168117290E+02 -0.31273873069E+01  0.67161417222E+02  0.68127083629E+02  0.41800000000E+01 0.  1.
         -5    1    1    2    0  502  0.20818477792E+02  0.82296235855E+02 -0.25525419442E+02  0.88741753933E+02  0.41800000000E+01 0.  1.
        -11    1    3    3    0    0 -0.12021248447E+02 -0.26506795264E+02  0.10797562851E+03  0.11182958893E+03  0.00000000000E+00 0. -1.
         11    1    3    3    0    0 -0.18965346635E+02 -0.52662053284E+02 -0.15837990937E+01  0.55995398459E+02  0.00000000000E+00 0.  1.
</event>
<event>
 7    1  0.4274778E-006  0.7936163E+02  0.7561462E-02  0.1330873E+00
         -2   -1    0    0    0  501 -0.00000000000E+00  0.00000000000E+00  0.31552749334E+03  0.31552749334E+03  0.00000000000E+00 0.  1.
          2   -1    0    0  501    0  0.00000000000E+00 -0.00000000000E+00 -0.51596247268E+02  0.51596247268E+02  0.00000000000E+00 0. -1.
         23    2    1    2    0    0  0.24914884201E+02 -0.14377723791E+02  0.31054644194E+02  0.10121835846E+03  0.91941800980E+02 0.  0.
          5    1    1    2  502    0  0.92157371441E+01 -0.26632434766E+02  0.20224323682E+03  0.20424009310E+03  0.41800000000E+01 0.  1.
         -5    1    1    2    0  502 -0.34130621345E+02  0.41010158557E+02  0.30633365066E+02  0.61665289050E+02  0.41800000000E+01 0.  1.
        -11    1    3    3    0    0  0.44258434635E+02  0.10219242420E+02  0.47622179676E+02  0.65811199268E+02  0.00000000000E+00 0.  1.
         11    1    3    3    0    0 -0.19343550434E+02 -0.24596966211E+02 -0.16567535482E+02  0.35407159193E+02  0.00000000000E+00 0. -1.
</event>
<event>
 7    1  0.4274778E-006  0.1173230E+03  0.7561462E-02  0.1247580E+00
         -1   -1    0    0    0  501 -0.00000000000E+00  0.00000000000E+00  0.34808729866E+02  0.34808729866E+02  0.00000000000E+00 0.  1.
          1   -1    0    0  501    0  0.00000000000E+00 -0.00000000000E+00 -0.65187481510E+03  0.65187481510E+03  0.00000000000E+00 0. -1.
         23    2    1    2    0    0  0.52447248359E+01 -0.94034350671E+02 -0.38704453417E+03  0.40842994324E+03  0.90230709069E+02 0.  0.
          5    1    1    2  502    0  0.24157131793E+02  0.65056687966E+02 -0.33085462534E+02  0.76993895191E+02  0.41800000000E+01 0.  1.
         -5    1    1    2    0  502 -0.29401856629E+02  0.28977662705E+02 -0.19693608854E+03  0.20125970654E+03  0.41800000000E+01 0.  1.
        -11    1    3    3    0    0 -0.28391524666E+02 -0.83789056632E+02 -0.32787873963E+03  0.33960440602E+03  0.00000000000E+00 0. -1.
         11    1    3    3    0    0  0.33636249502E+02 -0.10245294039E+02 -0.59165794534E+02  0.68825537218E+02  0.00000000000E+00 0.  1.
</event>
<event>
 7    1  0.4274778E-006  0.5565685E+02  0.7561462E-02  0.1417018E+00
         -2   -1    0    0    0  501 -0.00000000000E+00  0.00000000000E+00  0.77160590558E+02  0.77160590558E+02  0.00000000000E+00 0.  1.
          2   -1    0    0  501    0  0.00000000000E+00 -0.00000000000E+00 -0.18624998898E+03  0.18624998898E+03  0.00000000000E+00 0. -1.
         23    2    1    2    0    0 -0.33887338654E+02  0.92050403123E+00 -0.93460741877E+02  0.13287082233E+03  0.88150701102E+02 0.  0.
          5    1    1    2  502    0  0.53906883519E+00  0.15933906514E+01  0.53470168935E+02  0.53659676247E+02  0.41800000000E+01 0.  1.
         -5    1    1    2    0  502  0.33348269819E+02 -0.25138946826E+01 -0.69098825484E+02  0.76880080969E+02  0.41800000000E+01 0.  1.
        -11    1    3    3    0    0  0.19297293113E+02 -0.39508299322E+01  0.54715223860E+01  0.20443388561E+02  0.00000000000E+00 0.  1.
         11    1    3    3    0    0 -0.53184631768E+02  0.48713339635E+01 -0.98932264263E+02  0.11242743377E+03  0.00000000000E+00 0. -1.
</event>
<event>
 7    1  0.4274778E-006  0.1238145E+03  0.7561462E-02  0.1236934E+00
         -1   -1    0    0    0  501 -0.00000000000E+00  0.00000000000E+00  0.57320114615E+02  0.57320114615E+02  0.00000000000E+00 0.  1.
          1   -1    0    0  501    0  0.00000000000E+00 -0.00000000000E+00 -0.69589208440E+03  0.69589208440E+03  0.00000000000E+00 0. -1.
         23    2    1    2    0    0 -0.24177162159E+02  0.10893695075E+03 -0.54519884483E+03  0.56133103874E+03  0.73477617286E+02 0.  0.
          5    1    1    2  502    0  0.25215437501E+02 -0.38456885205E+02  0.26144050499E+02  0.53063491070E+02  0.41800000000E+01 0.  1.
         -5    1    1    2    0  502 -0.10382753412E+01 -0.70480065545E+02 -0.11951717546E+03  0.13881766921E+03  0.41800000000E+01 0.  1.
        -11    1    3    3    0    0 -0.37801858388E+02  0.23907832108E+02 -0.13589394084E+03  0.14306546785E+03  0.00000000000E+00 0.  1.
         11    1    3    3    0    0  0.13624696229E+02  0.85029118641E+02 -0.40930490398E+03  0.41826557089E+03  0.00000000000E+00 0. -1.
</event>
<event>
 7    1  0.4274778E-006  0.1064135E+03  0.7561462E-02  0.1267359E+00
         -2   -1    0    0    0  501 -0.00000000000E+00  0.00000000000E+00  0.95042596700E+02  0.95042596700E+02  0.00000000000E+00 0.  1.
          2   -1    0    0  501    0  0.00000000000E+00 -0.00000000000E+00 -0.17707487485E+03  0.17707487485E+03  0.00000000000E+00 0. -1.
         23    2    1    2    0    0  0.40836852204E+02 -0.23693668915E+02 -0.94064361395E+02  0.13787155915E+03  0.89058544196E+02 0.  0.
          5    1    1    2  502    0  0.87654869511E+01  0.67006930915E+02  0.51039925170E+01  0.67899084617E+02  0.41800000000E+01 0. -1.
         -5    1    1    2    0  502 -0.49602339155E+02 -0.43313262001E+02  0.69280907308E+01  0.66346827776E+02  0.41800000000E+01 0. -1.
        -11    1    3    3    0    0  0.57149936105E+02 -0.25769830140E+02 -0.26034260841E+02  0.67882119000E+02  0.00000000000E+00 0.  1.
         11    1    3    3    0    0 -0.16313083902E+02  0.20761612257E+01 -0.68030100553E+02  0.69989440154E+02  0.00000000000E+00 0. -1.
</event>
<event>
 7    1  0.4274778E-006  0.2010214E+03  0.7561462E-02  0.1148880E+00
         -4   -1    0    0    0  501 -0.00000000000E+00  0.00000000000E+00  0.13656435188E+04  0.13656435188E+04  0.00000000000E+00 0.  1.
          4   -1    0    0  501    0  0.00000000000E+00 -0.00000000000E+00 -0.36769189227E+02  0.36769189227E+02  0.00000000000E+00 0. -1.
         23    2    1    2    0    0  0.12602460222E+03  0.14211240920E+03  0.49913243358E+03  0.54206621070E+03  0.92867934858E+02 0.  0.
          5    1    1    2  502    0 -0.63706909541E+02 -0.30288745274E+02  0.52568240805E+03  0.53041063804E+03  0.41800000000E+01 0.  1.
         -5    1    1    2    0  502 -0.62317692678E+02 -0.11182366392E+03  0.30405948799E+03  0.32993585932E+03  0.41800000000E+01 0.  1.
        -11    1    3    3    0    0  0.15434778292E+01  0.46002160370E+02  0.18663729700E+03  0.19222919058E+03  0.00000000000E+00 0. -1.
         11    1    3    3    0    0  0.12448112439E+03  0.96110248826E+02  0.31249513658E+03  0.34983702012E+03  0.00000000000E+00 0.  1.
</event>
<event>
 7    1  0.4274778E-006  0.7181159E+02  0.7561462E-02  0.1354039E+00
         -2   -1    0    0    0  501 -0.00000000000E+00  0.00000000000E+00  0.24660285078E+02  0.24660285078E+02  0.00000000000E+00 0.  1.
          2   -1    0    0  501    0  0.00000000000E+00 -0.00000000000E+00 -0.42621954857E+03  0.42621954857E+03  0.00000000000E+00 0. -1.
         23    2    1    2    0    0  0.20935729080E+02 -0.10879800372E+02 -0.12839694875E+03  0.14951364441E+03  0.72882635848E+02 0.  0.
          5    1    1    2  502    0 -0.14179785824E+02 -0.28677018465E+02 -0.25514937119E+03  0.25718108744E+03  0.41800000000E+01 0.  1.
         -5    1    1    2    0  502 -0.67559432562E+01  0.39556818836E+02 -0.18012943542E+02  0.44185101797E+02  0.41800000000E+01 0.  1.
        -11    1    3    3    0    0  0.68698877773E+01  0.28437595120E+02 -0.26821751913E+02  0.39690030864E+02  0.00000000000E+00 0.  1.
         11    1    3    3    0    0  0.14065841303E+02 -0.39317395492E+02 -0.10157519684E+03  0.10982361355E+03  0.00000000000E+00 0. -1.
</event>
<event>
 7    1  0.4274778E-006  0.1484932E+03  0.7561462E-02  0.1202337E+00
          4   -1    0    0  501    0  0.00000000000E+00  0.00000000000E+00  0.82555113384E+02  0.82555113384E+02  0.00000000000E+00 0. -1.
         -4   -1    0    0    0  501 -0.00000000000E+00 -0.00000000000E+00 -0.35212037294E+03  0.35212037294E+03  0.00000000000E+00 0.  1.
         23    2    1    2    0    0 -0.74992366265E+02  0.79971666916E+02 -0.33015327303E+02  0.14549496401E+03  0.89774440727E+02 0.  0.
          5    1    1    2  502    0  0.10350894795E+03 -0.88422500280E+02 -0.18970188556E+03  0.23353140827E+03  0.41800000000E+01 0. -1.
         -5    1    1    2    0  502 -0.28516581686E+02  0.84508333640E+01 -0.46848046697E+02  0.55649114053E+02  0.41800000000E+01 0. -1.
        -11    1    3    3    0    0  0.82623021891E+01  0.35332886709E+02  0.15311707008E+02  0.39384348315E+02  0.00000000000E+00 0.  1.
         11    1    3    3    0    0 -0.83254668454E+02  0.44638780207E+02 -0.48327034311E+02  0.10611061569E+03  0.00000000000E+00 0. -1.
</event>
<event>
 7    1  0.5633717E-006  0.3180760E+03  0.7561462E-02  0.1076538E+00
         -1   -1    0    0    0  501 -0.00000000000E+00  0.00000000000E+00  0.59941489495E+02  0.59941489495E+02  0.00000000000E+00 0.  1.
          1   -1    0    0  501    0  0.00000000000E+00 -0.00000000000E+00 -0.18465507725E+04  0.18465507725E+04  0.00000000000E+00 0. -1.
         23    2    1    2    0    0 -0.29903475644E+03 -0.42013497368E+02 -0.11161128110E+04  0.11605696573E+04  0.10013592216E+03 0.  0.
          5    1    1    2  502    0  0.12032421549E+03  0.79406419158E+02 -0.29425471806E+03  0.32769895901E+03  0.41800000000E+01 0.  1.
         -5    1    1    2    0  502  0.17871054095E+03 -0.37392921790E+02 -0.37624175391E+03  0.41822364571E+03  0.41800000000E+01 0.  1.
        -11    1    3    3    0    0 -0.45611834195E+02 -0.31926460195E+02 -0.32684523990E+03  0.33155323724E+03  0.00000000000E+00 0.  1.
         11    1    3    3    0    0 -0.25342292224E+03 -0.10087037173E+02 -0.78926757111E+03  0.82901642001E+03  0.00000000000E+00 0. -1.
</event>
<event>
 7    1  0.4274778E-006  0.1093895E+03  0.7561462E-02  0.1261705E+00
         -1   -1    0    0    0  501 -0.00000000000E+00  0.00000000000E+00  0.48179142298E+03  0.48179142298E+03  0.00000000000E+00 0.  1.
          1   -1    0    0  501    0  0.00000000000E+00 -0.00000000000E+00 -0.35715725008E+02  0.35715725008E+02  0.00000000000E+00 0. -1.
         23    2    1    2    0    0 -0.37249562163E+02  0.54412370028E+02  0.13603633242E+03  0.17674373882E+03  0.91565438785E+02 0.  0.
          5    1    1    2  502    0  0.46135933661E+02 -0.91727186793E+02  0.22969507109E+03  0.25163405822E+03  0.41800000000E+01 0.  1.
         -5    1    1    2    0  502 -0.88863714976E+01  0.37314816765E+02  0.80344294460E+02  0.89129350951E+02  0.41800000000E+01 0.  1.
        -11    1    3    3    0    0 -0.24914810088E+02  0.36354565705E+01  0.11922155733E+03  0.12185131939E+03  0.00000000000E+00 0.  1.
         11    1    3    3    0    0 -0.12334752075E+02  0.50776913457E+02  0.16814775093E+02  0.54892419426E+02  0.00000000000E+00 0. -1.
</event>
<event>
 7    1  0.4274778E-006  0.7316224E+02  0.7561462E-02  0.1349658E+00
          1   -1    0    0  501    0  0.00000000000E+00  0.00000000000E+00  0.18095248551E+02  0.18095248551E+02  0.00000000000E+00 0. -1.
         -1   -1    0    0    0  501 -0.00000000000E+00 -0.00000000000E+00 -0.52850947577E+03  0.52850947577E+03  0.00000000000E+00 0.  1.
         23    2    1    2    0    0  0.62917418007E+00 -0.30179307063E+02 -0.12465088186E+03  0.13994520077E+03  0.55996700215E+02 0.  0.
          5    1    1    2  502    0 -0.27344807021E+02 -0.14718570076E+02 -0.32461139063E+03  0.32612022645E+03  0.41800000000E+01 0.  1.
         -5    1    1    2    0  502  0.26715632841E+02  0.44897877139E+02 -0.61151954736E+02  0.80539297102E+02  0.41800000000E+01 0.  1.
        -11    1    3    3    0    0 -0.25988878953E+02 -0.23723193576E+02 -0.57356161617E+02  0.67289977100E+02  0.00000000000E+00 0. -1.
         11    1    3    3    0    0  0.26618053133E+02 -0.64561134873E+01 -0.67294720238E+02  0.72655223665E+02  0.00000000000E+00 0.  1.
</event>
<event>
 7    1  0.4274778E-006  0.1044194E+03  0.7561462E-02  0.1271268E+00
         -2   -1    0    0    0  501 -0.00000000000E+00  0.00000000000E+00  0.61007209156E+02  0.61007209156E+02  0.00000000000E+00 0.  1.
          2   -1    0    0  501    0  0.00000000000E+00 -0.00000000000E+00 -0.40667906994E+03  0.40667906994E+03  0.00000000000E+00 0. -1.
         23    2    1    2    0    0  0.70133053529E+02  0.58520471631E+02 -0.26203722047E+03  0.29165883401E+03  0.89766807607E+02 0.  0.
          5    1    1    2  502    0 -0.75358849807E+02 -0.26786606942E+02 -0.10871505924E+03  0.13502931186E+03  0.41800000000E+01 0.  1.
         -5    1    1    2    0  502  0.52257962788E+01 -0.31733864689E+02  0.25080418923E+02  0.40998133228E+02  0.41800000000E+01 0.  1.
        -11    1    3    3    0    0  0.37160400048E+02  0.11516170307E+02 -0.21675702870E+02  0.44534858316E+02  0.00000000000E+00 0.  1.
         11    1    3    3    0    0  0.32972653480E+02  0.47004301323E+02 -0.24036151760E+03  0.24712397569E+03  0.00000000000E+00 0. -1.
</event>
<event>
 7    1  0.4274778E-006  0.1589735E+03  0.7561462E-02  0.1189861E+00
          2   -1    0    0  501    0  0.00000000000E+00  0.00000000000E+00  0.44892512677E+03  0.44892512677E+03  0.00000000000E+00 0. -1.
         -2   -1    0    0    0  501 -0.00000000000E+00 -0.00000000000E+00 -0.64323741195E+02  0.64323741195E+02  0.00000000000E+00 0.  1.
         23    2    1    2    0    0 -0.12862926859E+03  0.20622978285E+02  0.19708198247E+03  0.25290280871E+03  0.90264759849E+02 0.  0.
          5    1    1    2  502    0  0.81886202414E+02  0.41055552935E+02  0.55286875494E+02  0.10707483166E+03  0.41800000000E+01 0. -1.
         -5    1    1    2    0  502  0.46743066178E+02 -0.61678531220E+02  0.13223252762E+03  0.15327122760E+03  0.41800000000E+01 0. -1.
        -11    1    3    3    0    0  0.37101027518E+01  0.15896402256E+02  0.10799939348E+01  0.16359304815E+02  0.00000000000E+00 0. -1.
         11    1    3    3    0    0 -0.13233937134E+03  0.47265760288E+01  0.19600198853E+03  0.23654350390E+03  0.00000000000E+00 0.  1.
</event>
<event>
 7    1  0.4274778E-006  0.1135686E+03  0.7561462E-02  0.1254101E+00
         -2   -1    0    0    0  501 -0.00000000000E+00  0.00000000000E+00  0.63995118706E+03  0.63995118706E+03  0.00000000000E+00 0.  1.
          2   -1    0    0  501    0  0.00000000000E+00 -0.00000000000E+00 -0.12003320953E+03  0.12003320953E+03  0.00000000000E+00 0. -1.
         23    2    1    2    0    0  0.24436453913E+02  0.10012316493E+03 -0.66894805926E+02  0.15120161657E+03  0.88120516104E+02 0.  0.
          5    1    1    2  502    0  0.14494060670E+02 -0.26947815290E+00  0.33166700350E+03  0.33200997579E+03  0.41800000000E+01 0.  1.
         -5    1    1    2    0  502 -0.38930514583E+02 -0.99853686781E+02  0.25514577995E+03  0.27677280422E+03  0.41800000000E+01 0.  1.
        -11    1    3    3    0    0  0.27343304293E+02  0.81985940709E+02 -0.49237420788E+01  0.86565547417E+02  0.00000000000E+00 0.  1.
         11    1    3    3    0    0 -0.29068503797E+01  0.18137224226E+02 -0.61971063847E+02  0.64636069157E+02  0.00000000000E+00 0. -1.
</event>
<event>
 7    1  0.4274778E-006  0.7363035E+02  0.7561462E-02  0.1348166E+00
          2   -1    0    0  501    0  0.00000000000E+00  0.00000000000E+00  0.29874864113E+03  0.29874864113E+03  0.00000000000E+00 0. -1.
         -2   -1    0    0    0  501 -0.00000000000E+00 -0.00000000000E+00 -0.35940086043E+02  0.35940086043E+02  0.00000000000E+00 0.  1.
         23    2    1    2    0    0 -0.10596616595E+02 -0.62595519111E+01  0.12609831367E+03  0.15703693865E+03  0.92781167910E+02 0.  0.
          5    1    1    2  502    0  0.31779590450E+02  0.53445714412E+01  0.14919565151E+03  0.15269355469E+03  0.41800000000E+01 0. -1.
         -5    1    1    2    0  502 -0.21182973855E+02  0.91498046988E+00 -0.12485410095E+02  0.24958233828E+02  0.41800000000E+01 0.  1.
        -11    1    3    3    0    0  0.30407477868E+02 -0.32472840047E+02  0.52650826758E+02  0.68929018631E+02  0.00000000000E+00 0. -1.
         11    1    3    3    0    0 -0.41004094463E+02  0.26213288136E+02  0.73447486908E+02  0.88107920023E+02  0.00000000000E+00 0.  1.
</event>
<event>
 7    1  0.4274778E-006  0.1831091E+03  0.7561462E-02  0.1164828E+00
         -2   -1    0    0    0  501 -0.00000000000E+00  0.00000000000E+00  0.46929954974E+02  0.46929954974E+02  0.00000000000E+00 0. -1.
          2   -1    0    0  501    0  0.00000000000E+00 -0.00000000000E+00 -0.10529974528E+04  0.10529974528E+04  0.00000000000E+00 0.  1.
         23    2    1    2    0    0 -0.67094974269E+02 -0.14966623932E+03 -0.73977335648E+03  0.76308293938E+03  0.90162268418E+02 0.  0.
          5    1    1    2  502    0  0.75663664481E+02  0.68016082466E+02 -0.22018678124E+03  0.24259197973E+03  0.41800000000E+01 0.  1.
         -5    1    1    2    0  502 -0.85686902122E+01  0.81650156849E+02 -0.46107360122E+02  0.94252488683E+02  0.41800000000E+01 0.  1.
        -11    1    3    3    0    0  0.39223653580E+01 -0.88131382733E+02 -0.44620340744E+03  0.45484063845E+03  0.00000000000E+00 0.  1.
         11    1    3    3    0    0 -0.71017339627E+02 -0.61534856583E+02 -0.29356994904E+03  0.30824230093E+03  0.00000000000E+00 0. -1.
</event>
<event>
 7    1  0.4274778E-006  0.8816777E+02  0.7561462E-02  0.1307350E+00
          2   -1    0    0  501    0  0.00000000000E+00  0.00000000000E+00  0.46543233144E+03  0.46543233144E+03  0.00000000000E+00 0.  1.
         -2   -1    0    0    0  501 -0.00000000000E+00 -0.00000000000E+00 -0.41615487563E+02  0.41615487563E+02  0.00000000000E+00 0. -1.
         23    2    1    2    0    0 -0.13687008814E+02  0.64794476377E+02  0.29122660955E+03  0.31310987346E+03  0.94017000436E+02 0.  0.
          5    1    1    2  502    0  0.21612220564E+02 -0.61238486971E+02  0.15577927288E+03  0.16882504146E+03  0.41800000000E+01 0. -1.
         -5    1    1    2    0  502 -0.79252117507E+01 -0.35559894062E+01 -0.23189038558E+02  0.25112904077E+02  0.41800000000E+01 0. -1.
        -11    1    3    3    0    0  0.27791322078E+02  0.50692897226E+02  0.88538393845E+02  0.10574107337E+03  0.00000000000E+00 0. -1.
         11    1    3    3    0    0 -0.41478330891E+02  0.14101579151E+02  0.20268821570E+03  0.20736880009E+03  0.00000000000E+00 0.  1.
</event>
<event>
 7    1  0.4274778E-006  0.1074577E+03  0.7561462E-02  0.1265352E+00
         -1   -1    0    0    0  501 -0.00000000000E+00  0.00000000000E+00  0.18291471201E+03  0.18291471201E+03  0.00000000000E+00 0.  1.
          1   -1    0    0  501    0  0.00000000000E+00 -0.00000000000E+00 -0.79310964666E+02  0.79310964666E+02  0.00000000000E+00 0. -1.
         23    2    1    2    0    0  0.43853594046E+02  0.79132525664E+00  0.78360571862E+00  0.10099843295E+03  0.90974202462E+02 0.  0.
          5    1    1    2  502    0  0.33138120241E+02 -0.25352626596E+02  0.24266756274E+02  0.48448308005E+02  0.41800000000E+01 0. -1.
         -5    1    1    2    0  502 -0.76991714287E+02  0.24561301340E+02  0.78553385347E+02  0.11277893572E+03  0.41800000000E+01 0.  1.
        -11    1    3    3    0    0  0.67935978510E+02  0.17512493597E+01  0.19253918051E+02  0.70633401523E+02  0.00000000000E+00 0. -1.
         11    1    3    3    0    0 -0.24082384464E+02 -0.95992410303E+00 -0.18470312333E+02  0.30365031425E+02  0.00000000000E+00 0.  1.
</event>
<event>
 7    1  0.4274778E-006  0.9981388E+02  0.7561462E-02  0.1280688E+00
         -1   -1    0    0    0  501 -0.00000000000E+00  0.00000000000E+00  0.25659009343E+03  0.25659009343E+03  0.00000000000E+00 0.  1.
          1   -1    0    0  501    0  0.00000000000E+00 -0.00000000000E+00 -0.75649509775E+02  0.75649509775E+02  0.00000000000E+00 0. -1.
         23    2    1    2    0    0 -0.52844510883E+02  0.68711240446E+02  0.82224924287E+02  0.15083198541E+03  0.92062873919E+02 0.  0.
          5    1    1    2  502    0  0.70817725765E+02 -0.56389773057E+02  0.11423523933E+02  0.91339619481E+02  0.41800000000E+01 0.  1.
         -5    1    1    2    0  502 -0.17973214882E+02 -0.12321467389E+02  0.87292135439E+02  0.90067998319E+02  0.41800000000E+01 0.  1.
        -11    1    3    3    0    0 -0.18053649329E+02  0.27318792687E+02  0.90398180039E+02  0.96146147309E+02  0.00000000000E+00 0.  1.
         11    1    3    3    0    0 -0.34790861554E+02  0.41392447759E+02 -0.81732557514E+01  0.54685838100E+02  0.00000000000E+00 0. -1.
</event>
<event>
 7    1  0.4274778E-006  0.7341551E+02  0.7561462E-02  0.1348849E+00
         -1   -1    0    0    0  501 -0.00000000000E+00  0.00000000000E+00  0.17585937841E+03  0.17585937841E+03  0.00000000000E+00 0.  1.
          1   -1    0    0  501    0  0.00000000000E+00 -0.00000000000E+00 -0.11522485708E+03  0.11522485708E+03  0.00000000000E+00 0. -1.
         23    2    1    2    0    0  0.37934385435E+01 -0.45445814141E+02 -0.55300157483E+02  0.11453773671E+03  0.89336854178E+02 0.  0.
          5    1    1    2  502    0 -0.11561170546E+02  0.16380748485E+02 -0.25032962145E+02  0.32343642020E+02  0.41800000000E+01 0.  1.
         -5    1    1    2    0  502  0.77677320025E+01  0.29065065655E+02  0.14096764096E+03  0.14420285677E+03  0.41800000000E+01 0.  1.
        -11    1    3    3    0    0  0.40992515760E+01  0.25098541934E+02 -0.88849810715E+00  0.25446612733E+02  0.00000000000E+00 0.  1.
         11    1    3    3    0    0 -0.30581303246E+00 -0.70544356075E+02 -0.54411659376E+02  0.89091123978E+02  0.00000000000E+00 0. -1.
</event>
<event>
 7    1  0.4274778E-006  0.7896796E+02  0.7561462E-02  0.1332006E+00
          2   -1    0    0  501    0  0.00000000000E+00  0.00000000000E+00  0.49802989736E+02  0.49802989736E+02  0.00000000000E+00 0. -1.
         -2   -1    0    0    0  501 -0.00000000000E+00 -0.00000000000E+00 -0.29972726664E+03  0.29972726664E+03  0.00000000000E+00 0.  1.
         23    2    1    2    0    0 -0.48532946811E+02  0.29774314362E+02 -0.11832087907E+03  0.15924167192E+03  0.90089527303E+02 0.  0.
          5    1    1    2  502    0  0.46431074430E+02 -0.32059977029E+02  0.19706333046E+01  0.56613095618E+02  0.41800000000E+01 0.  1.
         -5    1    1    2    0  502  0.21018723804E+01  0.22856626669E+01 -0.13357403114E+03  0.13367548884E+03  0.41800000000E+01 0.  1.
        -11    1    3    3    0    0 -0.64421885383E+02  0.23613616839E+01 -0.10825631407E+03  0.12599676536E+03  0.00000000000E+00 0. -1.
         11    1    3    3    0    0  0.15888938572E+02  0.27412952678E+02 -0.10064565001E+02  0.33244906560E+02  0.00000000000E+00 0.  1.
</event>
<event>
 7    1  0.4274778E-006  0.1063502E+03  0.7561462E-02  0.1267482E+00
         -3   -1    0    0    0  501 -0.00000000000E+00  0.00000000000E+00  0.18118546090E+03  0.18118546090E+03  0.00000000000E+00 0.  1.
          3   -1    0    0  501    0  0.00000000000E+00 -0.00000000000E+00 -0.11172989820E+03  0.11172989820E+03  0.00000000000E+00 0. -1.
         23    2    1    2    0    0  0.30013787192E+00  0.47769655708E+02 -0.47451032420E+02  0.11515941539E+03  0.93424088898E+02 0.  0.
          5    1    1    2  502    0 -0.61397342706E+02 -0.35759431562E+02  0.68415423987E+02  0.98724431000E+02  0.41800000000E+01 0. -1.
         -5    1    1    2    0  502  0.61097204834E+02 -0.12010224145E+02  0.48491171140E+02  0.79031512709E+02  0.41800000000E+01 0. -1.
        -11    1    3    3    0    0  0.24923745763E+02  0.48451250678E+02 -0.65073280910E+02  0.84871954635E+02  0.00000000000E+00 0. -1.
         11    1    3    3    0    0 -0.24623607891E+02 -0.68159497080E+00  0.17622248490E+02  0.30287460757E+02  0.00000000000E+00 0.  1.
</event>
<event>
 7    1  0.4274778E-006  0.1372419E+03  0.7561462E-02  0.1217089E+00
          1   -1    0    0  501    0  0.00000000000E+00  0.00000000000E+00  0.24116339682E+03  0.24116339682E+03  0.00000000000E+00 0. -1.
         -1   -1    0    0    0  501 -0.00000000000E+00 -0.00000000000E+00 -0.10814508181E+03  0.10814508181E+03  0.00000000000E+00 0.  1.
         23    2    1    2    0    0  0.94379879569E+02 -0.66598923406E+02  0.29786633907E+02  0.15018909740E+03  0.91249893985E+02 0.  0.
          5    1    1    2  502    0 -0.87022023005E+02 -0.31579572403E+01  0.94071604931E+02  0.12825655709E+03  0.41800000000E+01 0. -1.
         -5    1    1    2    0  502 -0.73578565643E+01  0.69756880647E+02  0.91600761726E+01  0.70862824148E+02  0.41800000000E+01 0. -1.
        -11    1    3    3    0    0  0.43200759718E+02 -0.19184425261E+02  0.58096638409E+02  0.74897044049E+02  0.00000000000E+00 0. -1.
         11    1    3    3    0    0  0.51179119851E+02 -0.47414498145E+02 -0.28310004502E+02  0.75292053352E+02  0.00000000000E+00 0.  1.
</event>
<event>
 7    1  0.4274778E-006  0.1215547E+03  0.7561462E-02  0.1240554E+00
         -1   -1    0    0    0  501 -0.00000000000E+00  0.00000000000E+00  0.13639066971E+03  0.13639066971E+03  0.00000000000E+00 0.  1.
          1   -1    0    0  501    0  0.00000000000E+00 -0.00000000000E+00 -0.13109320675E+03  0.13109320675E+03  0.00000000000E+00 0. -1.
         23    2    1    2    0    0  0.36074358553E+02  0.39150329685E+02 -0.31666311273E+02  0.10954821337E+03  0.90354568918E+02 0.  0.
          5    1    1    2  502    0  0.33977655631E+02 -0.67511163210E+02  0.52727491341E+01  0.75878274385E+02  0.41800000000E+01 0. -1.
         -5    1    1    2    0  502 -0.70052014184E+02  0.28360833525E+02  0.31691025093E+02  0.82057388704E+02  0.41800000000E+01 0.  1.
        -11    1    3    3    0    0  0.59436226199E+02  0.25585136682E+02 -0.45590172763E+02  0.79156351965E+02  0.00000000000E+00 0. -1.
         11    1    3    3    0    0 -0.23361867646E+02  0.13565193003E+02  0.13923861490E+02  0.30391861409E+02  0.00000000000E+00 0.  1.
</event>
<event>
 7    1  0.4274778E-006  0.1110317E+03  0.7561462E-02  0.1258671E+00
         -2   -1    0    0    0  501 -0.00000000000E+00  0.00000000000E+00  0.12211072178E+03  0.12211072178E+03  0.00000000000E+00 0.  1.
          2   -1    0    0  501    0  0.00000000000E+00 -0.00000000000E+00 -0.21048970376E+03  0.21048970376E+03  0.00000000000E+00 0. -1.
         23    2    1    2    0    0 -0.72927687361E+02  0.14437937544E+02 -0.13552964781E+03  0.17964263967E+03  0.91522078900E+02 0.  0.
          5    1    1    2  502    0  0.56947185095E+02 -0.67569296186E+02  0.39168503153E+02  0.96748311182E+02  0.41800000000E+01 0.  1.
         -5    1    1    2    0  502  0.15980502266E+02  0.53131358642E+02  0.79821626782E+01  0.56209474689E+02  0.41800000000E+01 0.  1.
        -11    1    3    3    0    0 -0.48009713440E+02  0.20674325493E+02 -0.14351939640E+03  0.15274219280E+03  0.00000000000E+00 0. -1.
         11    1    3    3    0    0 -0.24917973921E+02 -0.62363879491E+01  0.79897485882E+01  0.26900446864E+02  0.00000000000E+00 0.  1.
</event>
<event>
 7    1  0.4274778E-006  0.1720533E+03  0.7561462E-02  0.1175723E+00
         -1   -1    0    0    0  501 -0.00000000000E+00  0.00000000000E+00  0.37718047460E+02  0.37718047460E+02  0.00000000000E+00 0.  1.
          1   -1    0    0  501    0  0.00000000000E+00 -0.00000000000E+00 -0.90271504326E+03  0.90271504326E+03  0.00000000000E+00 0. -1.
         23    2    1    2    0    0  0.18997729102E+02  0.13237776641E+03 -0.57544262355E+03  0.59783346774E+03  0.91574316223E+02 0.  0.
          5    1    1    2  502    0  0.24251280806E+02  0.15424790761E+02 -0.47760192203E+02  0.55897738326E+02  0.41800000000E+01 0. -1.
         -5    1    1    2    0  502 -0.43249009908E+02 -0.14780255717E+03 -0.24179418004E+03  0.28670188465E+03  0.41800000000E+01 0. -1.
        -11    1    3    3    0    0  0.38411654948E+02  0.13594480915E+03 -0.47926865915E+03  0.49965477484E+03  0.00000000000E+00 0.  1.
         11    1    3    3    0    0 -0.19413925846E+02 -0.35670427430E+01 -0.96173964401E+02  0.98178692899E+02  0.00000000000E+00 0. -1.
</event>
<event>
 7    1  0.4274778E-006  0.1124755E+03  0.7561462E-02  0.1256053E+00
         -1   -1    0    0    0  501 -0.00000000000E+00  0.00000000000E+00  0.73907746886E+02  0.73907746886E+02  0.00000000000E+00 0.  1.
          1   -1    0    0  501    0  0.00000000000E+00 -0.00000000000E+00 -0.25319637064E+03  0.25319637064E+03  0.00000000000E+00 0. -1.
         23    2    1    2    0    0  0.54424362334E+02 -0.19618945077E+02 -0.15449860218E+03  0.18707140786E+03  0.88198522329E+02 0.  0.
          5    1    1    2  502    0 -0.34759781482E+02  0.64359359147E+02  0.17435091828E+02  0.75311515358E+02  0.41800000000E+01 0. -1.
         -5    1    1    2    0  502 -0.19664580852E+02 -0.44740414069E+02 -0.42225113403E+02  0.64721194311E+02  0.41800000000E+01 0. -1.
        -11    1    3    3    0    0  0.72665848030E+02 -0.33202797477E+02 -0.99842812049E+02  0.12787235177E+03  0.00000000000E+00 0.  1.
         11    1    3    3    0    0 -0.18241485696E+02  0.13583852400E+02 -0.54655790134E+02  0.59199056087E+02  0.00000000000E+00 0. -1.
</event>
<event>
 7    1  0.4274778E-006  0.1018191E+03  0.7561462E-02  0.1276516E+00
         -1   -1    0    0    0  501 -0.00000000000E+00  0.00000000000E+00  0.99721023683E+03  0.99721023683E+03  0.00000000000E+00 0.  1.
          1   -1    0    0  501    0  0.00000000000E+00 -0.00000000000E+00 -0.15129867166E+02  0.15129867166E+02  0.00000000000E+00 0. -1.
         23    2    1    2    0    0 -0.38465659739E+01 -0.31786469486E+02  0.26588102868E+03  0.28459689785E+03  0.96319765054E+02 0.  0.
          5    1    1    2  502    0  0.56291347483E+02 -0.10331619627E+02  0.42443126598E+03  0.42829292559E+03  0.41800000000E+01 0. -1.
         -5    1    1    2    0  502 -0.52444781509E+02  0.42118089112E+02  0.29176807500E+03  0.29945028056E+03  0.41800000000E+01 0. -1.
        -11    1    3    3    0    0  0.18883852534E+01 -0.54957889249E+02  0.24988065393E+03  0.25585987727E+03  0.00000000000E+00 0.  1.
         11    1    3    3    0    0 -0.57349512273E+01  0.23171419763E+02  0.16000374754E+02  0.28737020578E+02  0.00000000000E+00 0. -1.
</event>
<event>
 7    1  0.4274778E-006  0.8396307E+02  0.7561462E-02  0.1318167E+00
         -1   -1    0    0    0  501 -0.00000000000E+00  0.00000000000E+00  0.40631701300E+02  0.40631701300E+02  0.00000000000E+00 0.  1.
          1   -1    0    0  501    0  0.00000000000E+00 -0.00000000000E+00 -0.33777756659E+03  0.33777756659E+03  0.00000000000E+00 0. -1.
         23    2    1    2    0    0 -0.44583603406E+01  0.71860160402E+01 -0.19905151296E+03  0.21921930359E+03  0.91455357698E+02 0.  0.
          5    1    1    2  502    0 -0.17024894199E+02 -0.37706433953E+02 -0.11174379989E+03  0.11922990983E+03  0.41800000000E+01 0. -1.
         -5    1    1    2    0  502  0.21483254539E+02  0.30520417913E+02  0.13649447554E+02  0.39960054476E+02  0.41800000000E+01 0. -1.
        -11    1    3    3    0    0 -0.13642107259E+02 -0.39197276469E+02 -0.65476204382E+02  0.77522041468E+02  0.00000000000E+00 0.  1.
         11    1    3    3    0    0  0.91837469181E+01  0.46383292509E+02 -0.13357530858E+03  0.14169726213E+03  0.00000000000E+00 0. -1.
</event>
<event>
 7    1  0.4274778E-006  0.1136041E+03  0.7561462E-02  0.1254038E+00
          1   -1    0    0  501    0  0.00000000000E+00  0.00000000000E+00  0.26062499481E+02  0.26062499481E+02  0.00000000000E+00 0. -1.
         -1   -1    0    0    0  501 -0.00000000000E+00 -0.00000000000E+00 -0.83647745335E+03  0.83647745335E+03  0.00000000000E+00 0.  1.
         23    2    1    2    0    0  0.46030134453E+02  0.22751104805E+02 -0.12995592870E+03  0.16768156804E+03  0.92694006332E+02 0.  0.
          5    1    1    2  502    0  0.32802057500E+02  0.17095670248E+02 -0.83985743972E+02  0.91865741754E+02  0.41800000000E+01 0. -1.
         -5    1    1    2    0  502 -0.78832191953E+02 -0.39846775053E+02 -0.59647328120E+03  0.60299264303E+03  0.41800000000E+01 0.  1.
        -11    1    3    3    0    0 -0.16680136960E+02  0.33973290481E+02 -0.26566108357E+02  0.46240345461E+02  0.00000000000E+00 0. -1.
         11    1    3    3    0    0  0.62710271412E+02 -0.11222185676E+02 -0.10338982034E+03  0.12144122258E+03  0.00000000000E+00 0.  1.
</event>
<event>
 7    1  0.4274778E-006  0.1430575E+03  0.7561462E-02  0.1209273E+00
         -2   -1    0    0    0  501 -0.00000000000E+00  0.00000000000E+00  0.52265147596E+02  0.52265147596E+02  0.00000000000E+00 0.  1.
          2   -1    0    0  501    0  0.00000000000E+00 -0.00000000000E+00 -0.40754746517E+03  0.40754746517E+03  0.00000000000E+00 0. -1.
         23    2    1    2    0    0  0.81561771032E+02 -0.53311788991E+02 -0.14963240135E+03  0.20013328676E+03  0.90382562466E+02 0.  0.
          5    1    1    2  502    0 -0.40308988205E+02 -0.38682391416E+02 -0.56205548719E+02  0.79357911027E+02  0.41800000000E+01 0. -1.
         -5    1    1    2    0  502 -0.41252782827E+02  0.91994180408E+02 -0.14944436751E+03  0.18032141498E+03  0.41800000000E+01 0. -1.
        -11    1    3    3    0    0  0.15083720102E+02 -0.60469647147E+02 -0.95825567808E+02  0.11430938843E+03  0.00000000000E+00 0. -1.
         11    1    3    3    0    0  0.66478050931E+02  0.71578581561E+01 -0.53806833543E+02  0.85823898332E+02  0.00000000000E+00 0.  1.
</event>
<event>
 7    1  0.4274778E-006  0.3230127E+03  0.7561462E-02  0.1074271E+00
         -1   -1    0    0    0  501 -0.00000000000E+00  0.00000000000E+00  0.86404590418E+03  0.86404590418E+03  0.00000000000E+00 0.  1.
          1   -1    0    0  501    0  0.00000000000E+00 -0.00000000000E+00 -0.15217744934E+03  0.15217744934E+03  0.00000000000E+00 0. -1.
         23    2    1    2    0    0 -0.17897918997E+02 -0.27784211572E+02 -0.18551050986E+02  0.99765307773E+02  0.92285845205E+02 0.  0.
          5    1    1    2  502    0  0.16825322997E+03 -0.21081882174E+03  0.32123446280E+03  0.41947917408E+03  0.41800000000E+01 0. -1.
         -5    1    1    2    0  502 -0.15035531098E+03  0.23860303331E+03  0.40918504303E+03  0.49697887167E+03  0.41800000000E+01 0.  1.
        -11    1    3    3    0    0  0.30739649995E+02 -0.33228730595E+02 -0.22716610066E+02  0.50647003778E+02  0.00000000000E+00 0. -1.
         11    1    3    3    0    0 -0.48637568992E+02  0.54445190238E+01  0.41655590794E+01  0.49118303995E+02  0.00000000000E+00 0.  1.
</event>
<event>
 7    1  0.4274778E-006  0.1107571E+03  0.7561462E-02  0.1259174E+00
          1   -1    0    0  501    0  0.00000000000E+00  0.00000000000E+00  0.14311183726E+03  0.14311183726E+03  0.00000000000E+00 0. -1.
         -1   -1    0    0    0  501 -0.00000000000E+00 -0.00000000000E+00 -0.11657210880E+03  0.11657210880E+03  0.00000000000E+00 0.  1.
         23    2    1    2    0    0  0.31368375069E+02 -0.57702869088E+01  0.69567806271E+02  0.12361056376E+03  0.97070184087E+02 0.  0.
          5    1    1    2  502    0 -0.74812460625E+02  0.22821987175E+02 -0.10491066894E+02  0.79027098187E+02  0.41800000000E+01 0. -1.
         -5    1    1    2    0  502  0.43444085556E+02 -0.17051700266E+02 -0.32537010920E+02  0.57046284115E+02  0.41800000000E+01 0. -1.
        -11    1    3    3    0    0 -0.25665068811E+02 -0.25305732212E+02  0.47021574509E+02  0.59246133284E+02  0.00000000000E+00 0. -1.
         11    1    3    3    0    0  0.57033443880E+02  0.19535445303E+02  0.22546231763E+02  0.64364430478E+02  0.00000000000E+00 0.  1.
</event>
<event>
 7    1  0.4274778E-006  0.1526176E+03  0.7561462E-02  0.1197293E+00
         -3   -1    0    0    0  501 -0.00000000000E+00  0.00000000000E+00  0.26114679927E+03  0.26114679927E+03  0.00000000000E+00 0.  1.
          3   -1    0    0  501    0  0.00000000000E+00 -0.00000000000E+00 -0.10439423522E+03  0.10439423522E+03  0.00000000000E+00 0. -1.
         23    2    1    2    0    0  0.12018739122E+03 -0.28004512010E+02  0.69449500485E+02  0.16932675565E+03  0.92838867718E+02 0.  0.
          5    1    1    2  502    0  0.12913630801E+02  0.21341409570E+02  0.52714018149E+02  0.58467578472E+02  0.41800000000E+01 0.  1.
         -5    1    1    2    0  502 -0.13310102203E+03  0.66631024399E+01  0.34589045422E+02  0.13774670037E+03  0.41800000000E+01 0.  1.
        -11    1    3    3    0    0  0.29916918133E+02  0.27503873215E+02  0.44878809799E+02  0.60544137630E+02  0.00000000000E+00 0.  1.
         11    1    3    3    0    0  0.90270473092E+02 -0.55508385225E+02  0.24570690686E+02  0.10878261802E+03  0.00000000000E+00 0. -1.
</event>
<event>
 7    1  0.4274778E-006  0.1207863E+03  0.7561462E-02  0.1241806E+00
         -1   -1    0    0    0  501 -0.00000000000E+00  0.00000000000E+00  0.75824026223E+02  0.75824026223E+02  0.00000000000E+00 0.  1.
          1   -1    0    0  501    0  0.00000000000E+00 -0.00000000000E+00 -0.34746730352E+03  0.34746730352E+03  0.00000000000E+00 0. -1.
         23    2    1    2    0    0 -0.95888043453E+02 -0.36457604690E+02 -0.47223055181E+02  0.14664460093E+03  0.93546503012E+02 0.  0.
          5    1    1    2  502    0  0.25535425794E+02 -0.47061705464E+01  0.10220790262E+02  0.28216005481E+02  0.41800000000E+01 0. -1.
         -5    1    1    2    0  502  0.70352617659E+02  0.41163775236E+02 -0.23464101238E+03  0.24843072333E+03  0.41800000000E+01 0. -1.
        -11    1    3    3    0    0 -0.11163452428E+03 -0.25611111046E+02 -0.24823263409E+02  0.11719381565E+03  0.00000000000E+00 0.  1.
         11    1    3    3    0    0  0.15746480824E+02 -0.10846493644E+02 -0.22399791772E+02  0.29450785289E+02  0.00000000000E+00 0. -1.
</event>
<event>
 6    1  0.4274778E-006  0.1290708E+03  0.7561462E-02  0.1228841E+00
          4   -1    0    0  501    0  0.00000000000E+00  0.00000000000E+00  0.54710827577E+02  0.54710827577E+02  0.00000000000E+00 0. -1.
         -4   -1    0    0    0  501 -0.00000000000E+00 -0.00000000000E+00 -0.87094940825E+03  0.87094940825E+03  0.00000000000E+00 0.  1.
          5    1    1    2  502    0 -0.47603714041E+02  0.76534044245E+02 -0.13752960149E+03  0.16448537080E+03  0.41800000000E+01 0. -1.
         -5    1    1    2    0  502 -0.49612496582E+02 -0.13943248885E+02 -0.63054436473E+03  0.63266063754E+03  0.41800000000E+01 0.  1.
        -11    1    1    2    0    0  0.12109406485E+02 -0.12745705623E+02  0.22891408775E+01  0.17729379663E+02  0.00000000000E+00 0.  1.
         11    1    1    2    0    0  0.85106804138E+02 -0.49845089736E+02 -0.50453755333E+02  0.11078484783E+03  0.00000000000E+00 0. -1.
</event>
<event>
 7    1  0.4274778E-006  0.1286453E+03  0.7561462E-02  0.1229480E+00
          1   -1    0    0  501    0  0.00000000000E+00  0.00000000000E+00  0.38337188792E+02  0.38337188792E+02  0.00000000000E+00 0. -1.
         -1   -1    0    0    0  501 -0.00000000000E+00 -0.00000000000E+00 -0.56391974059E+03  0.56391974059E+03  0.00000000000E+00 0.  1.
         23    2    1    2    0    0 -0.56841295252E+02 -0.71661198557E+02 -0.16538714925E+03  0.21015009156E+03  0.91890650353E+02 0.  0.
          5    1    1    2  502    0  0.30426809727E+02  0.95699409703E+02 -0.33058445091E+03  0.34552528034E+03  0.41800000000E+01 0. -1.
         -5    1    1    2    0  502  0.26414485525E+02 -0.24038211145E+02 -0.29610951637E+02  0.46581557483E+02  0.41800000000E+01 0. -1.
        -11    1    3    3    0    0 -0.71288088271E+02 -0.31116430560E+02 -0.66624948486E+02  0.10241634411E+03  0.00000000000E+00 0.  1.
         11    1    3    3    0    0  0.14446793019E+02 -0.40544767998E+02 -0.98762200764E+02  0.10773374745E+03  0.00000000000E+00 0. -1.
</event>
<event>
 7    1  0.4274778E-006  0.1095044E+03  0.7561462E-02  0.1261490E+00
          1   -1    0    0  501    0  0.00000000000E+00  0.00000000000E+00  0.67353081616E+02  0.67353081616E+02  0.00000000000E+00 0. -1.
         -1   -1    0    0    0  501 -0.00000000000E+00 -0.00000000000E+00 -0.21133000049E+03  0.21133000049E+03  0.00000000000E+00 0.  1.
         23    2    1    2    0    0  0.91740180934E+01  0.46446249414E+02 -0.37076856470E+02  0.10745950433E+03  0.89058604816E+02 0.  0.
          5    1    1    2  502    0  0.11860466432E+02 -0.85505810377E+02 -0.86289598070E+02  0.12212813520E+03  0.41800000000E+01 0. -1.
         -5    1    1    2    0  502 -0.21034484525E+02  0.39059560964E+02 -0.20610464331E+02  0.49095442577E+02  0.41800000000E+01 0. -1.
        -11    1    3    3    0    0 -0.57308597810E+01 -0.19546057882E+02  0.12216792908E+02  0.23751655974E+02  0.00000000000E+00 0.  1.
         11    1    3    3    0    0  0.14904877874E+02  0.65992307296E+02 -0.49293649378E+02  0.83707848352E+02  0.00000000000E+00 0. -1.
</event>
<event>
 7    1  0.4274778E-006  0.9780738E+02  0.7561462E-02  0.1284975E+00
         -3   -1    0    0    0  501 -0.00000000000E+00  0.00000000000E+00  0.27118756848E+02  0.27118756848E+02  0.00000000000E+00 0.  1.
          3   -1    0    0  501    0  0.00000000000E+00 -0.00000000000E+00 -0.55731850429E+03  0.55731850429E+03  0.00000000000E+00 0. -1.
         23    2    1    2    0    0 -0.41838535569E+01  0.54496852819E+02 -0.28173872866E+03  0.30094447785E+03  0.90572931529E+02 0.  0.
          5    1    1    2  502    0  0.39468582674E+02 -0.14060755285E+02 -0.21720220023E+03  0.22124588594E+03  0.41800000000E+01 0. -1.
         -5    1    1    2    0  502 -0.35284729117E+02 -0.40436097534E+02 -0.31258818552E+02  0.62246897352E+02  0.41800000000E+01 0. -1.
        -11    1    3    3    0    0  0.35833618229E+02  0.46775753034E+02 -0.21330542836E+03  0.22129443065E+03  0.00000000000E+00 0. -1.
         11    1    3    3    0    0 -0.40017471786E+02  0.77210997852E+01 -0.68433300293E+02  0.79650047200E+02  0.00000000000E+00 0.  1.
</event>
<event>
 7    1  0.4274778E-006  0.1227224E+03  0.7561462E-02  0.1238672E+00
         -2   -1    0    0    0  501 -0.00000000000E+00  0.00000000000E+00  0.10189247243E+03  0.10189247243E+03  0.00000000000E+00 0. -1.
          2   -1    0    0  501    0  0.00000000000E+00 -0.00000000000E+00 -0.15362352444E+03  0.15362352444E+03  0.00000000000E+00 0.  1.
         23    2    1    2    0    0  0.41724867325E+02  0.44282492076E+02 -0.18948586768E+02  0.11262176950E+03  0.92858550316E+02 0.  0.
          5    1    1    2  502    0  0.22053805340E+02 -0.64743421010E+02 -0.32363515318E+02  0.75782256616E+02  0.41800000000E+01 0.  1.
         -5    1    1    2    0  502 -0.63778672665E+02  0.20460928934E+02 -0.41894992413E+00  0.67111970756E+02  0.41800000000E+01 0.  1.
        -11    1    3    3    0    0  0.35051310970E+02 -0.23177179996E+02  0.75300849853E+00  0.42027884732E+02  0.00000000000E+00 0.  1.
         11    1    3    3    0    0  0.66735563556E+01  0.67459672072E+02 -0.19701595267E+02  0.70593884767E+02  0.00000000000E+00 0. -1.
</event>
<event>
 7    1  0.4274778E-006  0.1412411E+03  0.7561462E-02  0.1211669E+00
          1   -1    0    0  501    0  0.00000000000E+00  0.00000000000E+00  0.40487057338E+03  0.40487057338E+03  0.00000000000E+00 0. -1.
         -1   -1    0    0    0  501 -0.00000000000E+00 -0.00000000000E+00 -0.59185182332E+02  0.59185182332E+02  0.00000000000E+00 0.  1.
         23    2    1    2    0    0 -0.30515920544E+02  0.10531593197E+03  0.15656986741E+03  0.21219315388E+03  0.92136552147E+02 0.  0.
          5    1    1    2  502    0  0.34576846669E+02 -0.13248490155E+03  0.14302583990E+03  0.19804461806E+03  0.41800000000E+01 0.  1.
         -5    1    1    2    0  502 -0.40609261250E+01  0.27168969584E+02  0.46089683744E+02  0.53817983769E+02  0.41800000000E+01 0.  1.
        -11    1    3    3    0    0 -0.41468792237E+02  0.86768099602E+02  0.60225419216E+02  0.11347010601E+03  0.00000000000E+00 0.  1.
         11    1    3    3    0    0  0.10952871693E+02  0.18547832367E+02  0.96344448194E+02  0.98723047875E+02  0.00000000000E+00 0. -1.
</event>
<event>
 7    1  0.4274778E-006  0.6773412E+02  0.7561462E-02  0.1367972E+00
          2   -1    0    0  501    0  0.00000000000E+00  0.00000000000E+00  0.73532236479E+02  0.73532236479E+02  0.00000000000E+00 0. -1.
         -2   -1    0    0    0  501 -0.00000000000E+00 -0.00000000000E+00 -0.18102810903E+03  0.18102810903E+03  0.00000000000E+00 0.  1.
         23    2    1    2    0    0  0.37903228216E+02  0.12286003390E+02 -0.37635262119E+02  0.10584860717E+03  0.90553377062E+02 0.  0.
          5    1    1    2  502    0 -0.31748789752E+01 -0.43743690572E+02  0.19145785664E+02  0.48037733399E+02  0.41800000000E+01 0.  1.
         -5    1    1    2    0  502 -0.34728349241E+02  0.31457687183E+02 -0.89006396097E+02  0.10067400494E+03  0.41800000000E+01 0.  1.
        -11    1    3    3    0    0  0.11675889555E+02  0.13823475425E+02  0.29021951433E+02  0.34200709564E+02  0.00000000000E+00 0. -1.
         11    1    3    3    0    0  0.26227338661E+02 -0.15374720351E+01 -0.66657213551E+02  0.71647897610E+02  0.00000000000E+00 0.  1.
</event>
<event>
 7    1  0.4274778E-006  0.1465274E+03  0.7561462E-02  0.1204806E+00
         -3   -1    0    0    0  501 -0.00000000000E+00  0.00000000000E+00  0.16729344704E+02  0.16729344704E+02  0.00000000000E+00 0.  1.
          3   -1    0    0  501    0  0.00000000000E+00 -0.00000000000E+00 -0.13035922455E+04  0.13035922455E+04  0.00000000000E+00 0. -1.
         23    2    1    2    0    0  0.96440891148E+02  0.27362430656E+02 -0.63164892369E+03  0.64578312359E+03  0.89475872806E+02 0.  0.
          5    1    1    2  502    0  0.29117654606E+02  0.60494718970E+01 -0.10822296772E+03  0.11231258639E+03  0.41800000000E+01 0.  1.
         -5    1    1    2    0  502 -0.12555854575E+03 -0.33411902553E+02 -0.54699100936E+03  0.56222588019E+03  0.41800000000E+01 0.  1.
        -11    1    3    3    0    0  0.25128458618E+02  0.51858133886E+02 -0.31959441006E+03  0.32474804453E+03  0.00000000000E+00 0. -1.
         11    1    3    3    0    0  0.71312432531E+02 -0.24495703230E+02 -0.31205451363E+03  0.32103507906E+03  0.00000000000E+00 0.  1.
</event>
<event>
 7    1  0.4274778E-006  0.2153276E+03  0.7561462E-02  0.1137415E+00
         -1   -1    0    0    0  501 -0.00000000000E+00  0.00000000000E+00  0.72503604590E+02  0.72503604590E+02  0.00000000000E+00 0.  1.
          1   -1    0    0  501    0  0.00000000000E+00 -0.00000000000E+00 -0.78943667321E+03  0.78943667321E+03  0.00000000000E+00 0. -1.
         23    2    1    2    0    0 -0.79676361872E+02 -0.18663064696E+03 -0.46286288536E+03  0.51353962346E+03  0.91112969389E+02 0.  0.
          5    1    1    2  502    0  0.87786048549E+02  0.17217375388E+03 -0.26507196913E+03  0.32807135361E+03  0.41800000000E+01 0.  1.
         -5    1    1    2    0  502 -0.81096866770E+01  0.14456893083E+02  0.11001785870E+02  0.20329300724E+02  0.41800000000E+01 0.  1.
        -11    1    3    3    0    0 -0.63562505710E+02 -0.45412665150E+02 -0.19990705304E+03  0.21462835820E+03  0.00000000000E+00 0. -1.
         11    1    3    3    0    0 -0.16113856162E+02 -0.14121798181E+03 -0.26295583233E+03  0.29891126527E+03  0.00000000000E+00 0.  1.
</event>
<event>
 7    1  0.4274778E-006  0.7359775E+02  0.7561462E-02  0.1348269E+00
         -1   -1    0    0    0  501 -0.00000000000E+00  0.00000000000E+00  0.13530772574E+03  0.13530772574E+03  0.00000000000E+00 0.  1.
          1   -1    0    0  501    0  0.00000000000E+00 -0.00000000000E+00 -0.91372333571E+02  0.91372333571E+02  0.00000000000E+00 0. -1.
         23    2    1    2    0    0 -0.14501868685E+02  0.12340851761E+02 -0.63953327479E+00  0.92528090316E+02  0.90545224486E+02 0.  0.
          5    1    1    2  502    0  0.52732455416E+01 -0.53884692690E+02  0.66696588486E+02  0.86007409800E+02  0.41800000000E+01 0.  1.
         -5    1    1    2    0  502  0.92286231433E+01  0.41543840929E+02 -0.22121663042E+02  0.48144559195E+02  0.41800000000E+01 0.  1.
        -11    1    3    3    0    0  0.14273304019E+02  0.15632141883E+02  0.38441738254E+02  0.43884602168E+02  0.00000000000E+00 0.  1.
         11    1    3    3    0    0 -0.28775172704E+02 -0.32912901220E+01 -0.39081271529E+02  0.48643488148E+02  0.00000000000E+00 0. -1.
</event>
<event>
 7    1  0.4274778E-006  0.2206394E+03  0.7561462E-02  0.1133407E+00
          2   -1    0    0  501    0  0.00000000000E+00  0.00000000000E+00  0.12417672008E+04  0.12417672008E+04  0.00000000000E+00 0. -1.
         -2   -1    0    0    0  501 -0.00000000000E+00 -0.00000000000E+00 -0.44489857889E+02  0.44489857889E+02  0.00000000000E+00 0.  1.
         23    2    1    2    0    0 -0.19567998292E+03  0.13186209248E+02  0.40813369436E+03  0.46354209573E+03  0.99164662135E+02 0.  0.
          5    1    1    2  502    0  0.16290133376E+03  0.34338196336E+02  0.47662323567E+03  0.50487932959E+03  0.41800000000E+01 0.  1.
         -5    1    1    2    0  502  0.32778649160E+02 -0.47524405583E+02  0.31252041286E+03  0.31783563334E+03  0.41800000000E+01 0.  1.
        -11    1    3    3    0    0 -0.15613131169E+03 -0.29256806071E+02  0.26307782069E+03  0.30731561453E+03  0.00000000000E+00 0.  1.
         11    1    3    3    0    0 -0.39548671231E+02  0.42443015318E+02  0.14505587366E+03  0.15622648120E+03  0.00000000000E+00 0. -1.
</event>
<event>
 7    1  0.4274778E-006  0.1052401E+03  0.7561462E-02  0.1269647E+00
          1   -1    0    0  501    0  0.00000000000E+00  0.00000000000E+00  0.20554228957E+03  0.20554228957E+03  0.00000000000E+00 0. -1.
         -1   -1    0    0    0  501 -0.00000000000E+00 -0.00000000000E+00 -0.71124725121E+02  0.71124725121E+02  0.00000000000E+00 0.  1.
         23    2    1    2    0    0  0.46731524365E+02 -0.10748670358E+02  0.87331898771E+02  0.13466658476E+03  0.90602755065E+02 0.  0.
          5    1    1    2  502    0 -0.19760876692E+02  0.67779228738E+02  0.25994218342E+02  0.75350433862E+02  0.41800000000E+01 0. -1.
         -5    1    1    2    0  502 -0.26970647673E+02 -0.57030558380E+02  0.21091447338E+02  0.66649996068E+02  0.41800000000E+01 0. -1.
        -11    1    3    3    0    0  0.61234635477E+02 -0.77815014634E+01  0.98416874654E+02  0.11617277462E+03  0.00000000000E+00 0. -1.
         11    1    3    3    0    0 -0.14503111113E+02 -0.29671688942E+01 -0.11084975883E+02  0.18493810141E+02  0.00000000000E+00 0.  1.
</event>
<event>
 7    1  0.4274778E-006  0.1716227E+03  0.7561462E-02  0.1176166E+00
         -2   -1    0    0    0  501 -0.00000000000E+00  0.00000000000E+00  0.30212232239E+03  0.30212232239E+03  0.00000000000E+00 0. -1.
          2   -1    0    0  501    0  0.00000000000E+00 -0.00000000000E+00 -0.15327122376E+03  0.15327122376E+03  0.00000000000E+00 0.  1.
         23    2    1    2    0    0 -0.12136317412E+02  0.16791548724E+03 -0.20236175186E+02  0.18598512623E+03  0.76407220440E+02 0.  0.
          5    1    1    2  502    0  0.28354317364E+02 -0.11566187568E+03  0.34482591361E+02  0.12404901574E+03  0.41800000000E+01 0. -1.
         -5    1    1    2    0  502 -0.16217999953E+02 -0.52253611561E+02  0.13460468246E+03  0.14535940418E+03  0.41800000000E+01 0. -1.
        -11    1    3    3    0    0 -0.53764556729E+01  0.11976480743E+02 -0.26713881590E+02  0.29765312634E+02  0.00000000000E+00 0.  1.
         11    1    3    3    0    0 -0.67598617389E+01  0.15593900650E+03  0.64777064049E+01  0.15621981359E+03  0.00000000000E+00 0. -1.
</event>
<event>
 7    1  0.4274778E-006  0.1123962E+03  0.7561462E-02  0.1256196E+00
          2   -1    0    0  501    0  0.00000000000E+00  0.00000000000E+00  0.66056113702E+03  0.66056113702E+03  0.00000000000E+00 0. -1.
         -2   -1    0    0    0  501 -0.00000000000E+00 -0.00000000000E+00 -0.20319492445E+02  0.20319492445E+02  0.00000000000E+00 0.  1.
         23    2    1    2    0    0  0.16691347500E+02 -0.29408497510E+02  0.34380226693E+03  0.35733510892E+03  0.91350536484E+02 0.  0.
          5    1    1    2  502    0  0.54415606275E+02  0.17681910221E+02  0.13687051329E+03  0.14840727059E+03  0.41800000000E+01 0. -1.
         -5    1    1    2    0  502 -0.71106953775E+02  0.11726587289E+02  0.15956886435E+03  0.17513824995E+03  0.41800000000E+01 0. -1.
        -11    1    3    3    0    0  0.53566782361E+02 -0.19995829643E+02  0.24169001068E+03  0.24836121806E+03  0.00000000000E+00 0.  1.
         11    1    3    3    0    0 -0.36875434862E+02 -0.94126678678E+01  0.10211225625E+03  0.10897389086E+03  0.00000000000E+00 0. -1.
</event>
<event>
 7    1  0.4274778E-006  0.1357257E+03  0.7561462E-02  0.1219199E+00
         -2   -1    0    0    0  501 -0.00000000000E+00  0.00000000000E+00  0.63082003971E+02  0.63082003971E+02  0.00000000000E+00 0.  1.
          2   -1    0    0  501    0  0.00000000000E+00 -0.00000000000E+00 -0.37101857713E+03  0.37101857713E+03  0.00000000000E+00 0. -1.
         23    2    1    2    0    0 -0.19778435785E+02  0.99151718833E+02 -0.16960164567E+03  0.22195358694E+03  0.10137271166E+03 0.  0.
          5    1    1    2  502    0 -0.11336381414E+02 -0.99912584961E+02 -0.38943567941E+02  0.10791252041E+03  0.41800000000E+01 0. -1.
         -5    1    1    2    0  502  0.31114817199E+02  0.76086612739E+00 -0.99391359548E+02  0.10423447376E+03  0.41800000000E+01 0. -1.
        -11    1    3    3    0    0  0.37137716980E+02  0.59142883607E+02 -0.59666970631E+02  0.91854439675E+02  0.00000000000E+00 0.  1.
         11    1    3    3    0    0 -0.56916152765E+02  0.40008835226E+02 -0.10993467504E+03  0.13009914726E+03  0.00000000000E+00 0. -1.
</event>
<event>
 7    1  0.4274778E-006  0.8205702E+02  0.7561462E-02  0.1323313E+00
         -2   -1    0    0    0  501 -0.00000000000E+00  0.00000000000E+00  0.93442462984E+03  0.93442462984E+03  0.00000000000E+00 0.  1.
          2   -1    0    0  501    0  0.00000000000E+00 -0.00000000000E+00 -0.25198264126E+02  0.25198264126E+02  0.00000000000E+00 0. -1.
         23    2    1    2    0    0 -0.10943498421E+01 -0.19996871540E+02  0.89855198627E+02  0.13051621468E+03  0.92517312433E+02 0.  0.
          5    1    1    2  502    0  0.67256710749E+01 -0.43370711401E+02  0.57043394037E+03  0.57213512913E+03  0.41800000000E+01 0. -1.
         -5    1    1    2    0  502 -0.56313212328E+01  0.63367582941E+02  0.24893722671E+03  0.25697155015E+03  0.41800000000E+01 0. -1.
        -11    1    3    3    0    0  0.12992789914E+02  0.14224008146E+02  0.91467371546E+02  0.93474141104E+02  0.00000000000E+00 0.  1.
         11    1    3    3    0    0 -0.14087139756E+02 -0.34220879686E+02 -0.16121729189E+01  0.37042073572E+02  0.00000000000E+00 0. -1.
</event>
<event>
 7    1  0.4274778E-006  0.1053418E+03  0.7561462E-02  0.1269448E+00
          2   -1    0    0  501    0  0.00000000000E+00  0.00000000000E+00  0.59301653231E+02  0.59301653231E+02  0.00000000000E+00 0. -1.
         -2   -1    0    0    0  501 -0.00000000000E+00 -0.00000000000E+00 -0.23317718676E+03  0.23317718676E+03  0.00000000000E+00 0.  1.
         23    2    1    2    0    0  0.14146225855E+02  0.26132227942E+02 -0.47975626244E+02  0.11253010254E+03  0.97356839617E+02 0.  0.
          5    1    1    2  502    0  0.40163974625E+02 -0.53932568198E+02 -0.63685520709E+02  0.92710219060E+02  0.41800000000E+01 0. -1.
         -5    1    1    2    0  502 -0.54310200480E+02  0.27800340256E+02 -0.62214386575E+02  0.87238518393E+02  0.41800000000E+01 0. -1.
        -11    1    3    3    0    0  0.24022083822E+02 -0.22268634518E+02 -0.53596177395E+02  0.62813237664E+02  0.00000000000E+00 0.  1.
         11    1    3    3    0    0 -0.98758579677E+01  0.48400862460E+02  0.56205511513E+01  0.49716864873E+02  0.00000000000E+00 0. -1.
</event>
<event>
 7    1  0.1625523E-005  0.2612475E+03  0.7561462E-02  0.1106396E+00
          2   -1    0    0  501    0  0.00000000000E+00  0.00000000000E+00  0.33502857079E+04  0.33502857079E+04  0.00000000000E+00 0. -1.
         -2   -1    0    0    0  501 -0.00000000000E+00 -0.00000000000E+00 -0.24060939990E+02  0.24060939990E+02  0.00000000000E+00 0.  1.
         23    2    1    2    0    0 -0.15372799418E+03 -0.20018680826E+03  0.12017217457E+04  0.12312489819E+04  0.90176753227E+02 0.  0.
          5    1    1    2  502    0  0.13010315237E+03  0.18551555847E+03  0.14146673839E+04  0.14327051798E+04  0.41800000000E+01 0.  1.
         -5    1    1    2    0  502  0.23624841819E+02  0.14671249792E+02  0.70983563825E+03  0.71039248620E+03  0.41800000000E+01 0.  1.
        -11    1    3    3    0    0 -0.10212207570E+03 -0.60191913600E+02  0.56029337104E+03  0.57269594589E+03  0.00000000000E+00 0. -1.
         11    1    3    3    0    0 -0.51605918487E+02 -0.13999489466E+03  0.64142837467E+03  0.65855303597E+03  0.00000000000E+00 0.  1.
</event>
<event>
 7    1  0.4274778E-006  0.1936612E+03  0.7561462E-02  0.1155200E+00
         -2   -1    0    0    0  501 -0.00000000000E+00  0.00000000000E+00  0.47905856627E+03  0.47905856627E+03  0.00000000000E+00 0.  1.
          2   -1    0    0  501    0  0.00000000000E+00 -0.00000000000E+00 -0.99634826219E+02  0.99634826219E+02  0.00000000000E+00 0. -1.
         23    2    1    2    0    0 -0.65184270101E+02 -0.16923728068E+03  0.11551059550E+03  0.23489073856E+03  0.94555354945E+02 0.  0.
          5    1    1    2  502    0  0.62964042348E+02  0.16424739298E+03  0.27749619474E+03  0.32857767305E+03  0.41800000000E+01 0.  1.
         -5    1    1    2    0  502  0.22202277535E+01  0.49898876999E+01 -0.13583050187E+02  0.15224980884E+02  0.41800000000E+01 0.  1.
        -11    1    3    3    0    0  0.56538261921E+01 -0.11534810309E+03  0.63122769686E+02  0.13161168143E+03  0.00000000000E+00 0.  1.
         11    1    3    3    0    0 -0.70838096293E+02 -0.53889177591E+02  0.52387825818E+02  0.10327905713E+03  0.00000000000E+00 0. -1.
</event>
<event>
 7    1  0.4274778E-006  0.1478752E+03  0.7561462E-02  0.1203109E+00
          1   -1    0    0  501    0  0.00000000000E+00  0.00000000000E+00  0.74552223154E+02  0.74552223154E+02  0.00000000000E+00 0. -1.
         -1   -1    0    0    0  501 -0.00000000000E+00 -0.00000000000E+00 -0.40847902018E+03  0.40847902018E+03  0.00000000000E+00 0.  1.
         23    2    1    2    0    0 -0.59679655333E+02  0.11686922075E+03 -0.19706838976E+03  0.25588049052E+03  0.97050498025E+02 0.  0.
          5    1    1    2  502    0  0.22081242930E+02  0.14917201694E+02 -0.69171329506E+02  0.74244524521E+02  0.41800000000E+01 0. -1.
         -5    1    1    2    0  502  0.37598412403E+02 -0.13178642244E+03 -0.67687077763E+02  0.15290622830E+03  0.41800000000E+01 0. -1.
        -11    1    3    3    0    0 -0.32922805217E+02  0.52628555160E+02 -0.17039967059E+03  0.18135524160E+03  0.00000000000E+00 0.  1.
         11    1    3    3    0    0 -0.26756850116E+02  0.64240665590E+02 -0.26668719174E+02  0.74525248916E+02  0.00000000000E+00 0. -1.
</event>
<event>
 7    1  0.4274778E-006  0.1224901E+03  0.7561462E-02  0.1239045E+00
         -1   -1    0    0    0  501 -0.00000000000E+00  0.00000000000E+00  0.40102153890E+02  0.40102153890E+02  0.00000000000E+00 0.  1.
          1   -1    0    0  501    0  0.00000000000E+00 -0.00000000000E+00 -0.56934365418E+03  0.56934365418E+03  0.00000000000E+00 0. -1.
         23    2    1    2    0    0 -0.87957806556E+02  0.56053640718E+02 -0.26321610383E+03  0.29751398581E+03  0.91396214726E+02 0.  0.
          5    1    1    2  502    0  0.12800292526E+02 -0.16468823188E+02  0.97056687576E+01  0.23382515519E+02  0.41800000000E+01 0. -1.
         -5    1    1    2    0  502  0.75157514029E+02 -0.39584817530E+02 -0.27573106522E+03  0.28854930674E+03  0.41800000000E+01 0. -1.
        -11    1    3    3    0    0 -0.24528220166E+02  0.69603440946E+02 -0.13760615846E+03  0.15614649347E+03  0.00000000000E+00 0.  1.
         11    1    3    3    0    0 -0.63429586390E+02 -0.13549800229E+02 -0.12560994536E+03  0.14136749234E+03  0.00000000000E+00 0. -1.
</event>
<event>
 7    1  0.4274778E-006  0.1055290E+03  0.7561462E-02  0.1269081E+00
         -1   -1    0    0    0  501 -0.00000000000E+00  0.00000000000E+00  0.24701083428E+03  0.24701083428E+03  0.00000000000E+00 0. -1.
          1   -1    0    0  501    0  0.00000000000E+00 -0.00000000000E+00 -0.56898825362E+02  0.56898825362E+02  0.00000000000E+00 0.  1.
         23    2    1    2    0    0 -0.17735998317E+02  0.35253239754E+02  0.58624615343E+02  0.11818243552E+03  0.94725318641E+02 0.  0.
          5    1    1    2  502    0 -0.32699189024E+02 -0.59987230412E+02  0.43006657384E+02  0.80837799047E+02  0.41800000000E+01 0.  1.
         -5    1    1    2    0  502  0.50435187340E+02  0.24733990659E+02  0.88480736192E+02  0.10488942508E+03  0.41800000000E+01 0.  1.
        -11    1    3    3    0    0 -0.24589669500E+02  0.57747848672E+02  0.91829300974E+01  0.63433367226E+02  0.00000000000E+00 0.  1.
         11    1    3    3    0    0  0.68536711836E+01 -0.22494608918E+02  0.49441685246E+02  0.54749068293E+02  0.00000000000E+00 0. -1.
</event>
<event>
 7    1  0.4274778E-006  0.3535020E+03  0.7561462E-02  0.1061187E+00
         -1   -1    0    0    0  501 -0.00000000000E+00  0.00000000000E+00  0.72106337675E+02  0.72106337675E+02  0.00000000000E+00 0.  1.
          1   -1    0    0  501    0  0.00000000000E+00 -0.00000000000E+00 -0.18581208231E+04  0.18581208231E+04  0.00000000000E+00 0. -1.
         23    2    1    2    0    0 -0.32547157151E+03  0.10693190090E+03 -0.10513583443E+04  0.11100252608E+04  0.97136687788E+02 0.  0.
          5    1    1    2  502    0  0.38227296457E+02  0.18456851526E+02 -0.41702882436E+02  0.59653871342E+02  0.41800000000E+01 0.  1.
         -5    1    1    2    0  502  0.28724427505E+03 -0.12538875243E+03 -0.69295325869E+03  0.76054802867E+03  0.41800000000E+01 0.  1.
        -11    1    3    3    0    0 -0.12925374820E+03  0.82088027596E+02 -0.55437206281E+03  0.57512899398E+03  0.00000000000E+00 0. -1.
         11    1    3    3    0    0 -0.19621782331E+03  0.24843873306E+02 -0.49698628151E+03  0.53489626680E+03  0.00000000000E+00 0.  1.
</event>
<event>
 7    1  0.4274778E-006  0.3918696E+03  0.7561462E-02  0.1046632E+00
          3   -1    0    0  501    0  0.00000000000E+00  0.00000000000E+00  0.20384313495E+04  0.20384313495E+04  0.00000000000E+00 0. -1.
         -3   -1    0    0    0  501 -0.00000000000E+00 -0.00000000000E+00 -0.81406418809E+02  0.81406418809E+02  0.00000000000E+00 0.  1.
         23    2    1    2    0    0  0.18015478874E+02  0.38903493652E+03  0.83965128268E+03  0.92995537959E+03  0.90166469492E+02 0.  0.
          5    1    1    2  502    0 -0.14268184326E+02 -0.71799757001E+02  0.38210970135E+03  0.38908107440E+03  0.41800000000E+01 0.  1.
         -5    1    1    2    0  502 -0.37472945475E+01 -0.31723517952E+03  0.73526394662E+03  0.80080131427E+03  0.41800000000E+01 0.  1.
        -11    1    3    3    0    0 -0.19285921493E+02  0.13719243162E+03  0.21931548621E+03  0.25940892921E+03  0.00000000000E+00 0.  1.
         11    1    3    3    0    0  0.37301400367E+02  0.25184250490E+03  0.62033579647E+03  0.67054645039E+03  0.00000000000E+00 0. -1.
</event>
<event>
 7    1  0.4274778E-006  0.1047606E+03  0.7561462E-02  0.1270592E+00
         -1   -1    0    0    0  501 -0.00000000000E+00  0.00000000000E+00  0.52789889326E+02  0.52789889326E+02  0.00000000000E+00 0.  1.
          1   -1    0    0  501    0  0.00000000000E+00 -0.00000000000E+00 -0.28630092352E+03  0.28630092352E+03  0.00000000000E+00 0. -1.
         23    2    1    2    0    0 -0.19208064417E+02 -0.58802363207E+02 -0.11610593266E+03  0.15672399975E+03  0.85177208461E+02 0.  0.
          5    1    1    2  502    0 -0.45123602367E+02  0.39195523151E+02 -0.93141363962E+02  0.11074842936E+03  0.41800000000E+01 0.  1.
         -5    1    1    2    0  502  0.64331666783E+02  0.19606840056E+02 -0.24263737577E+02  0.71618383738E+02  0.41800000000E+01 0.  1.
        -11    1    3    3    0    0  0.18934409000E+02 -0.24167041379E+02 -0.11181657391E+01  0.30721458752E+02  0.00000000000E+00 0.  1.
         11    1    3    3    0    0 -0.38142473417E+02 -0.34635321827E+02 -0.11498776692E+03  0.12600254100E+03  0.00000000000E+00 0. -1.
</event>
<event>
 7    1  0.4274778E-006  0.1175454E+03  0.7561462E-02  0.1247202E+00
         -3   -1    0    0    0  501 -0.00000000000E+00  0.00000000000E+00  0.28008210166E+03  0.28008210166E+03  0.00000000000E+00 0.  1.
          3   -1    0    0  501    0  0.00000000000E+00 -0.00000000000E+00 -0.59752438517E+02  0.59752438517E+02  0.00000000000E+00 0. -1.
         23    2    1    2    0    0 -0.15132998710E+02  0.42763276945E+02  0.81029095849E+02  0.13183665211E+03  0.93581424230E+02 0.  0.
          5    1    1    2  502    0  0.46209716892E+02 -0.73725053558E+02  0.33398413382E+02  0.93293343137E+02  0.41800000000E+01 0. -1.
         -5    1    1    2    0  502 -0.31076718182E+02  0.30961776613E+02  0.10590215391E+03  0.11470454493E+03  0.41800000000E+01 0.  1.
        -11    1    3    3    0    0  0.14614960334E+02  0.65095683652E+02  0.54516676387E+02  0.86157490097E+02  0.00000000000E+00 0. -1.
         11    1    3    3    0    0 -0.29747959044E+02 -0.22332406707E+02  0.26512419462E+02  0.45679162014E+02  0.00000000000E+00 0.  1.
</event>
<event>
 7    1  0.4274778E-006  0.1706290E+03  0.7561462E-02  0.1177193E+00
         -2   -1    0    0    0  501 -0.00000000000E+00  0.00000000000E+00  0.19132564259E+03  0.19132564259E+03  0.00000000000E+00 0.  1.
          2   -1    0    0  501    0  0.00000000000E+00 -0.00000000000E+00 -0.20758115893E+03  0.20758115893E+03  0.00000000000E+00 0. -1.
         23    2    1    2    0    0 -0.11469292396E+03 -0.90340654080E+02 -0.90797761032E+02  0.19270284124E+03  0.87030173080E+02 0.  0.
          5    1    1    2  502    0 -0.12253281564E+02 -0.93011368085E+01 -0.14751208187E+02  0.21719221855E+02  0.41800000000E+01 0.  1.
         -5    1    1    2    0  502  0.12694620553E+03  0.99641790888E+02  0.89293452880E+02  0.18448473844E+03  0.41800000000E+01 0.  1.
        -11    1    3    3    0    0 -0.92673235967E+02 -0.10294185857E+03 -0.55461843961E+02  0.14920244987E+03  0.00000000000E+00 0.  1.
         11    1    3    3    0    0 -0.22019687995E+02  0.12601204494E+02 -0.35335917071E+02  0.43500391370E+02  0.00000000000E+00 0. -1.
</event>
<event>
 7    1  0.4274778E-006  0.3493227E+03  0.7561462E-02  0.1062893E+00
          1   -1    0    0  501    0  0.00000000000E+00  0.00000000000E+00  0.14755160529E+04  0.14755160529E+04  0.00000000000E+00 0.  1.
         -1   -1    0    0    0  501 -0.00000000000E+00 -0.00000000000E+00 -0.15228903772E+03  0.15228903772E+03  0.00000000000E+00 0. -1.
         23    2    1    2    0    0  0.11060050311E+03 -0.31543816166E+03  0.12017877848E+04  0.12507198812E+04  0.90954034723E+02 0.  0.
          5    1    1    2  502    0 -0.13422761773E+03  0.29929013998E+03  0.11014099253E+03  0.34603489981E+03  0.41800000000E+01 0.  1.
         -5    1    1    2    0  502  0.23627114616E+02  0.16148021677E+02  0.11298237874E+02  0.31050309632E+02  0.41800000000E+01 0.  1.
        -11    1    3    3    0    0  0.34048071568E+02 -0.27565423763E+02  0.23624974008E+03  0.24027705561E+03  0.00000000000E+00 0.  1.
         11    1    3    3    0    0  0.76552431547E+02 -0.28787273789E+03  0.96553804473E+03  0.10104428256E+04  0.00000000000E+00 0. -1.
</event>
<event>
 7    1  0.4274778E-006  0.1132800E+03  0.7561462E-02  0.1254614E+00
          2   -1    0    0  501    0  0.00000000000E+00  0.00000000000E+00  0.35151873954E+03  0.35151873954E+03  0.00000000000E+00 0. -1.
         -2   -1    0    0    0  501 -0.00000000000E+00 -0.00000000000E+00 -0.49153243633E+02  0.49153243633E+02  0.00000000000E+00 0.  1.
         23    2    1    2    0    0  0.34071950671E+02  0.59850856797E+02  0.17364531923E+03  0.20842232224E+03  0.92434542448E+02 0.  0.
          5    1    1    2  502    0 -0.24827346641E+02  0.19189054709E+02  0.10415732639E+03  0.10886155429E+03  0.41800000000E+01 0.  1.
         -5    1    1    2    0  502 -0.92446040304E+01 -0.79039911506E+02  0.24562850289E+02  0.83388106639E+02  0.41800000000E+01 0.  1.
        -11    1    3    3    0    0 -0.28280124395E+02  0.41499416427E+02  0.72528459883E+02  0.88217597408E+02  0.00000000000E+00 0. -1.
         11    1    3    3    0    0  0.62352075066E+02  0.18351440370E+02  0.10111685934E+03  0.12020472483E+03  0.00000000000E+00 0.  1.
</event>
<event>
 7    1  0.4274778E-006  0.7188572E+02  0.7561462E-02  0.1353795E+00
          2   -1    0    0  501    0  0.00000000000E+00  0.00000000000E+00  0.35513596104E+02  0.35513596104E+02  0.00000000000E+00 0.  1.
         -2   -1    0    0    0  501 -0.00000000000E+00 -0.00000000000E+00 -0.40556031688E+03  0.40556031688E+03  0.00000000000E+00 0. -1.
         23    2    1    2    0    0 -0.26137296504E+01 -0.64681801288E+01 -0.76798310130E+02  0.12218146640E+03  0.94771627385E+02 0.  0.
          5    1    1    2  502    0 -0.36691962071E+02  0.46210950597E+01 -0.27090519952E+03  0.27344972870E+03  0.41800000000E+01 0. -1.
         -5    1    1    2    0  502  0.39305691721E+02  0.18470850692E+01 -0.22343211133E+02  0.45442717884E+02  0.41800000000E+01 0. -1.
        -11    1    3    3    0    0  0.12545977932E+02  0.27258208639E+02  0.68024699375E+01  0.30768248207E+02  0.00000000000E+00 0.  1.
         11    1    3    3    0    0 -0.15159707582E+02 -0.33726388768E+02 -0.83600780068E+02  0.91413218198E+02  0.00000000000E+00 0. -1.
</event>
<event>
 7    1  0.4274778E-006  0.1132948E+03  0.7561462E-02  0.1254587E+00
          2   -1    0    0  501    0  0.00000000000E+00  0.00000000000E+00  0.19133635997E+03  0.19133635997E+03  0.00000000000E+00 0. -1.
         -2   -1    0    0    0  501 -0.00000000000E+00 -0.00000000000E+00 -0.12316383771E+03  0.12316383771E+03  0.00000000000E+00 0.  1.
         23    2    1    2    0    0  0.42989334572E+01 -0.21372441699E+02  0.12997596014E+03  0.16057079893E+03  0.91727690267E+02 0.  0.
          5    1    1    2  502    0 -0.69971632110E+02  0.10403732686E+02 -0.14996859120E+02  0.72433729280E+02  0.41800000000E+01 0. -1.
         -5    1    1    2    0  502  0.65672698653E+02  0.10968709013E+02 -0.46806578769E+02  0.81495669467E+02  0.41800000000E+01 0.  1.
        -11    1    3    3    0    0  0.29670531164E+02  0.23240572793E+02  0.82305238837E+02  0.90524123765E+02  0.00000000000E+00 0.  1.
         11    1    3    3    0    0 -0.25371597707E+02 -0.44613014492E+02  0.47670721307E+02  0.70046675169E+02  0.00000000000E+00 0. -1.
</event>
<event>
 7    1  0.4274778E-006  0.7217638E+02  0.7561462E-02  0.1352845E+00
          3   -1    0    0  501    0  0.00000000000E+00  0.00000000000E+00  0.61291630586E+02  0.61291630586E+02  0.00000000000E+00 0. -1.
         -3   -1    0    0    0  501 -0.00000000000E+00 -0.00000000000E+00 -0.21996755694E+03  0.21996755694E+03  0.00000000000E+00 0.  1.
         23    2    1    2    0    0  0.36211235967E+02 -0.17951276683E+02 -0.56554220169E+02  0.11479240062E+03  0.91353234622E+02 0.  0.
          5    1    1    2  502    0 -0.23100443724E+02 -0.97949096002E+01  0.24976634836E+02  0.35649339995E+02  0.41800000000E+01 0.  1.
         -5    1    1    2    0  502 -0.13110792242E+02  0.27746186283E+02 -0.12709834102E+03  0.13081744691E+03  0.41800000000E+01 0.  1.
        -11    1    3    3    0    0  0.12292109847E+02  0.31062256216E+02 -0.49616535971E+02  0.59814382614E+02  0.00000000000E+00 0.  1.
         11    1    3    3    0    0  0.23919126119E+02 -0.49013532899E+02 -0.69376841985E+01  0.54978018004E+02  0.00000000000E+00 0. -1.
</event>
<event>
 7    1  0.4274778E-006  0.1126059E+03  0.7561462E-02  0.1255819E+00
         -2   -1    0    0    0  501 -0.00000000000E+00  0.00000000000E+00  0.20984563028E+03  0.20984563028E+03  0.00000000000E+00 0.  1.
          2   -1    0    0  501    0  0.00000000000E+00 -0.00000000000E+00 -0.95935788359E+02  0.95935788359E+02  0.00000000000E+00 0. -1.
         23    2    1    2    0    0 -0.38290947610E+02 -0.69492049211E+02  0.34265216327E+01  0.12098949358E+03  0.91276365698E+02 0.  0.
          5    1    1    2  502    0  0.48709114855E+02  0.16666487835E+02  0.11936546981E+03  0.13006128351E+03  0.41800000000E+01 0.  1.
         -5    1    1    2    0  502 -0.10418167246E+02  0.52825561376E+02 -0.88821495186E+01  0.54730641541E+02  0.41800000000E+01 0.  1.
        -11    1    3    3    0    0 -0.47247348136E+02  0.22076472255E+01 -0.75692050786E+01  0.47900714793E+02  0.00000000000E+00 0.  1.
         11    1    3    3    0    0  0.89564005259E+01 -0.71699696436E+02  0.10995726711E+02  0.73088778792E+02  0.00000000000E+00 0. -1.
</event>
<event>
 7    1  0.4274778E-006  0.1436502E+03  0.7561462E-02  0.1208500E+00
          2   -1    0    0  501    0  0.00000000000E+00  0.00000000000E+00  0.90202851844E+03  0.90202851844E+03  0.00000000000E+00 0.  1.
         -2   -1    0    0    0  501 -0.00000000000E+00 -0.00000000000E+00 -0.55826242141E+02  0.55826242141E+02  0.00000000000E+00 0. -1.
         23    2    1    2    0    0 -0.91034799877E+02  0.36658882963E+02  0.76782648033E+03  0.78059454318E+03  0.10069323941E+03 0.  0.
          5    1    1    2  502    0  0.17363128942E+02  0.37835847038E+02  0.56237951910E+02  0.70094287946E+02  0.41800000000E+01 0.  1.
         -5    1    1    2    0  502  0.73671670935E+02 -0.74494730001E+02  0.22137844062E+02  0.10716592946E+03  0.41800000000E+01 0.  1.
        -11    1    3    3    0    0 -0.54858685375E+01  0.53192849478E+02  0.29187674818E+03  0.29673491557E+03  0.00000000000E+00 0.  1.
         11    1    3    3    0    0 -0.85548931340E+02 -0.16533966515E+02  0.47594973215E+03  0.48385962761E+03  0.00000000000E+00 0. -1.
</event>
<event>
 7    1  0.4274778E-006  0.1749810E+03  0.7561462E-02  0.1172751E+00
          2   -1    0    0  501    0  0.00000000000E+00  0.00000000000E+00  0.77536147476E+02  0.77536147476E+02  0.00000000000E+00 0. -1.
         -2   -1    0    0    0  501 -0.00000000000E+00 -0.00000000000E+00 -0.60551739220E+03  0.60551739220E+03  0.00000000000E+00 0.  1.
         23    2    1    2    0    0  0.11184943592E+03  0.10314963018E+03 -0.90963723311E+02  0.19988985773E+03  0.92365652397E+02 0.  0.
          5    1    1    2  502    0 -0.25003221849E+02  0.11966050188E+02 -0.60306740422E+01  0.28673836321E+02  0.41800000000E+01 0. -1.
         -5    1    1    2    0  502 -0.86846214075E+02 -0.11511568037E+03 -0.43098684737E+03  0.45448984562E+03  0.41800000000E+01 0.  1.
        -11    1    3    3    0    0  0.12713093502E+03  0.80943701944E+02 -0.72708484228E+02  0.16733404078E+03  0.00000000000E+00 0. -1.
         11    1    3    3    0    0 -0.15281499099E+02  0.22205928240E+02 -0.18255239083E+02  0.32555816957E+02  0.00000000000E+00 0.  1.
</event>
<event>
 7    1  0.4274778E-006  0.9718385E+02  0.7561462E-02  0.1286332E+00
          1   -1    0    0  501    0  0.00000000000E+00  0.00000000000E+00  0.16729698381E+03  0.16729698381E+03  0.00000000000E+00 0. -1.
         -1   -1    0    0    0  501 -0.00000000000E+00 -0.00000000000E+00 -0.89455980598E+02  0.89455980598E+02  0.00000000000E+00 0.  1.
         23    2    1    2    0    0 -0.34678943390E+01  0.44319757418E+01  0.91240572746E+02  0.13082197475E+03  0.93583536279E+02 0.  0.
          5    1    1    2  502    0 -0.54235051069E+02 -0.23259920758E+02  0.11367203198E+02  0.60242430119E+02  0.41800000000E+01 0.  1.
         -5    1    1    2    0  502  0.57702945408E+02  0.18827945016E+02 -0.24766772734E+02  0.65688559536E+02  0.41800000000E+01 0.  1.
        -11    1    3    3    0    0  0.24127180948E+02 -0.24499473449E+02  0.83220009166E+02  0.90043961404E+02  0.00000000000E+00 0. -1.
         11    1    3    3    0    0 -0.27595075287E+02  0.28931449190E+02  0.80205635798E+01  0.40778013346E+02  0.00000000000E+00 0.  1.
</event>
<event>
 7    1  0.4274778E-006  0.7526409E+02  0.7561462E-02  0.1343055E+00
         -2   -1    0    0    0  501 -0.00000000000E+00  0.00000000000E+00  0.66615061310E+02  0.66615061310E+02  0.00000000000E+00 0.  1.
          2   -1    0    0  501    0  0.00000000000E+00 -0.00000000000E+00 -0.23861403370E+03  0.23861403370E+03  0.00000000000E+00 0. -1.
         23    2    1    2    0    0  0.11360624365E+02 -0.33627443317E+02 -0.14414158494E+03  0.17224895177E+03  0.87367248712E+02 0.  0.
          5    1    1    2  502    0  0.31147462318E+01 -0.12417379026E+02  0.44168818364E+02  0.46176291121E+02  0.41800000000E+01 0.  1.
         -5    1    1    2    0  502 -0.14475370597E+02  0.46044822342E+02 -0.72026205810E+02  0.86803852114E+02  0.41800000000E+01 0.  1.
        -11    1    3    3    0    0 -0.35190197933E+02 -0.11105971009E+02 -0.32339856833E+02  0.49066882544E+02  0.00000000000E+00 0.  1.
         11    1    3    3    0    0  0.46550822298E+02 -0.22521472308E+02 -0.11180172811E+03  0.12318206923E+03  0.00000000000E+00 0. -1.
</event>
<event>
 7    1  0.4274778E-006  0.1128405E+03  0.7561462E-02  0.1255398E+00
          3   -1    0    0  501    0  0.00000000000E+00  0.00000000000E+00  0.84915581730E+03  0.84915581730E+03  0.00000000000E+00 0. -1.
         -3   -1    0    0    0  501 -0.00000000000E+00 -0.00000000000E+00 -0.18028820253E+02  0.18028820253E+02  0.00000000000E+00 0.  1.
         23    2    1    2    0    0 -0.33731679725E+02 -0.34138638962E+02  0.49067247857E+03  0.50131607491E+03  0.90857321396E+02 0.  0.
          5    1    1    2  502    0  0.34436333857E+01 -0.42465381334E+02  0.61189317644E+02  0.74677789311E+02  0.41800000000E+01 0.  1.
         -5    1    1    2    0  502  0.30288046339E+02  0.76604020296E+02  0.27926520083E+03  0.29119077333E+03  0.41800000000E+01 0.  1.
        -11    1    3    3    0    0  0.30115791636E+02 -0.15547266517E+02  0.11859563442E+03  0.12334343479E+03  0.00000000000E+00 0.  1.
         11    1    3    3    0    0 -0.63847471361E+02 -0.18591372445E+02  0.37207684415E+03  0.37797264012E+03  0.00000000000E+00 0. -1.
</event>
<event>
 7    1  0.4274778E-006  0.3437614E+03  0.7561462E-02  0.1065205E+00
          2   -1    0    0  501    0  0.00000000000E+00  0.00000000000E+00  0.19384627060E+04  0.19384627060E+04  0.00000000000E+00 0. -1.
         -2   -1    0    0    0  501 -0.00000000000E+00 -0.00000000000E+00 -0.64988545502E+02  0.64988545502E+02  0.00000000000E+00 0.  1.
         23    2    1    2    0    0 -0.26241013632E+03 -0.21182586300E+03  0.94352540787E+03  0.10063649493E+04  0.93813325389E+02 0.  0.
          5    1    1    2  502    0  0.44922694180E+02  0.89117474521E+02  0.38304724252E+03  0.39585683665E+03  0.41800000000E+01 0. -1.
         -5    1    1    2    0  502  0.21748744214E+03  0.12270838848E+03  0.54690151013E+03  0.60122946557E+03  0.41800000000E+01 0. -1.
        -11    1    3    3    0    0 -0.44288766369E+02 -0.46264619060E+02  0.30408055939E+03  0.31075214625E+03  0.00000000000E+00 0. -1.
         11    1    3    3    0    0 -0.21812136995E+03 -0.16556124394E+03  0.63944484848E+03  0.69561280305E+03  0.00000000000E+00 0.  1.
</event>
<event>
 7    1  0.4274778E-006  0.1560594E+03  0.7561462E-02  0.1193219E+00
          2   -1    0    0  501    0  0.00000000000E+00  0.00000000000E+00  0.29122763494E+03  0.29122763494E+03  0.00000000000E+00 0. -1.
         -2   -1    0    0    0  501 -0.00000000000E+00 -0.00000000000E+00 -0.17511848088E+03  0.17511848088E+03  0.00000000000E+00 0.  1.
         23    2    1    2    0    0 -0.88170885282E+02  0.93766171428E+02  0.20692517037E+03  0.26519462280E+03  0.10461339262E+03 0.  0.
          5    1    1    2  502    0  0.74254388474E+02 -0.11989469144E+03 -0.96212619182E+02  0.17077116774E+03  0.41800000000E+01 0. -1.
         -5    1    1    2    0  502  0.13916496808E+02  0.26128520010E+02  0.53966028653E+01  0.30380325275E+02  0.41800000000E+01 0. -1.
        -11    1    3    3    0    0 -0.93855536991E+02  0.71047279267E+02  0.96209323771E+02  0.15202898308E+03  0.00000000000E+00 0.  1.
         11    1    3    3    0    0  0.56846517095E+01  0.22718892161E+02  0.11071584660E+03  0.11316563972E+03  0.00000000000E+00 0. -1.
</event>
<event>
 7    1  0.4274778E-006  0.1028030E+03  0.7561462E-02  0.1274510E+00
          2   -1    0    0  501    0  0.00000000000E+00  0.00000000000E+00  0.14660686918E+03  0.14660686918E+03  0.00000000000E+00 0. -1.
         -2   -1    0    0    0  501 -0.00000000000E+00 -0.00000000000E+00 -0.82007264499E+02  0.82007264499E+02  0.00000000000E+00 0.  1.
         23    2    1    2    0    0 -0.41438381850E+02  0.63428316856E+00  0.37365196347E+02  0.10429622866E+03  0.88113583566E+02 0.  0.
          5    1    1    2  502    0 -0.51853653006E+01  0.46338431389E+02  0.33708333983E+02  0.57687627936E+02  0.41800000000E+01 0. -1.
         -5    1    1    2    0  502  0.46623747151E+02 -0.46972714558E+02 -0.64739256475E+01  0.66630277086E+02  0.41800000000E+01 0.  1.
        -11    1    3    3    0    0 -0.66938096892E+02  0.16187657234E+01  0.41010112272E+02  0.78518523462E+02  0.00000000000E+00 0. -1.
         11    1    3    3    0    0  0.25499715042E+02 -0.98448255487E+00 -0.36449159247E+01  0.25777705197E+02  0.00000000000E+00 0.  1.
</event>
<event>
 7    1  0.4274778E-006  0.1804496E+03  0.7561462E-02  0.1167369E+00
         -2   -1    0    0    0  501 -0.00000000000E+00  0.00000000000E+00  0.49848727332E+02  0.49848727332E+02  0.00000000000E+00 0.  1.
          2   -1    0    0  501    0  0.00000000000E+00 -0.00000000000E+00 -0.84114148007E+03  0.84114148007E+03  0.00000000000E+00 0. -1.
         23    2    1    2    0    0 -0.23187960246E+02  0.12574815841E+03 -0.30558273726E+03  0.34347664557E+03  0.90802620534E+02 0.  0.
          5    1    1    2  502    0  0.98007651660E+02 -0.10059603300E+03 -0.16270703193E+03  0.21497932989E+03  0.41800000000E+01 0. -1.
         -5    1    1    2    0  502 -0.74819691414E+02 -0.25152125414E+02 -0.32300298355E+03  0.33253423195E+03  0.41800000000E+01 0.  1.
        -11    1    3    3    0    0 -0.42369975585E+02  0.10426809588E+03 -0.16342206903E+03  0.19842838329E+03  0.00000000000E+00 0.  1.
         11    1    3    3    0    0  0.19182015339E+02  0.21480062534E+02 -0.14216066822E+03  0.14504826227E+03  0.00000000000E+00 0. -1.
</event>
<event>
 7    1  0.4274778E-006  0.1208897E+03  0.7561462E-02  0.1241636E+00
         -2   -1    0    0    0  501 -0.00000000000E+00  0.00000000000E+00  0.21050532352E+02  0.21050532352E+02  0.00000000000E+00 0.  1.
          2   -1    0    0  501    0  0.00000000000E+00 -0.00000000000E+00 -0.83926516336E+03  0.83926516336E+03  0.00000000000E+00 0. -1.
         23    2    1    2    0    0 -0.49011542227E+02 -0.39664574934E+02 -0.50047287716E+03  0.51307469656E+03  0.93793036552E+02 0.  0.
          5    1    1    2  502    0  0.86689656990E+02  0.42559498536E+02 -0.26610053433E+03  0.28311371269E+03  0.41800000000E+01 0. -1.
         -5    1    1    2    0  502 -0.37678114763E+02 -0.28949236028E+01 -0.51641219526E+02  0.64127286462E+02  0.41800000000E+01 0. -1.
        -11    1    3    3    0    0 -0.69402058105E+02 -0.85938760198E+01 -0.39740765670E+03  0.40351374943E+03  0.00000000000E+00 0. -1.
         11    1    3    3    0    0  0.20390515878E+02 -0.31070698914E+02 -0.10306522046E+03  0.10956094713E+03  0.00000000000E+00 0.  1.
</event>
<event>
 7    1  0.4274778E-006  0.1863701E+03  0.7561462E-02  0.1161777E+00
         -4   -1    0    0    0  501 -0.00000000000E+00  0.00000000000E+00  0.23275655794E+03  0.23275655794E+03  0.00000000000E+00 0.  1.
          4   -1    0    0  501    0  0.00000000000E+00 -0.00000000000E+00 -0.47597136729E+03  0.47597136729E+03  0.00000000000E+00 0. -1.
         23    2    1    2    0    0 -0.24993326935E+02  0.99763252583E+01 -0.96933914245E+02  0.13583561880E+03  0.91273973005E+02 0.  0.
          5    1    1    2  502    0 -0.13575584124E+03 -0.41141588717E+02 -0.31022569027E+03  0.34114473476E+03  0.41800000000E+01 0. -1.
         -5    1    1    2    0  502  0.16074916817E+03  0.31165263459E+02  0.16394479517E+03  0.23174757167E+03  0.41800000000E+01 0.  1.
        -11    1    3    3    0    0 -0.72696820147E+01  0.35344033576E+02 -0.21725169304E+01  0.36149257473E+02  0.00000000000E+00 0.  1.
         11    1    3    3    0    0 -0.17723644921E+02 -0.25367708318E+02 -0.94761397314E+02  0.99686361332E+02  0.00000000000E+00 0. -1.
</event>
<event>
 7    1  0.4274778E-006  0.1951402E+03  0.7561462E-02  0.1153905E+00
          2   -1    0    0  501    0  0.00000000000E+00  0.00000000000E+00  0.97877227536E+03  0.97877227536E+03  0.00000000000E+00 0. -1.
         -2   -1    0    0    0  501 -0.00000000000E+00 -0.00000000000E+00 -0.43216992253E+02  0.43216992253E+02  0.00000000000E+00 0.  1.
         23    2    1    2    0    0  0.34687476790E+02  0.15207206236E+03  0.58793050896E+03  0.62096610210E+03  0.12492991394E+03 0.  0.
          5    1    1    2  502    0 -0.44625062046E+02 -0.16860411520E+03  0.33467618257E+03  0.37741802209E+03  0.41800000000E+01 0.  1.
         -5    1    1    2    0  502  0.99375852560E+01  0.16532052844E+02  0.12948591583E+02  0.23605143421E+02  0.41800000000E+01 0.  1.
        -11    1    3    3    0    0  0.79192924092E+02  0.93787423346E+02  0.30722474236E+03  0.33083929985E+03  0.00000000000E+00 0.  1.
         11    1    3    3    0    0 -0.44505447303E+02  0.58284639009E+02  0.28070576659E+03  0.29012680225E+03  0.00000000000E+00 0. -1.
</event>
<event>
 7    1  0.4274778E-006  0.1250074E+03  0.7561462E-02  0.1235058E+00
          1   -1    0    0  501    0  0.00000000000E+00  0.00000000000E+00  0.89956027002E+02  0.89956027002E+02  0.00000000000E+00 0. -1.
         -1   -1    0    0    0  501 -0.00000000000E+00 -0.00000000000E+00 -0.22446174578E+03  0.22446174578E+03  0.00000000000E+00 0.  1.
         23    2    1    2    0    0 -0.25055504215E+02 -0.80020040089E+02 -0.19945465243E+02  0.12519847317E+03  0.90806668220E+02 0.  0.
          5    1    1    2  502    0 -0.38074984757E+02  0.23906145493E+02 -0.90752616436E+02  0.10136428388E+03  0.41800000000E+01 0.  1.
         -5    1    1    2    0  502  0.63130488972E+02  0.56113894596E+02 -0.23807637096E+02  0.87855015729E+02  0.41800000000E+01 0.  1.
        -11    1    3    3    0    0 -0.44391544458E+02 -0.72246361637E+01  0.63478012748E+01  0.45421351456E+02  0.00000000000E+00 0. -1.
         11    1    3    3    0    0  0.19336040243E+02 -0.72795403925E+02 -0.26293266518E+02  0.79777121715E+02  0.00000000000E+00 0.  1.
</event>
<event>
 7    1  0.4274778E-006  0.1742062E+03  0.7561462E-02  0.1173531E+00
          1   -1    0    0  501    0  0.00000000000E+00  0.00000000000E+00  0.22332346886E+03  0.22332346886E+03  0.00000000000E+00 0. -1.
         -1   -1    0    0    0  501 -0.00000000000E+00 -0.00000000000E+00 -0.16076914557E+03  0.16076914557E+03  0.00000000000E+00 0.  1.
         23    2    1    2    0    0  0.77913083132E+02  0.13369128844E+03  0.45166033793E+02  0.18435993056E+03  0.89469571706E+02 0.  0.
          5    1    1    2  502    0 -0.54296758367E+02 -0.15213104179E+03 -0.56866804104E+01  0.16168426819E+03  0.41800000000E+01 0. -1.
         -5    1    1    2    0  502 -0.23616324764E+02  0.18439753353E+02  0.23074969907E+02  0.38048415674E+02  0.41800000000E+01 0. -1.
        -11    1    3    3    0    0  0.43037845896E+02  0.96104491955E+02 -0.13819450951E+02  0.10620408080E+03  0.00000000000E+00 0.  1.
         11    1    3    3    0    0  0.34875237235E+02  0.37586796481E+02  0.58985484744E+02  0.78155849764E+02  0.00000000000E+00 0. -1.
</event>
<event>
 7    1  0.4274778E-006  0.1122617E+03  0.7561462E-02  0.1256438E+00
         -2   -1    0    0    0  501 -0.00000000000E+00  0.00000000000E+00  0.36419465443E+03  0.36419465443E+03  0.00000000000E+00 0.  1.
          2   -1    0    0  501    0  0.00000000000E+00 -0.00000000000E+00 -0.39167988800E+02  0.39167988800E+02  0.00000000000E+00 0. -1.
         23    2    1    2    0    0  0.18519998457E+02  0.32861101362E+02  0.84114254093E+02  0.12930188068E+03  0.90669323814E+02 0.  0.
          5    1    1    2  502    0  0.18077215144E+02 -0.71054742175E+02  0.17250627161E+03  0.18748719486E+03  0.41800000000E+01 0. -1.
         -5    1    1    2    0  502 -0.36597213600E+02  0.38193640814E+02  0.68406139933E+02  0.86573567689E+02  0.41800000000E+01 0. -1.
        -11    1    3    3    0    0 -0.10102844886E+02 -0.28542027325E+02  0.22435620779E+02  0.37683841077E+02  0.00000000000E+00 0.  1.
         11    1    3    3    0    0  0.28622843343E+02  0.61403128687E+02  0.61678633314E+02  0.91618039605E+02  0.00000000000E+00 0. -1.
</event>
<event>
 7    1  0.4274778E-006  0.1443156E+03  0.7561462E-02  0.1207637E+00
         -1   -1    0    0    0  501 -0.00000000000E+00  0.00000000000E+00  0.16506351489E+03  0.16506351489E+03  0.00000000000E+00 0.  1.
          1   -1    0    0  501    0  0.00000000000E+00 -0.00000000000E+00 -0.20047879983E+03  0.20047879983E+03  0.00000000000E+00 0. -1.
         23    2    1    2    0    0 -0.60391091371E+02 -0.11999831967E+03 -0.73375083197E+02  0.17810244413E+03  0.91048872209E+02 0.  0.
          5    1    1    2  502    0  0.12289784350E+02  0.10137250004E+03 -0.25716610356E+02  0.10538614241E+03  0.41800000000E+01 0. -1.
         -5    1    1    2    0  502  0.48101307020E+02  0.18625819633E+02  0.63676408612E+02  0.82053728177E+02  0.41800000000E+01 0. -1.
        -11    1    3    3    0    0 -0.39827959449E+02 -0.88696732164E+02 -0.94092394333E+02  0.13530245867E+03  0.00000000000E+00 0.  1.
         11    1    3    3    0    0 -0.20563131921E+02 -0.31301587508E+02  0.20717311136E+02  0.42799985463E+02  0.00000000000E+00 0. -1.
</event>
<event>
 7    1  0.4274778E-006  0.1605704E+03  0.7561462E-02  0.1188054E+00
          1   -1    0    0  501    0  0.00000000000E+00  0.00000000000E+00  0.34232627280E+03  0.34232627280E+03  0.00000000000E+00 0. -1.
         -1   -1    0    0    0  501 -0.00000000000E+00 -0.00000000000E+00 -0.12070001968E+03  0.12070001968E+03  0.00000000000E+00 0.  1.
         23    2    1    2    0    0  0.23249154026E+02 -0.30017077203E+02  0.67537789462E+02  0.11423547122E+03  0.83945469159E+02 0.  0.
          5    1    1    2  502    0 -0.13656068370E+03  0.35725892818E+02  0.18346349338E+03  0.23151994634E+03  0.41800000000E+01 0. -1.
         -5    1    1    2    0  502  0.11331152968E+03 -0.57088156155E+01 -0.29375029725E+02  0.11727087492E+03  0.41800000000E+01 0.  1.
        -11    1    3    3    0    0  0.23736722413E+01 -0.42168754716E+02  0.77377160681E+02  0.88153634011E+02  0.00000000000E+00 0.  1.
         11    1    3    3    0    0  0.20875481785E+02  0.12151677513E+02 -0.98393712189E+01  0.26081837208E+02  0.00000000000E+00 0. -1.
</event>
<event>
 7    1  0.4274778E-006  0.3536854E+03  0.7561462E-02  0.1061113E+00
         -2   -1    0    0    0  501 -0.00000000000E+00  0.00000000000E+00  0.25583102966E+03  0.25583102966E+03  0.00000000000E+00 0.  1.
          2   -1    0    0  501    0  0.00000000000E+00 -0.00000000000E+00 -0.51807550285E+03  0.51807550285E+03  0.00000000000E+00 0. -1.
         23    2    1    2    0    0  0.24838757673E+03 -0.23923409956E+03 -0.86146910789E+02  0.36698313293E+03  0.91246846226E+02 0.  0.
          5    1    1    2  502    0 -0.25710473140E+03  0.23491128381E+03 -0.15086277631E+03  0.37955658847E+03  0.41800000000E+01 0.  1.
         -5    1    1    2    0  502  0.87171546741E+01  0.43228157512E+01 -0.25234786097E+02  0.27366811122E+02  0.41800000000E+01 0.  1.
        -11    1    3    3    0    0  0.62409457949E+02 -0.32315138275E+02  0.13304454224E+02  0.71527736616E+02  0.00000000000E+00 0.  1.
         11    1    3    3    0    0  0.18597811878E+03 -0.20691896129E+03 -0.99451365012E+02  0.29545539631E+03  0.00000000000E+00 0. -1.
</event>
<event>
 7    1  0.4274778E-006  0.6712981E+02  0.7561462E-02  0.1370134E+00
         -1   -1    0    0    0  501 -0.00000000000E+00  0.00000000000E+00  0.17338315012E+03  0.17338315012E+03  0.00000000000E+00 0. -1.
          1   -1    0    0  501    0  0.00000000000E+00 -0.00000000000E+00 -0.11457367934E+03  0.11457367934E+03  0.00000000000E+00 0.  1.
         23    2    1    2    0    0 -0.11925291425E+02 -0.14123958849E+02 -0.64731817122E+02  0.11117628209E+03  0.88477447756E+02 0.  0.
          5    1    1    2  502    0  0.12524280864E+02 -0.27826449265E+02 -0.13331203319E+02  0.33561321067E+02  0.41800000000E+01 0.  1.
         -5    1    1    2    0  502 -0.59898943891E+00  0.41950408114E+02  0.13687249123E+03  0.14321922631E+03  0.41800000000E+01 0.  1.
        -11    1    3    3    0    0  0.52883293109E+01 -0.34340350915E+02 -0.75039925186E+02  0.82693509418E+02  0.00000000000E+00 0.  1.
         11    1    3    3    0    0 -0.17213620736E+02  0.20216392066E+02  0.10308108064E+02  0.28482772668E+02  0.00000000000E+00 0. -1.
</event>
<event>
 7    1  0.4274778E-006  0.1085322E+03  0.7561462E-02  0.1263312E+00
         -2   -1    0    0    0  501 -0.00000000000E+00  0.00000000000E+00  0.56650601772E+02  0.56650601772E+02  0.00000000000E+00 0.  1.
          2   -1    0    0  501    0  0.00000000000E+00 -0.00000000000E+00 -0.30331957140E+03  0.30331957140E+03  0.00000000000E+00 0. -1.
         23    2    1    2    0    0 -0.67367099489E+02  0.11609707956E+02 -0.14874189751E+03  0.18702454413E+03  0.90448419663E+02 0.  0.
          5    1    1    2  502    0  0.51671711740E+01 -0.56637392019E+02 -0.13220432996E+02  0.58538415432E+02  0.41800000000E+01 0.  1.
         -5    1    1    2    0  502  0.62199928315E+02  0.45027684063E+02 -0.84706639121E+02  0.11440721361E+03  0.41800000000E+01 0.  1.
        -11    1    3    3    0    0 -0.28659155809E+02 -0.18487826291E+02 -0.13021760349E+03  0.13460969947E+03  0.00000000000E+00 0. -1.
         11    1    3    3    0    0 -0.38707943680E+02  0.30097534248E+02 -0.18524294019E+02  0.52414844659E+02  0.00000000000E+00 0.  1.
</event>
<event>
 7    1  0.4274778E-006  0.1105520E+03  0.7561462E-02  0.1259551E+00
         -1   -1    0    0    0  501 -0.00000000000E+00  0.00000000000E+00  0.31491926438E+03  0.31491926438E+03  0.00000000000E+00 0.  1.
          1   -1    0    0  501    0  0.00000000000E+00 -0.00000000000E+00 -0.47885078021E+02  0.47885078021E+02  0.00000000000E+00 0. -1.
         23    2    1    2    0    0  0.41584648047E+02 -0.82535674597E+01  0.65347694640E+02  0.12172463564E+03  0.93536952047E+02 0.  0.
          5    1    1    2  502    0  0.55307046579E+00  0.56336824627E+02  0.46441038675E+02  0.73132661439E+02  0.41800000000E+01 0.  1.
         -5    1    1    2    0  502 -0.42137718513E+02 -0.48083257167E+02  0.15524545304E+03  0.16794704532E+03  0.41800000000E+01 0.  1.
        -11    1    3    3    0    0 -0.29289462544E+02 -0.11911835169E+01  0.30949373383E+02  0.42628103958E+02  0.00000000000E+00 0.  1.
         11    1    3    3    0    0  0.70874110591E+02 -0.70623839429E+01  0.34398321257E+02  0.79096531683E+02  0.00000000000E+00 0. -1.
</event>
<event>
 7    1  0.4274778E-006  0.1554038E+03  0.7561462E-02  0.1193986E+00
          2   -1    0    0  501    0  0.00000000000E+00  0.00000000000E+00  0.41115564305E+03  0.41115564305E+03  0.00000000000E+00 0. -1.
         -2   -1    0    0    0  501 -0.00000000000E+00 -0.00000000000E+00 -0.62520407479E+02  0.62520407479E+02  0.00000000000E+00 0.  1.
         23    2    1    2    0    0  0.17257722154E+02 -0.10991066689E+03  0.21686548809E+03  0.26061704802E+03  0.92262788432E+02 0.  0.
          5    1    1    2  502    0 -0.58783704859E+02  0.12041118785E+02  0.37312178121E+02  0.70782649955E+02  0.41800000000E+01 0.  1.
         -5    1    1    2    0  502  0.41525982705E+02  0.97869548101E+02  0.94457569369E+02  0.14227635255E+03  0.41800000000E+01 0.  1.
        -11    1    3    3    0    0 -0.34396118858E+01 -0.12081692660E+03  0.17548556221E+03  0.21308154126E+03  0.00000000000E+00 0.  1.
         11    1    3    3    0    0  0.20697334039E+02  0.10906259718E+02  0.41379925878E+02  0.47535506762E+02  0.00000000000E+00 0. -1.
</event>
<event>
 7    1  0.4274778E-006  0.2039096E+03  0.7561462E-02  0.1146482E+00
         -1   -1    0    0    0  501 -0.00000000000E+00  0.00000000000E+00  0.53349951440E+03  0.53349951440E+03  0.00000000000E+00 0.  1.
          1   -1    0    0  501    0  0.00000000000E+00 -0.00000000000E+00 -0.98244162502E+02  0.98244162502E+02  0.00000000000E+00 0. -1.
         23    2    1    2    0    0 -0.18205512431E+03  0.69350102502E+02  0.13788646887E+03  0.25487416616E+03  0.89412847378E+02 0.  0.
          5    1    1    2  502    0  0.13975671415E+03 -0.17402796335E+02  0.26966666091E+03  0.30425709010E+03  0.41800000000E+01 0. -1.
         -5    1    1    2    0  502  0.42298410156E+02 -0.51947306167E+02  0.27702222118E+02  0.72612420631E+02  0.41800000000E+01 0. -1.
        -11    1    3    3    0    0 -0.16772798351E+03  0.75834115892E+02  0.14798544239E+03  0.23618463275E+03  0.00000000000E+00 0.  1.
         11    1    3    3    0    0 -0.14327140799E+02 -0.64840133892E+01 -0.10098973524E+02  0.18689533417E+02  0.00000000000E+00 0. -1.
</event>
<event>
 7    1  0.4274778E-006  0.1253999E+03  0.7561462E-02  0.1234446E+00
          3   -1    0    0  501    0  0.00000000000E+00  0.00000000000E+00  0.33307834614E+03  0.33307834614E+03  0.00000000000E+00 0. -1.
         -3   -1    0    0    0  501 -0.00000000000E+00 -0.00000000000E+00 -0.58335146028E+02  0.58335146028E+02  0.00000000000E+00 0.  1.
         23    2    1    2    0    0 -0.40010374846E+02 -0.66766146874E+02  0.17024988459E+03  0.21079477449E+03  0.96906477001E+02 0.  0.
          5    1    1    2  502    0 -0.11579864982E+02  0.85820338243E+02  0.86832017586E+02  0.12270491191E+03  0.41800000000E+01 0.  1.
         -5    1    1    2    0  502  0.51590239828E+02 -0.19054191368E+02  0.17661297941E+02  0.57913805773E+02  0.41800000000E+01 0.  1.
        -11    1    3    3    0    0 -0.28167042002E+02 -0.83682441231E+02  0.83165917895E+02  0.12129593202E+03  0.00000000000E+00 0.  1.
         11    1    3    3    0    0 -0.11843332843E+02  0.16916294357E+02  0.87083966692E+02  0.89498842464E+02  0.00000000000E+00 0. -1.
</event>
<event>
 7    1  0.4274778E-006  0.1061535E+03  0.7561462E-02  0.1267864E+00
          2   -1    0    0  501    0  0.00000000000E+00  0.00000000000E+00  0.26470267054E+03  0.26470267054E+03  0.00000000000E+00 0. -1.
         -2   -1    0    0    0  501 -0.00000000000E+00 -0.00000000000E+00 -0.64005057632E+02  0.64005057632E+02  0.00000000000E+00 0.  1.
         23    2    1    2    0    0  0.52813843548E+02  0.25211469681E+02  0.14608979041E+03  0.18020153642E+03  0.87780673233E+02 0.  0.
          5    1    1    2  502    0 -0.78467583931E+02 -0.34526379898E+01  0.75220765402E+02  0.10883344332E+03  0.41800000000E+01 0.  1.
         -5    1    1    2    0  502  0.25653740383E+02 -0.21758831691E+02 -0.20612942909E+02  0.39672748425E+02  0.41800000000E+01 0.  1.
        -11    1    3    3    0    0  0.75065121355E+01  0.48316588936E+02  0.42436586966E+02  0.64743373438E+02  0.00000000000E+00 0.  1.
         11    1    3    3    0    0  0.45307331413E+02 -0.23105119255E+02  0.10365320345E+03  0.11545816299E+03  0.00000000000E+00 0. -1.
</event>
<event>
 7    1  0.4274778E-006  0.1189747E+03  0.7561462E-02  0.1244798E+00
         -1   -1    0    0    0  501 -0.00000000000E+00  0.00000000000E+00  0.11435428546E+03  0.11435428546E+03  0.00000000000E+00 0.  1.
          1   -1    0    0  501    0  0.00000000000E+00 -0.00000000000E+00 -0.14815364221E+03  0.14815364221E+03  0.00000000000E+00 0. -1.
         23    2    1    2    0    0 -0.67093570937E+02 -0.16866186451E+02 -0.30882879278E+02  0.11953061732E+03  0.92454317038E+02 0.  0.
          5    1    1    2  502    0  0.22440462349E+02  0.68026218720E+02  0.13445670094E+02  0.73002734388E+02  0.41800000000E+01 0.  1.
         -5    1    1    2    0  502  0.44653108588E+02 -0.51160032269E+02 -0.16362147563E+02  0.69974575963E+02  0.41800000000E+01 0.  1.
        -11    1    3    3    0    0 -0.21451928923E+02  0.27251800203E+02 -0.42648830050E+02  0.54970615545E+02  0.00000000000E+00 0. -1.
         11    1    3    3    0    0 -0.45641642014E+02 -0.44117986654E+02  0.11765950771E+02  0.64560001779E+02  0.00000000000E+00 0.  1.
</event>
<event>
 7    1  0.4274778E-006  0.9847213E+02  0.7561462E-02  0.1283542E+00
         -2   -1    0    0    0  501 -0.00000000000E+00  0.00000000000E+00  0.25891342185E+03  0.25891342185E+03  0.00000000000E+00 0.  1.
          2   -1    0    0  501    0  0.00000000000E+00 -0.00000000000E+00 -0.48373804659E+02  0.48373804659E+02  0.00000000000E+00 0. -1.
         23    2    1    2    0    0 -0.12085524858E+02 -0.27199955711E+02  0.65187401859E+02  0.11323090597E+03  0.87669511253E+02 0.  0.
          5    1    1    2  502    0  0.51504355296E+02  0.44784627187E+02  0.13203700302E+03  0.14869298576E+03  0.41800000000E+01 0. -1.
         -5    1    1    2    0  502 -0.39418830438E+02 -0.17584671476E+02  0.13315212313E+02  0.45363334786E+02  0.41800000000E+01 0. -1.
        -11    1    3    3    0    0 -0.26327103763E+02  0.21793850814E+02  0.48924654179E+02  0.59680064614E+02  0.00000000000E+00 0.  1.
         11    1    3    3    0    0  0.14241578904E+02 -0.48993806526E+02  0.16262747681E+02  0.53550841354E+02  0.00000000000E+00 0. -1.
</event>
<event>
 7    1  0.4274778E-006  0.1159644E+03  0.7561462E-02  0.1249907E+00
         -1   -1    0    0    0  501 -0.00000000000E+00  0.00000000000E+00  0.48899405361E+02  0.48899405361E+02  0.00000000000E+00 0.  1.
          1   -1    0    0  501    0  0.00000000000E+00 -0.00000000000E+00 -0.34715531122E+03  0.34715531122E+03  0.00000000000E+00 0. -1.
         23    2    1    2    0    0 -0.52592312415E+02 -0.23433611674E+02 -0.19811353954E+03  0.22578570798E+03  0.91733995301E+02 0.  0.
          5    1    1    2  502    0  0.70103655710E+02  0.58460183810E+02 -0.92746786147E+02  0.13019813507E+03  0.41800000000E+01 0. -1.
         -5    1    1    2    0  502 -0.17511343295E+02 -0.35026572136E+02 -0.73955801640E+01  0.40070873531E+02  0.41800000000E+01 0. -1.
        -11    1    3    3    0    0 -0.43361129345E+02  0.26215685998E+02 -0.13950189760E+03  0.14841909973E+03  0.00000000000E+00 0.  1.
         11    1    3    3    0    0 -0.92311830707E+01 -0.49649297672E+02 -0.58611641948E+02  0.77366608249E+02  0.00000000000E+00 0. -1.
</event>
<event>
 7    1  0.4274778E-006  0.1361806E+03  0.7561462E-02  0.1218563E+00
          1   -1    0    0  501    0  0.00000000000E+00  0.00000000000E+00  0.31351154173E+03  0.31351154173E+03  0.00000000000E+00 0. -1.
         -1   -1    0    0    0  501 -0.00000000000E+00 -0.00000000000E+00 -0.91393545065E+02  0.91393545065E+02  0.00000000000E+00 0.  1.
         23    2    1    2    0    0  0.12126341476E+03  0.39608922061E+02  0.12491002686E+03  0.20150835645E+03  0.93431367552E+02 0.  0.
          5    1    1    2  502    0 -0.77830633398E+02 -0.40588457315E+02  0.12415145049E+03  0.15210550753E+03  0.41800000000E+01 0.  1.
         -5    1    1    2    0  502 -0.43432781367E+02  0.97953525421E+00 -0.26943480682E+02  0.51291222816E+02  0.41800000000E+01 0.  1.
        -11    1    3    3    0    0  0.63876427661E+02 -0.10402641111E+02  0.12758488261E+02  0.65963565516E+02  0.00000000000E+00 0.  1.
         11    1    3    3    0    0  0.57386987104E+02  0.50011563172E+02  0.11215153860E+03  0.13554479094E+03  0.00000000000E+00 0. -1.
</event>
<event>
 7    1  0.4274778E-006  0.1037100E+03  0.7561462E-02  0.1272682E+00
         -2   -1    0    0    0  501 -0.00000000000E+00  0.00000000000E+00  0.18878236339E+03  0.18878236339E+03  0.00000000000E+00 0. -1.
          2   -1    0    0  501    0  0.00000000000E+00 -0.00000000000E+00 -0.94915433179E+02  0.94915433179E+02  0.00000000000E+00 0.  1.
         23    2    1    2    0    0 -0.44419061047E+02  0.29625863585E+01 -0.21496846957E+02  0.10780477127E+03  0.95801484208E+02 0.  0.
          5    1    1    2  502    0 -0.18193485584E+02  0.33717292038E+02 -0.11602221853E+01  0.38557453437E+02  0.41800000000E+01 0. -1.
         -5    1    1    2    0  502  0.62612546631E+02 -0.36679878396E+02  0.11652399936E+03  0.13733557187E+03  0.41800000000E+01 0. -1.
        -11    1    3    3    0    0  0.21068703856E+02 -0.17707702071E+02  0.13582972584E+02  0.30691206216E+02  0.00000000000E+00 0. -1.
         11    1    3    3    0    0 -0.65487764903E+02  0.20670288429E+02 -0.35079819541E+02  0.77113565050E+02  0.00000000000E+00 0.  1.
</event>
<event>
 7    1  0.4274778E-006  0.1248918E+03  0.7561462E-02  0.1235238E+00
          2   -1    0    0  501    0  0.00000000000E+00  0.00000000000E+00  0.31878803149E+03  0.31878803149E+03  0.00000000000E+00 0. -1.
         -2   -1    0    0    0  501 -0.00000000000E+00 -0.00000000000E+00 -0.60880377199E+02  0.60880377199E+02  0.00000000000E+00 0.  1.
         23    2    1    2    0    0  0.79930730422E+02  0.53385451475E+01  0.16427932117E+03  0.20407973031E+03  0.90793277438E+02 0.  0.
          5    1    1    2  502    0 -0.12938966934E+02 -0.52897759519E+02  0.52810980448E+01  0.54872144336E+02  0.41800000000E+01 0.  1.
         -5    1    1    2    0  502 -0.66991763488E+02  0.47559214372E+02  0.88347235082E+02  0.12071653405E+03  0.41800000000E+01 0.  1.
        -11    1    3    3    0    0  0.25951157475E+02 -0.36375501168E+02  0.31088604837E+02  0.54434740839E+02  0.00000000000E+00 0.  1.
         11    1    3    3    0    0  0.53979572946E+02  0.41714046315E+02  0.13319071633E+03  0.14964498947E+03  0.00000000000E+00 0. -1.
</event>
<event>
 7    1  0.4274778E-006  0.1005754E+03  0.7561462E-02  0.1279091E+00
         -1   -1    0    0    0  501 -0.00000000000E+00  0.00000000000E+00  0.14634077907E+03  0.14634077907E+03  0.00000000000E+00 0.  1.
          1   -1    0    0  501    0  0.00000000000E+00 -0.00000000000E+00 -0.40874587163E+03  0.40874587163E+03  0.00000000000E+00 0. -1.
         23    2    1    2    0    0 -0.73155070670E+02  0.17304229779E+02 -0.28299917963E+03  0.30689069583E+03  0.91881786998E+02 0.  0.
          5    1    1    2  502    0 -0.69813797307E+01 -0.64004557918E+01 -0.10131364520E+03  0.10184121269E+03  0.41800000000E+01 0. -1.
         -5    1    1    2    0  502  0.80136450401E+02 -0.10903773987E+02  0.12190773228E+03  0.14635474218E+03  0.41800000000E+01 0.  1.
        -11    1    3    3    0    0 -0.31714658959E+01  0.36982087640E+02 -0.15788435862E+03  0.16218879030E+03  0.00000000000E+00 0. -1.
         11    1    3    3    0    0 -0.69983604774E+02 -0.19677857861E+02 -0.12511482101E+03  0.14470190553E+03  0.00000000000E+00 0.  1.
</event>
<event>
 7    1  0.4274778E-006  0.8463396E+02  0.7561462E-02  0.1316393E+00
         -1   -1    0    0    0  501 -0.00000000000E+00  0.00000000000E+00  0.53749565843E+03  0.53749565843E+03  0.00000000000E+00 0.  1.
          1   -1    0    0  501    0  0.00000000000E+00 -0.00000000000E+00 -0.24286495633E+02  0.24286495633E+02  0.00000000000E+00 0. -1.
         23    2    1    2    0    0 -0.12405445614E+02 -0.28458504891E+02  0.15771352998E+03  0.18364418608E+03  0.88813557306E+02 0.  0.
          5    1    1    2  502    0 -0.22356156885E+02 -0.18955346864E+02  0.16176699251E+02  0.33738122711E+02  0.41800000000E+01 0. -1.
         -5    1    1    2    0  502  0.34761602498E+02  0.47413851755E+02  0.33931893356E+03  0.34439984527E+03  0.41800000000E+01 0. -1.
        -11    1    3    3    0    0  0.25484882149E+02 -0.33932862296E+02  0.34721434383E+02  0.54831527130E+02  0.00000000000E+00 0. -1.
         11    1    3    3    0    0 -0.37890327763E+02  0.54743574055E+01  0.12299209560E+03  0.12881265895E+03  0.00000000000E+00 0.  1.
</event>
<event>
 7    1  0.4274778E-006  0.1418866E+03  0.7561462E-02  0.1210813E+00
          1   -1    0    0  501    0  0.00000000000E+00  0.00000000000E+00  0.81795554399E+03  0.81795554399E+03  0.00000000000E+00 0. -1.
         -1   -1    0    0    0  501 -0.00000000000E+00 -0.00000000000E+00 -0.43521746832E+02  0.43521746832E+02  0.00000000000E+00 0.  1.
         23    2    1    2    0    0  0.62326871783E+02  0.99922082935E+02  0.59197055971E+03  0.61086073835E+03  0.94088450392E+02 0.  0.
          5    1    1    2  502    0  0.13523118033E+02 -0.27043352071E+02  0.12897192453E+03  0.13253470236E+03  0.41800000000E+01 0.  1.
         -5    1    1    2    0  502 -0.75849989817E+02 -0.72878730864E+02  0.53491312923E+02  0.11808185011E+03  0.41800000000E+01 0.  1.
        -11    1    3    3    0    0  0.84132495907E+01  0.93278499928E+02  0.42796110535E+03  0.43808945320E+03  0.00000000000E+00 0.  1.
         11    1    3    3    0    0  0.53913622193E+02  0.66435830067E+01  0.16400945436E+03  0.17277128515E+03  0.00000000000E+00 0. -1.
</event>
<event>
 7    1  0.4274778E-006  0.1240981E+03  0.7561462E-02  0.1236486E+00
         -4   -1    0    0    0  501 -0.00000000000E+00  0.00000000000E+00  0.50524794701E+03  0.50524794701E+03  0.00000000000E+00 0.  1.
          4   -1    0    0  501    0  0.00000000000E+00 -0.00000000000E+00 -0.35532799891E+02  0.35532799891E+02  0.00000000000E+00 0. -1.
         23    2    1    2    0    0  0.47169479052E+02  0.62027483513E+02  0.18234261405E+03  0.21780856389E+03  0.90107564287E+02 0.  0.
          5    1    1    2  502    0  0.94092625744E+00 -0.79609111257E+02  0.95840372131E+02  0.12466493199E+03  0.41800000000E+01 0. -1.
         -5    1    1    2    0  502 -0.48110405309E+02  0.17581627744E+02  0.19153216094E+03  0.19830725102E+03  0.41800000000E+01 0. -1.
        -11    1    3    3    0    0 -0.71685402524E+01 -0.18552934396E+02  0.17724675599E+02  0.26641386397E+02  0.00000000000E+00 0.  1.
         11    1    3    3    0    0  0.54338019304E+02  0.80580417909E+02  0.16461793845E+03  0.19116717749E+03  0.00000000000E+00 0. -1.
</event>
<event>
 7    1  0.4274778E-006  0.1212397E+03  0.7561462E-02  0.1241066E+00
          1   -1    0    0  501    0  0.00000000000E+00  0.00000000000E+00  0.69366982639E+03  0.69366982639E+03  0.00000000000E+00 0. -1.
         -1   -1    0    0    0  501 -0.00000000000E+00 -0.00000000000E+00 -0.25069944738E+02  0.25069944738E+02  0.00000000000E+00 0.  1.
         23    2    1    2    0    0  0.12787673922E+02  0.49242520523E+02  0.44146034396E+03  0.45449045326E+03  0.95320440514E+02 0.  0.
          5    1    1    2  502    0 -0.28085575234E+02 -0.88361311351E+02  0.15797978930E+03  0.18322556346E+03  0.41800000000E+01 0.  1.
         -5    1    1    2    0  502  0.15297901312E+02  0.39118790828E+02  0.69159748396E+02  0.81023754409E+02  0.41800000000E+01 0.  1.
        -11    1    3    3    0    0 -0.35371815062E+02 -0.40788061349E+01  0.12472975061E+03  0.12971242287E+03  0.00000000000E+00 0.  1.
         11    1    3    3    0    0  0.48159488984E+02  0.53321326658E+02  0.31673059335E+03  0.32477803039E+03  0.00000000000E+00 0. -1.
</event>
<event>
 7    1  0.4274778E-006  0.2415192E+03  0.7561462E-02  0.1118785E+00
         -2   -1    0    0    0  501 -0.00000000000E+00  0.00000000000E+00  0.14870110758E+03  0.14870110758E+03  0.00000000000E+00 0.  1.
          2   -1    0    0  501    0  0.00000000000E+00 -0.00000000000E+00 -0.44424716311E+03  0.44424716311E+03  0.00000000000E+00 0. -1.
         23    2    1    2    0    0 -0.16302624439E+02 -0.22634721488E+03 -0.83594779331E+02  0.25818083290E+03  0.90390365086E+02 0.  0.
          5    1    1    2  502    0  0.32333445280E+02  0.11150335875E+02 -0.33766855725E+01  0.34621612892E+02  0.41800000000E+01 0. -1.
         -5    1    1    2    0  502 -0.16030820841E+02  0.21519687900E+03 -0.20857459062E+03  0.30014582490E+03  0.41800000000E+01 0. -1.
        -11    1    3    3    0    0 -0.35178763332E+02 -0.15549556580E+03 -0.19166777026E+02  0.16057329079E+03  0.00000000000E+00 0.  1.
         11    1    3    3    0    0  0.18876138893E+02 -0.70851649075E+02 -0.64428002304E+02  0.97607542112E+02  0.00000000000E+00 0. -1.
</event>
<event>
 7    1  0.4274778E-006  0.1521175E+03  0.7561462E-02  0.1197895E+00
          1   -1    0    0  501    0  0.00000000000E+00  0.00000000000E+00  0.57712143179E+03  0.57712143179E+03  0.00000000000E+00 0. -1.
         -1   -1    0    0    0  501 -0.00000000000E+00 -0.00000000000E+00 -0.42287393793E+02  0.42287393793E+02  0.00000000000E+00 0.  1.
         23    2    1    2    0    0 -0.36242206142E+02  0.10582614260E+03  0.25357417218E+03  0.29189105028E+03  0.91585230653E+02 0.  0.
          5    1    1    2  502    0  0.67180708660E+01  0.24808863606E+02  0.16629501861E+02  0.30897005061E+02  0.41800000000E+01 0.  1.
         -5    1    1    2    0  502  0.29524135276E+02 -0.13063500621E+03  0.26463036396E+03  0.29662077024E+03  0.41800000000E+01 0.  1.
        -11    1    3    3    0    0 -0.62977259848E+02  0.43954868630E+02  0.14542447431E+03  0.16445802949E+03  0.00000000000E+00 0. -1.
         11    1    3    3    0    0  0.26735053706E+02  0.61871273970E+02  0.10814969786E+03  0.12743302079E+03  0.00000000000E+00 0.  1.
</event>
<event>
 7    1  0.4274778E-006  0.9235653E+02  0.7561462E-02  0.1297243E+00
         -3   -1    0    0    0  501 -0.00000000000E+00  0.00000000000E+00  0.47023556645E+03  0.47023556645E+03  0.00000000000E+00 0.  1.
          3   -1    0    0  501    0  0.00000000000E+00 -0.00000000000E+00 -0.28294107854E+02  0.28294107854E+02  0.00000000000E+00 0. -1.
         23    2    1    2    0    0  0.27446220772E+02 -0.40848313397E+01  0.14088875883E+03  0.17134511351E+03  0.93485424943E+02 0.  0.
          5    1    1    2  502    0  0.35038113899E+02  0.30590616897E+02  0.56234956966E+02  0.73097866267E+02  0.41800000000E+01 0. -1.
         -5    1    1    2    0  502 -0.62484334671E+02 -0.26505785558E+02  0.24481774279E+03  0.25408669452E+03  0.41800000000E+01 0. -1.
        -11    1    3    3    0    0  0.17521110557E+02  0.29872782018E+02  0.12969338855E+03  0.13423765289E+03  0.00000000000E+00 0.  1.
         11    1    3    3    0    0  0.99251102157E+01 -0.33957613358E+02  0.11195370284E+02  0.37107460619E+02  0.00000000000E+00 0. -1.
</event>
<event>
 7    1  0.4274778E-006  0.1980685E+03  0.7561462E-02  0.1151379E+00
          2   -1    0    0  501    0  0.00000000000E+00  0.00000000000E+00  0.95241141089E+03  0.95241141089E+03  0.00000000000E+00 0. -1.
         -2   -1    0    0    0  501 -0.00000000000E+00 -0.00000000000E+00 -0.49540852021E+02  0.49540852021E+02  0.00000000000E+00 0.  1.
         23    2    1    2    0    0 -0.17189229854E+03 -0.65329427493E+02  0.52369332649E+03  0.56236331825E+03  0.90459411421E+02 0.  0.
          5    1    1    2  502    0  0.15777982085E+03  0.13585632027E+02  0.21665872255E+03  0.26839805462E+03  0.41800000000E+01 0. -1.
         -5    1    1    2    0  502  0.14112477686E+02  0.51743795466E+02  0.16251850983E+03  0.17119089004E+03  0.41800000000E+01 0. -1.
        -11    1    3    3    0    0 -0.93691582351E+02 -0.37475018995E+02  0.15881806570E+03  0.18816393822E+03  0.00000000000E+00 0.  1.
         11    1    3    3    0    0 -0.78200716186E+02 -0.27854408498E+02  0.36487526079E+03  0.37419938004E+03  0.00000000000E+00 0. -1.
</event>
<event>
 7    1  0.4274778E-006  0.8500430E+02  0.7561462E-02  0.1315421E+00
         -1   -1    0    0    0  501 -0.00000000000E+00  0.00000000000E+00  0.48314556817E+03  0.48314556817E+03  0.00000000000E+00 0.  1.
          1   -1    0    0  501    0  0.00000000000E+00 -0.00000000000E+00 -0.38983020791E+02  0.38983020791E+02  0.00000000000E+00 0. -1.
         23    2    1    2    0    0 -0.52243080912E+02 -0.18014472543E+02  0.79639668416E+02  0.13279680998E+03  0.90767038240E+02 0.  0.
          5    1    1    2  502    0  0.25268801804E+02  0.45220541187E+02  0.33933535194E+03  0.34329195033E+03  0.41800000000E+01 0.  1.
         -5    1    1    2    0  502  0.26974279108E+02 -0.27206068644E+02  0.25187527030E+02  0.46039828652E+02  0.41800000000E+01 0.  1.
        -11    1    3    3    0    0 -0.50715481384E+01 -0.30326609317E+02  0.78195514240E+02  0.84023581693E+02  0.00000000000E+00 0.  1.
         11    1    3    3    0    0 -0.47171532773E+02  0.12312136774E+02  0.14441541761E+01  0.48773228286E+02  0.00000000000E+00 0. -1.
</event>
<event>
 7    1  0.4274778E-006  0.9362058E+02  0.7561462E-02  0.1294313E+00
         -1   -1    0    0    0  501 -0.00000000000E+00  0.00000000000E+00  0.16565513595E+03  0.16565513595E+03  0.00000000000E+00 0.  1.
          1   -1    0    0  501    0  0.00000000000E+00 -0.00000000000E+00 -0.95046158051E+02  0.95046158051E+02  0.00000000000E+00 0. -1.
         23    2    1    2    0    0  0.32448429762E+02 -0.15388785653E+02 -0.22268762627E+02  0.10081419035E+03  0.91530802848E+02 0.  0.
          5    1    1    2  502    0  0.33479132410E+02  0.24264157611E+02  0.82573750336E+02  0.92441864412E+02  0.41800000000E+01 0.  1.
         -5    1    1    2    0  502 -0.65927562171E+02 -0.88753719581E+01  0.10303990187E+02  0.67445239232E+02  0.41800000000E+01 0.  1.
        -11    1    3    3    0    0  0.46189272115E+02 -0.32945532387E+02  0.13820334171E+02  0.58393994549E+02  0.00000000000E+00 0.  1.
         11    1    3    3    0    0 -0.13740842354E+02  0.17556746734E+02 -0.36089096798E+02  0.42420195805E+02  0.00000000000E+00 0. -1.
</event>
<event>
 7    1  0.4274778E-006  0.1076821E+03  0.7561462E-02  0.1264924E+00
         -1   -1    0    0    0  501 -0.00000000000E+00  0.00000000000E+00  0.43588777409E+02  0.43588777409E+02  0.00000000000E+00 0.  1.
          1   -1    0    0  501    0  0.00000000000E+00 -0.00000000000E+00 -0.43482313002E+03  0.43482313002E+03  0.00000000000E+00 0. -1.
         23    2    1    2    0    0 -0.30492402603E+00 -0.52141782339E+02 -0.29282119614E+03  0.31092639684E+03  0.90620709001E+02 0.  0.
          5    1    1    2  502    0 -0.51605669465E+02  0.33051640520E+02 -0.93405413933E+02  0.11179266440E+03  0.41800000000E+01 0. -1.
         -5    1    1    2    0  502  0.51910593491E+02  0.19090141819E+02 -0.50077425409E+01  0.55692846189E+02  0.41800000000E+01 0. -1.
        -11    1    3    3    0    0 -0.41786398754E+02 -0.30093415176E+02 -0.20456032698E+03  0.21094227678E+03  0.00000000000E+00 0. -1.
         11    1    3    3    0    0  0.41481474728E+02 -0.22048367163E+02 -0.88260869158E+02  0.99984120063E+02  0.00000000000E+00 0.  1.
</event>
<event>
 7    1  0.4274778E-006  0.1837830E+03  0.7561462E-02  0.1164191E+00
         -1   -1    0    0    0  501 -0.00000000000E+00  0.00000000000E+00  0.10514383506E+04  0.10514383506E+04  0.00000000000E+00 0.  1.
          1   -1    0    0  501    0  0.00000000000E+00 -0.00000000000E+00 -0.42370014510E+02  0.42370014510E+02  0.00000000000E+00 0. -1.
         23    2    1    2    0    0  0.15663937503E+03 -0.80177536862E+02  0.37547207300E+03  0.42443838711E+03  0.90577787693E+02 0.  0.
          5    1    1    2  502    0 -0.11102543968E+03  0.18782195786E+02  0.20448859716E+03  0.23347907381E+03  0.41800000000E+01 0.  1.
         -5    1    1    2    0  502 -0.45613935344E+02  0.61395341076E+02  0.42910766588E+03  0.43589090415E+03  0.41800000000E+01 0.  1.
        -11    1    3    3    0    0  0.43100752754E+02 -0.82551326968E+01  0.19231991098E+03  0.19726320047E+03  0.00000000000E+00 0. -1.
         11    1    3    3    0    0  0.11353862227E+03 -0.71922404165E+02  0.18315216202E+03  0.22717518663E+03  0.00000000000E+00 0.  1.
</event>
<event>
 7    1  0.4274778E-006  0.8602264E+02  0.7561462E-02  0.1312780E+00
         -2   -1    0    0    0  501 -0.00000000000E+00  0.00000000000E+00  0.22487792106E+03  0.22487792106E+03  0.00000000000E+00 0. -1.
          2   -1    0    0  501    0  0.00000000000E+00 -0.00000000000E+00 -0.64205128269E+02  0.64205128269E+02  0.00000000000E+00 0.  1.
         23    2    1    2    0    0  0.44272178511E+02 -0.14989211444E+02  0.43505356810E+02  0.11142815072E+03  0.91317109312E+02 0.  0.
          5    1    1    2  502    0 -0.74194308861E+02  0.26240632847E+02  0.12181157244E+03  0.14508238301E+03  0.41800000000E+01 0.  1.
         -5    1    1    2    0  502  0.29922130350E+02 -0.11251421403E+02 -0.46441364643E+01  0.32572515589E+02  0.41800000000E+01 0.  1.
        -11    1    3    3    0    0  0.45499118997E+02  0.45737680920E+00  0.68372105329E+02  0.82128702718E+02  0.00000000000E+00 0. -1.
         11    1    3    3    0    0 -0.12269404857E+01 -0.15446588253E+02 -0.24866748519E+02  0.29299448007E+02  0.00000000000E+00 0.  1.
</event>
<event>
 7    1  0.4274778E-006  0.9739194E+02  0.7561462E-02  0.1285878E+00
          1   -1    0    0  501    0  0.00000000000E+00  0.00000000000E+00  0.30664777029E+02  0.30664777029E+02  0.00000000000E+00 0. -1.
         -1   -1    0    0    0  501 -0.00000000000E+00 -0.00000000000E+00 -0.58297472164E+03  0.58297472164E+03  0.00000000000E+00 0.  1.
         23    2    1    2    0    0  0.68145554696E+00  0.12141907448E+02 -0.60747511229E+02  0.10626478593E+03  0.86336865300E+02 0.  0.
          5    1    1    2  502    0  0.18178755767E+02  0.49079818875E+02 -0.31830162789E+03  0.32260299828E+03  0.41800000000E+01 0.  1.
         -5    1    1    2    0  502 -0.18860211314E+02 -0.61221726323E+02 -0.17326080549E+03  0.18477171446E+03  0.41800000000E+01 0.  1.
        -11    1    3    3    0    0 -0.37383466253E+02 -0.20935145779E+01 -0.57496325801E+01  0.37880926958E+02  0.00000000000E+00 0. -1.
         11    1    3    3    0    0  0.38064921800E+02  0.14235422026E+02 -0.54997878649E+02  0.68383858971E+02  0.00000000000E+00 0.  1.
</event>
<event>
 7    1  0.4375465E-006  0.1788674E+03  0.7561462E-02  0.1168904E+00
         -2   -1    0    0    0  501 -0.00000000000E+00  0.00000000000E+00  0.54858205984E+02  0.54858205984E+02  0.00000000000E+00 0.  1.
          2   -1    0    0  501    0  0.00000000000E+00 -0.00000000000E+00 -0.70614430589E+03  0.70614430589E+03  0.00000000000E+00 0. -1.
         23    2    1    2    0    0 -0.11390577665E+03 -0.11524717331E+03 -0.36724698857E+03  0.41088510706E+03  0.87748411260E+02 0.  0.
          5    1    1    2  502    0  0.68760459949E+02 -0.22599497833E+01 -0.15583007749E+03  0.17039246954E+03  0.41800000000E+01 0.  1.
         -5    1    1    2    0  502  0.45145316705E+02  0.11750712310E+03 -0.12820903384E+03  0.17972493527E+03  0.41800000000E+01 0.  1.
        -11    1    3    3    0    0 -0.28535482540E+02 -0.39504312791E+02 -0.36168381613E+02  0.60687859753E+02  0.00000000000E+00 0.  1.
         11    1    3    3    0    0 -0.85370294113E+02 -0.75742860522E+02 -0.33107860696E+03  0.35019724731E+03  0.00000000000E+00 0. -1.
</event>
<event>
 7    1  0.4274778E-006  0.1243135E+03  0.7561462E-02  0.1236146E+00
          1   -1    0    0  501    0  0.00000000000E+00  0.00000000000E+00  0.93871636200E+03  0.93871636200E+03  0.00000000000E+00 0. -1.
         -1   -1    0    0    0  501 -0.00000000000E+00 -0.00000000000E+00 -0.19514901667E+02  0.19514901667E+02  0.00000000000E+00 0.  1.
         23    2    1    2    0    0  0.35285787619E+02  0.63430074460E+02  0.29405005099E+03  0.31657051780E+03  0.92103198078E+02 0.  0.
          5    1    1    2  502    0 -0.73024805674E+02 -0.62191227955E+02  0.53929933822E+03  0.54777880543E+03  0.41800000000E+01 0. -1.
         -5    1    1    2    0  502  0.37739018055E+02 -0.12388465053E+01  0.85852071128E+02  0.93881940444E+02  0.41800000000E+01 0. -1.
        -11    1    3    3    0    0  0.22544736841E+02 -0.20055985615E+02  0.11010525502E+03  0.11416512121E+03  0.00000000000E+00 0. -1.
         11    1    3    3    0    0  0.12741050778E+02  0.83486060076E+02  0.18394479597E+03  0.20240539659E+03  0.00000000000E+00 0.  1.
</event>
<event>
 7    1  0.4274778E-006  0.1557235E+03  0.7561462E-02  0.1193611E+00
         -2   -1    0    0    0  501 -0.00000000000E+00  0.00000000000E+00  0.30439896608E+02  0.30439896608E+02  0.00000000000E+00 0.  1.
          2   -1    0    0  501    0  0.00000000000E+00 -0.00000000000E+00 -0.97059915862E+03  0.97059915862E+03  0.00000000000E+00 0. -1.
         23    2    1    2    0    0  0.11189046698E+03 -0.59422447746E+02 -0.50685405562E+03  0.53257830422E+03  0.10338332811E+03 0.  0.
          5    1    1    2  502    0 -0.11949145212E+03  0.11793378526E+02 -0.36834999631E+03  0.38744868446E+03  0.41800000000E+01 0.  1.
         -5    1    1    2    0  502  0.76009851424E+01  0.47629069219E+02 -0.64955210079E+02  0.81012066547E+02  0.41800000000E+01 0.  1.
        -11    1    3    3    0    0  0.67856283267E+02  0.13154329764E+01 -0.11439159526E+03  0.13300993425E+03  0.00000000000E+00 0.  1.
         11    1    3    3    0    0  0.44034183712E+02 -0.60737880722E+02 -0.39246246036E+03  0.39956836997E+03  0.00000000000E+00 0. -1.
</event>
<event>
 7    1  0.4274778E-006  0.1916441E+03  0.7561462E-02  0.1156987E+00
         -1   -1    0    0    0  501 -0.00000000000E+00  0.00000000000E+00  0.11365249818E+03  0.11365249818E+03  0.00000000000E+00 0.  1.
          1   -1    0    0  501    0  0.00000000000E+00 -0.00000000000E+00 -0.34995137229E+03  0.34995137229E+03  0.00000000000E+00 0. -1.
         23    2    1    2    0    0  0.14573576217E+03 -0.61898138852E+02 -0.17445700204E+03  0.25255434530E+03  0.90984393175E+02 0.  0.
          5    1    1    2  502    0 -0.62869171008E+02  0.93148574813E+02 -0.43064823691E+02  0.12042109903E+03  0.41800000000E+01 0.  1.
         -5    1    1    2    0  502 -0.82866591159E+02 -0.31250435960E+02 -0.18777048376E+02  0.90628426135E+02  0.41800000000E+01 0.  1.
        -11    1    3    3    0    0  0.62395088237E+02 -0.75263016187E+02 -0.10239734626E+03  0.14157289700E+03  0.00000000000E+00 0. -1.
         11    1    3    3    0    0  0.83340673930E+02  0.13364877335E+02 -0.72059655779E+02  0.11098144831E+03  0.00000000000E+00 0.  1.
</event>
<event>
 7    1  0.4274778E-006  0.8647389E+02  0.7561462E-02  0.1311623E+00
         -1   -1    0    0    0  501 -0.00000000000E+00  0.00000000000E+00  0.24262203783E+02  0.24262203783E+02  0.00000000000E+00 0.  1.
          1   -1    0    0  501    0  0.00000000000E+00 -0.00000000000E+00 -0.54985767890E+03  0.54985767890E+03  0.00000000000E+00 0. -1.
         23    2    1    2    0    0  0.25271433832E+01 -0.29915621876E+02 -0.29081172795E+03  0.30635846927E+03  0.91557193568E+02 0.  0.
          5    1    1    2  502    0 -0.28192480748E+02 -0.11422614302E+02 -0.21139435334E+03  0.21361258650E+03  0.41800000000E+01 0.  1.
         -5    1    1    2    0  502  0.25665337365E+02  0.41338236178E+02 -0.23389393827E+02  0.54148826912E+02  0.41800000000E+01 0.  1.
        -11    1    3    3    0    0 -0.21908626187E+02  0.25035013480E+02 -0.69990994043E+02  0.77495025960E+02  0.00000000000E+00 0.  1.
         11    1    3    3    0    0  0.24435769571E+02 -0.54950635356E+02 -0.22082073391E+03  0.22886344331E+03  0.00000000000E+00 0. -1.
</event>
<event>
 7    1  0.4274778E-006  0.1089645E+03  0.7561462E-02  0.1262499E+00
         -1   -1    0    0    0  501 -0.00000000000E+00  0.00000000000E+00  0.14634878829E+03  0.14634878829E+03  0.00000000000E+00 0.  1.
          1   -1    0    0  501    0  0.00000000000E+00 -0.00000000000E+00 -0.12372167143E+03  0.12372167143E+03  0.00000000000E+00 0. -1.
         23    2    1    2    0    0  0.69033014286E+02 -0.15078657561E+02 -0.25935488959E+02  0.11841613716E+03  0.91415583883E+02 0.  0.
          5    1    1    2  502    0 -0.64469818413E+01 -0.51547605493E+02  0.15809635540E+02  0.54462245480E+02  0.41800000000E+01 0. -1.
         -5    1    1    2    0  502 -0.62586032444E+02  0.66626263054E+02  0.32752970278E+02  0.97192077083E+02  0.41800000000E+01 0. -1.
        -11    1    3    3    0    0  0.12007514285E+02 -0.12333701332E+02 -0.52643523786E+02  0.55386290582E+02  0.00000000000E+00 0. -1.
         11    1    3    3    0    0  0.57025500001E+02 -0.27449562294E+01  0.26708034827E+02  0.63029846576E+02  0.00000000000E+00 0.  1.
</event>
<event>
 7    1  0.4274778E-006  0.1673662E+03  0.7561462E-02  0.1180623E+00
          2   -1    0    0  501    0  0.00000000000E+00  0.00000000000E+00  0.51257663803E+03  0.51257663803E+03  0.00000000000E+00 0. -1.
         -2   -1    0    0    0  501 -0.00000000000E+00 -0.00000000000E+00 -0.68865849573E+02  0.68865849573E+02  0.00000000000E+00 0.  1.
         23    2    1    2    0    0 -0.73479218819E+02  0.13381173933E+03  0.23288705709E+03  0.29316756180E+03  0.91684572040E+02 0.  0.
          5    1    1    2  502    0  0.70057496197E+01  0.70338908885E+01  0.91236748713E+02  0.91870413434E+02  0.41800000000E+01 0. -1.
         -5    1    1    2    0  502  0.66473469199E+02 -0.14084563022E+03  0.11958698265E+03  0.19640451237E+03  0.41800000000E+01 0.  1.
        -11    1    3    3    0    0 -0.38772752312E+02  0.10659385668E+02  0.20297119757E+02  0.45043555533E+02  0.00000000000E+00 0.  1.
         11    1    3    3    0    0 -0.34706466507E+02  0.12315235366E+03  0.21258993733E+03  0.24812400626E+03  0.00000000000E+00 0. -1.
</event>
<event>
 7    1  0.4274778E-006  0.1390012E+03  0.7561462E-02  0.1214679E+00
         -2   -1    0    0    0  501 -0.00000000000E+00  0.00000000000E+00  0.17140862695E+03  0.17140862695E+03  0.00000000000E+00 0.  1.
          2   -1    0    0  501    0  0.00000000000E+00 -0.00000000000E+00 -0.14230871022E+03  0.14230871022E+03  0.00000000000E+00 0. -1.
         23    2    1    2    0    0 -0.52938514539E+02  0.98328882716E+02 -0.13859640515E+01  0.14328207211E+03  0.89759544308E+02 0.  0.
          5    1    1    2  502    0  0.45681410365E+02  0.18307988182E+02 -0.75632583572E+00  0.49396539484E+02  0.41800000000E+01 0. -1.
         -5    1    1    2    0  502  0.72571041735E+01 -0.11663687090E+03  0.31242206624E+02  0.12103872557E+03  0.41800000000E+01 0. -1.
        -11    1    3    3    0    0 -0.31886711918E+02  0.58852707469E+02 -0.45116270493E+02  0.80721009883E+02  0.00000000000E+00 0.  1.
         11    1    3    3    0    0 -0.21051802621E+02  0.39476175247E+02  0.43730306441E+02  0.62561062229E+02  0.00000000000E+00 0. -1.
</event>
<event>
 7    1  0.4274778E-006  0.8792479E+02  0.7561462E-02  0.1307956E+00
         -3   -1    0    0    0  501 -0.00000000000E+00  0.00000000000E+00  0.76276522178E+03  0.76276522178E+03  0.00000000000E+00 0. -1.
          3   -1    0    0  501    0  0.00000000000E+00 -0.00000000000E+00 -0.17118296724E+02  0.17118296724E+02  0.00000000000E+00 0.  1.
         23    2    1    2    0    0 -0.23122042061E+02 -0.16288735935E+01  0.22730721725E+03  0.24615943579E+03  0.91589381251E+02 0.  0.
          5    1    1    2  502    0  0.40379760601E+02 -0.44629054517E+02  0.41216288362E+03  0.41655490948E+03  0.41800000000E+01 0. -1.
         -5    1    1    2    0  502 -0.17257718540E+02  0.46257928111E+02  0.10617682418E+03  0.11716917323E+03  0.41800000000E+01 0. -1.
        -11    1    3    3    0    0 -0.57690083798E+01  0.29646897517E+02  0.21027628568E+02  0.36801917793E+02  0.00000000000E+00 0.  1.
         11    1    3    3    0    0 -0.17353033681E+02 -0.31275771110E+02  0.20627958868E+03  0.20935751800E+03  0.00000000000E+00 0. -1.
</event>
<event>
 7    1  0.4274778E-006  0.7678371E+02  0.7561462E-02  0.1338435E+00
          1   -1    0    0  501    0  0.00000000000E+00  0.00000000000E+00  0.24062137933E+03  0.24062137933E+03  0.00000000000E+00 0. -1.
         -1   -1    0    0    0  501 -0.00000000000E+00 -0.00000000000E+00 -0.59857309479E+02  0.59857309479E+02  0.00000000000E+00 0.  1.
         23    2    1    2    0    0  0.34831787676E+02 -0.82463291429E+01  0.12467813913E+03  0.15879280307E+03  0.91592906680E+02 0.  0.
          5    1    1    2  502    0 -0.56596804574E+02 -0.35031039977E+01 -0.21006301728E+02  0.60615238496E+02  0.41800000000E+01 0.  1.
         -5    1    1    2    0  502  0.21765016898E+02  0.11749433141E+02  0.77092232449E+02  0.81070647239E+02  0.41800000000E+01 0.  1.
        -11    1    3    3    0    0  0.15011116386E+01 -0.31147592016E+02  0.39030000806E+01  0.31427046221E+02  0.00000000000E+00 0.  1.
         11    1    3    3    0    0  0.33330676038E+02  0.22901262873E+02  0.12077513905E+03  0.12736575685E+03  0.00000000000E+00 0. -1.
</event>
<event>
 7    1  0.4274778E-006  0.7933525E+02  0.7561462E-02  0.1330949E+00
         -2   -1    0    0    0  501 -0.00000000000E+00  0.00000000000E+00  0.27472204373E+03  0.27472204373E+03  0.00000000000E+00 0.  1.
          2   -1    0    0  501    0  0.00000000000E+00 -0.00000000000E+00 -0.42621100294E+02  0.42621100294E+02  0.00000000000E+00 0. -1.
         23    2    1    2    0    0  0.62258032598E+01 -0.92802471778E+01  0.10001550821E+03  0.13508134887E+03  0.90105412243E+02 0.  0.
          5    1    1    2  502    0  0.51692461075E+02 -0.55243039646E+01  0.10343235980E+03  0.11583761876E+03  0.41800000000E+01 0. -1.
         -5    1    1    2    0  502 -0.57918264334E+02  0.14804551142E+02  0.28653075419E+02  0.66424176390E+02  0.41800000000E+01 0. -1.
        -11    1    3    3    0    0 -0.19436362854E+02 -0.76100359049E+01  0.10652751964E+03  0.10855320027E+03  0.00000000000E+00 0.  1.
         11    1    3    3    0    0  0.25662166113E+02 -0.16702112729E+01 -0.65120114306E+01  0.26528148601E+02  0.00000000000E+00 0. -1.
</event>
<event>
 7    1  0.4274778E-006  0.2563568E+03  0.7561462E-02  0.1109352E+00
         -1   -1    0    0    0  501 -0.00000000000E+00  0.00000000000E+00  0.14041202741E+04  0.14041202741E+04  0.00000000000E+00 0.  1.
          1   -1    0    0  501    0  0.00000000000E+00 -0.00000000000E+00 -0.49384178174E+02  0.49384178174E+02  0.00000000000E+00 0. -1.
         23    2    1    2    0    0  0.21495340513E+03  0.10128239207E+03  0.56713586160E+03  0.62138419705E+03  0.89510588833E+02 0.  0.
          5    1    1    2  502    0  0.13236416888E+02 -0.11292070684E+01  0.15733383234E+02  0.21011653638E+02  0.41800000000E+01 0. -1.
         -5    1    1    2    0  502 -0.22818982202E+03 -0.10015318501E+03  0.77186685107E+03  0.81110860155E+03  0.41800000000E+01 0. -1.
        -11    1    3    3    0    0  0.99779940764E+01 -0.11798540703E+02  0.72771639860E+02  0.74394068960E+02  0.00000000000E+00 0.  1.
         11    1    3    3    0    0  0.20497541106E+03  0.11308093278E+03  0.49436422174E+03  0.54699012809E+03  0.00000000000E+00 0. -1.
</event>
<event>
 7    1  0.4274778E-006  0.2421693E+03  0.7561462E-02  0.1118356E+00
         -1   -1    0    0    0  501 -0.00000000000E+00  0.00000000000E+00  0.27426786330E+03  0.27426786330E+03  0.00000000000E+00 0.  1.
          1   -1    0    0  501    0  0.00000000000E+00 -0.00000000000E+00 -0.27769561653E+03  0.27769561653E+03  0.00000000000E+00 0. -1.
         23    2    1    2    0    0  0.10953660556E+03 -0.19194131322E+03 -0.12695561606E+03  0.26956838567E+03  0.87804615055E+02 0.  0.
          5    1    1    2  502    0  0.11025828985E+02  0.10392749879E+03  0.49092091215E+02  0.11554219891E+03  0.41800000000E+01 0.  1.
         -5    1    1    2    0  502 -0.12056243455E+03  0.88013814432E+02  0.74435771611E+02  0.16685289524E+03  0.41800000000E+01 0.  1.
        -11    1    3    3    0    0  0.14439742481E+02 -0.89424289262E+02 -0.83348075922E+02  0.12309391306E+03  0.00000000000E+00 0.  1.
         11    1    3    3    0    0  0.95096863083E+02 -0.10251702396E+03 -0.43607540141E+02  0.14647447261E+03  0.00000000000E+00 0. -1.
</event>
<event>
 7    1  0.4274778E-006  0.9916178E+02  0.7561462E-02  0.1282069E+00
         -1   -1    0    0    0  501 -0.00000000000E+00  0.00000000000E+00  0.62328767234E+02  0.62328767234E+02  0.00000000000E+00 0.  1.
          1   -1    0    0  501    0  0.00000000000E+00 -0.00000000000E+00 -0.34303906256E+03  0.34303906256E+03  0.00000000000E+00 0. -1.
         23    2    1    2    0    0  0.31275751731E+02 -0.54179611585E+01 -0.25624483812E+03  0.27399092846E+03  0.91662887076E+02 0.  0.
          5    1    1    2  502    0 -0.62576165886E+02 -0.35035751571E+02  0.53285595627E+01  0.72035729830E+02  0.41800000000E+01 0.  1.
         -5    1    1    2    0  502  0.31300414155E+02  0.40453712729E+02 -0.29794016767E+02  0.59341171500E+02  0.41800000000E+01 0.  1.
        -11    1    3    3    0    0 -0.21405255515E+02 -0.68216621659E+01 -0.14896603189E+02  0.26956053586E+02  0.00000000000E+00 0.  1.
         11    1    3    3    0    0  0.52681007246E+02  0.14037010074E+01 -0.24134823493E+03  0.24703487488E+03  0.00000000000E+00 0. -1.
</event>
<event>
 7    1  0.4274778E-006  0.1617537E+03  0.7561462E-02  0.1186731E+00
         -2   -1    0    0    0  501 -0.00000000000E+00  0.00000000000E+00  0.27125150772E+03  0.27125150772E+03  0.00000000000E+00 0.  1.
          2   -1    0    0  501    0  0.00000000000E+00 -0.00000000000E+00 -0.18568982697E+03  0.18568982697E+03  0.00000000000E+00 0. -1.
         23    2    1    2    0    0 -0.64446414670E+02 -0.84667314655E+02 -0.68657021676E+01  0.14075833778E+03  0.91890572163E+02 0.  0.
          5    1    1    2  502    0  0.43597839993E+02 -0.45115093955E+02 -0.78461498361E+02  0.10054761300E+03  0.41800000000E+01 0. -1.
         -5    1    1    2    0  502  0.20848574678E+02  0.12978240861E+03  0.17088888128E+03  0.21563538392E+03  0.41800000000E+01 0.  1.
        -11    1    3    3    0    0 -0.24413107638E+02  0.99622536901E+01  0.21659415196E+02  0.34122962793E+02  0.00000000000E+00 0.  1.
         11    1    3    3    0    0 -0.40033307033E+02 -0.94629568346E+02 -0.28525117364E+02  0.10663537498E+03  0.00000000000E+00 0. -1.
</event>
<event>
 7    1  0.4274778E-006  0.1684309E+03  0.7561462E-02  0.1179494E+00
         -1   -1    0    0    0  501 -0.00000000000E+00  0.00000000000E+00  0.37792474326E+02  0.37792474326E+02  0.00000000000E+00 0.  1.
          1   -1    0    0  501    0  0.00000000000E+00 -0.00000000000E+00 -0.81813299304E+03  0.81813299304E+03  0.00000000000E+00 0. -1.
         23    2    1    2    0    0 -0.12998824481E+03  0.73281037921E+01 -0.47779170831E+03  0.50359856944E+03  0.91520258550E+02 0.  0.
          5    1    1    2  502    0  0.15488751551E+03 -0.35465373190E+01 -0.26218976818E+03  0.30457128447E+03  0.41800000000E+01 0. -1.
         -5    1    1    2    0  502 -0.24899270702E+02 -0.37815664731E+01 -0.40359042228E+02  0.47755613450E+02  0.41800000000E+01 0. -1.
        -11    1    3    3    0    0 -0.26174734374E+02  0.39746132153E+02 -0.19206616404E+03  0.19787441247E+03  0.00000000000E+00 0.  1.
         11    1    3    3    0    0 -0.10381351043E+03 -0.32418028361E+02 -0.28572554427E+03  0.30572415698E+03  0.00000000000E+00 0. -1.
</event>
<event>
 7    1  0.4274778E-006  0.1384450E+03  0.7561462E-02  0.1215437E+00
         -1   -1    0    0    0  501 -0.00000000000E+00  0.00000000000E+00  0.38972037002E+02  0.38972037002E+02  0.00000000000E+00 0.  1.
          1   -1    0    0  501    0  0.00000000000E+00 -0.00000000000E+00 -0.60493658013E+03  0.60493658013E+03  0.00000000000E+00 0. -1.
         23    2    1    2    0    0 -0.13526893090E+02  0.11502254219E+03 -0.29133923848E+03  0.32527434084E+03  0.86669965287E+02 0.  0.
          5    1    1    2  502    0  0.17267482130E+02  0.20687522874E+01  0.21907952901E+01  0.18019923949E+02  0.41800000000E+01 0. -1.
         -5    1    1    2    0  502 -0.37405890393E+01 -0.11709129448E+03 -0.27681609994E+03  0.30061435234E+03  0.41800000000E+01 0.  1.
        -11    1    3    3    0    0 -0.29950424977E+02  0.47926813916E+01 -0.38889889162E+02  0.49319582624E+02  0.00000000000E+00 0.  1.
         11    1    3    3    0    0  0.16423531887E+02  0.11022986080E+03 -0.25244934932E+03  0.27595475822E+03  0.00000000000E+00 0. -1.
</event>
<event>
 7    1  0.4274778E-006  0.7222233E+02  0.7561462E-02  0.1352695E+00
         -2   -1    0    0    0  501 -0.00000000000E+00  0.00000000000E+00  0.99879129854E+02  0.99879129854E+02  0.00000000000E+00 0.  1.
          2   -1    0    0  501    0  0.00000000000E+00 -0.00000000000E+00 -0.14685682273E+03  0.14685682273E+03  0.00000000000E+00 0. -1.
         23    2    1    2    0    0  0.52043218078E+02 -0.48680780018E+01 -0.17830190886E+02  0.10806724450E+03  0.92889283001E+02 0.  0.
          5    1    1    2  502    0 -0.77576211744E+01  0.33717386393E+02 -0.65631304942E+02  0.74310049252E+02  0.41800000000E+01 0.  1.
         -5    1    1    2    0  502 -0.44285596904E+02 -0.28849308391E+02  0.36483802953E+02  0.64358658825E+02  0.41800000000E+01 0.  1.
        -11    1    3    3    0    0  0.68906486020E+01 -0.88866494894E+01  0.35986712982E+02  0.37702746432E+02  0.00000000000E+00 0.  1.
         11    1    3    3    0    0  0.45152569476E+02  0.40185714876E+01 -0.53816903868E+02  0.70364498073E+02  0.00000000000E+00 0. -1.
</event>
<event>
 7    1  0.4274778E-006  0.2152689E+03  0.7561462E-02  0.1137460E+00
         -1   -1    0    0    0  501 -0.00000000000E+00  0.00000000000E+00  0.61451088554E+02  0.61451088554E+02  0.00000000000E+00 0.  1.
          1   -1    0    0  501    0  0.00000000000E+00 -0.00000000000E+00 -0.85063484008E+03  0.85063484008E+03  0.00000000000E+00 0. -1.
         23    2    1    2    0    0  0.18715396338E+03 -0.73883030504E+02 -0.42061285730E+03  0.47393208044E+03  0.84918389859E+02 0.  0.
          5    1    1    2  502    0 -0.16792215206E+03  0.25400827885E+02 -0.20404958343E+03  0.26551225228E+03  0.41800000000E+01 0. -1.
         -5    1    1    2    0  502 -0.19231811313E+02  0.48482202619E+02 -0.16452131079E+03  0.17264159592E+03  0.41800000000E+01 0. -1.
        -11    1    3    3    0    0  0.74915408521E+02 -0.17994371258E+01 -0.22512724714E+03  0.23727164561E+03  0.00000000000E+00 0. -1.
         11    1    3    3    0    0  0.11223855485E+03 -0.72083593378E+02 -0.19548561016E+03  0.23666043482E+03  0.00000000000E+00 0.  1.
</event>
<event>
 7    1  0.4274778E-006  0.6987476E+02  0.7561462E-02  0.1360519E+00
          3   -1    0    0  501    0  0.00000000000E+00  0.00000000000E+00  0.43340144674E+02  0.43340144674E+02  0.00000000000E+00 0. -1.
         -3   -1    0    0    0  501 -0.00000000000E+00 -0.00000000000E+00 -0.46398154175E+03  0.46398154175E+03  0.00000000000E+00 0.  1.
         23    2    1    2    0    0 -0.35228515013E+02 -0.38728254880E+01 -0.40203344258E+02  0.10527865548E+03  0.90615889128E+02 0.  0.
          5    1    1    2  502    0 -0.10759102767E+02 -0.88348720379E+01  0.36447435265E+01  0.14985653528E+02  0.41800000000E+01 0.  1.
         -5    1    1    2    0  502  0.45987617780E+02  0.12707697526E+02 -0.38408279634E+03  0.38705737741E+03  0.41800000000E+01 0.  1.
        -11    1    3    3    0    0 -0.14325937136E+01 -0.32802067530E+02  0.13536689801E+02  0.35514362303E+02  0.00000000000E+00 0. -1.
         11    1    3    3    0    0 -0.33795921299E+02  0.28929242042E+02 -0.53740034059E+02  0.69764293175E+02  0.00000000000E+00 0.  1.
</event>
<event>
 7    1  0.4274778E-006  0.1319894E+03  0.7561462E-02  0.1224533E+00
          1   -1    0    0  501    0  0.00000000000E+00  0.00000000000E+00  0.27015624084E+03  0.27015624084E+03  0.00000000000E+00 0. -1.
         -1   -1    0    0    0  501 -0.00000000000E+00 -0.00000000000E+00 -0.14844453905E+03  0.14844453905E+03  0.00000000000E+00 0.  1.
         23    2    1    2    0    0 -0.91254297924E+02  0.33250404742E+02  0.20076854086E+03  0.24159830211E+03  0.92891314329E+02 0.  0.
          5    1    1    2  502    0 -0.14999161460E+02  0.18687869665E+02  0.12527622328E+02  0.27361013108E+02  0.41800000000E+01 0.  1.
         -5    1    1    2    0  502  0.10625345938E+03 -0.51938274407E+02 -0.91584461400E+02  0.14964146467E+03  0.41800000000E+01 0.  1.
        -11    1    3    3    0    0 -0.23664747988E+02  0.46740184420E+02  0.14082855745E+03  0.15025760456E+03  0.00000000000E+00 0.  1.
         11    1    3    3    0    0 -0.67589549937E+02 -0.13489779678E+02  0.59939983415E+02  0.91340697546E+02  0.00000000000E+00 0. -1.
</event>
<event>
 7    1  0.4274778E-006  0.1329881E+03  0.7561462E-02  0.1223088E+00
         -2   -1    0    0    0  501 -0.00000000000E+00  0.00000000000E+00  0.28377812912E+03  0.28377812912E+03  0.00000000000E+00 0.  1.
          2   -1    0    0  501    0  0.00000000000E+00 -0.00000000000E+00 -0.11097681571E+03  0.11097681571E+03  0.00000000000E+00 0. -1.
         23    2    1    2    0    0  0.91465593835E+02  0.49873087378E+02 -0.20190157018E+02  0.14227457043E+03  0.94768830591E+02 0.  0.
          5    1    1    2  502    0 -0.11315959898E+03 -0.40851657311E+02  0.19431247403E+03  0.22857988256E+03  0.41800000000E+01 0. -1.
         -5    1    1    2    0  502  0.21694005147E+02 -0.90214300672E+01 -0.13210036008E+01  0.23900491842E+02  0.41800000000E+01 0. -1.
        -11    1    3    3    0    0  0.39602720683E+02  0.56973251722E+02  0.24359435796E+02  0.73537126742E+02  0.00000000000E+00 0.  1.
         11    1    3    3    0    0  0.51862873152E+02 -0.71001643438E+01 -0.44549592815E+02  0.68737443692E+02  0.00000000000E+00 0. -1.
</event>
<event>
 7    1  0.4274778E-006  0.2422368E+03  0.7561462E-02  0.1118312E+00
         -2   -1    0    0    0  501 -0.00000000000E+00  0.00000000000E+00  0.31157631343E+02  0.31157631343E+02  0.00000000000E+00 0.  1.
          2   -1    0    0  501    0  0.00000000000E+00 -0.00000000000E+00 -0.21755056346E+04  0.21755056346E+04  0.00000000000E+00 0. -1.
         23    2    1    2    0    0  0.51220597951E+02  0.22665794888E+03 -0.85017140372E+03  0.88585911287E+03  0.89205250534E+02 0.  0.
          5    1    1    2  502    0  0.88037751734E+01 -0.49724420960E+02 -0.10012781542E+03  0.11221887683E+03  0.41800000000E+01 0.  1.
         -5    1    1    2    0  502 -0.60024373125E+02 -0.17693352792E+03 -0.11940487841E+04  0.12085852762E+04  0.41800000000E+01 0.  1.
        -11    1    3    3    0    0  0.64032753468E+02  0.94559861482E+02 -0.33798579570E+03  0.35675784367E+03  0.00000000000E+00 0.  1.
         11    1    3    3    0    0 -0.12812155517E+02  0.13209808740E+03 -0.51218560801E+03  0.52910126921E+03  0.00000000000E+00 0. -1.
</event>
<event>
 7    1  0.4274778E-006  0.9915510E+02  0.7561462E-02  0.1282083E+00
         -1   -1    0    0    0  501 -0.00000000000E+00  0.00000000000E+00  0.45347411471E+02  0.45347411471E+02  0.00000000000E+00 0.  1.
          1   -1    0    0  501    0  0.00000000000E+00 -0.00000000000E+00 -0.43567041047E+03  0.43567041047E+03  0.00000000000E+00 0. -1.
         23    2    1    2    0    0  0.23319894354E+02 -0.78483572341E+02 -0.23939031080E+03  0.26857615550E+03  0.90121816429E+02 0.  0.
          5    1    1    2  502    0 -0.20029868441E+02  0.17990536491E+02 -0.14922427358E+03  0.15169117067E+03  0.41800000000E+01 0.  1.
         -5    1    1    2    0  502 -0.32900259125E+01  0.60493035850E+02 -0.17084146206E+01  0.60750495779E+02  0.41800000000E+01 0.  1.
        -11    1    3    3    0    0  0.43095529954E+02 -0.17999915163E+02 -0.16084600070E+03  0.16748927604E+03  0.00000000000E+00 0.  1.
         11    1    3    3    0    0 -0.19775635600E+02 -0.60483657178E+02 -0.78544310105E+02  0.10108687946E+03  0.00000000000E+00 0. -1.
</event>
<event>
 7    1  0.4274778E-006  0.6266472E+02  0.7561462E-02  0.1386978E+00
         -2   -1    0    0    0  501 -0.00000000000E+00  0.00000000000E+00  0.83705834363E+02  0.83705834363E+02  0.00000000000E+00 0.  1.
          2   -1    0    0  501    0  0.00000000000E+00 -0.00000000000E+00 -0.13272671802E+03  0.13272671802E+03  0.00000000000E+00 0. -1.
         23    2    1    2    0    0  0.21272323544E+02  0.11232152248E+02 -0.53139009204E+02  0.88982052502E+02  0.67196565204E+02 0.  0.
          5    1    1    2  502    0 -0.39781149496E+02  0.10783746631E+02  0.54997294696E+02  0.68854948047E+02  0.41800000000E+01 0.  1.
         -5    1    1    2    0  502  0.18508825952E+02 -0.22015898879E+02 -0.50879169152E+02  0.58595551838E+02  0.41800000000E+01 0.  1.
        -11    1    3    3    0    0  0.17135278217E+02 -0.18268623025E+02  0.32014293141E+01  0.25250930606E+02  0.00000000000E+00 0.  1.
         11    1    3    3    0    0  0.41370453272E+01  0.29500775273E+02 -0.56340438518E+02  0.63731121896E+02  0.00000000000E+00 0. -1.
</event>
<event>
 7    1  0.4274778E-006  0.5461738E+02  0.7561462E-02  0.1421917E+00
         -4   -1    0    0    0  501 -0.00000000000E+00  0.00000000000E+00  0.12896448917E+03  0.12896448917E+03  0.00000000000E+00 0. -1.
          4   -1    0    0  501    0  0.00000000000E+00 -0.00000000000E+00 -0.93316896532E+02  0.93316896532E+02  0.00000000000E+00 0.  1.
         23    2    1    2    0    0 -0.35970862359E+01 -0.29089662217E+02  0.13188967484E+02  0.91856226399E+02  0.86049230024E+02 0.  0.
          5    1    1    2  502    0 -0.10273919816E+02  0.19303176008E+02  0.73329164832E+02  0.76634227649E+02  0.41800000000E+01 0.  1.
         -5    1    1    2    0  502  0.13871006052E+02  0.97864862094E+01 -0.50870539677E+02  0.53790931655E+02  0.41800000000E+01 0.  1.
        -11    1    3    3    0    0 -0.33282876888E+02 -0.17668012345E+02  0.36469213494E+02  0.52439604185E+02  0.00000000000E+00 0. -1.
         11    1    3    3    0    0  0.29685790653E+02 -0.11421649872E+02 -0.23280246011E+02  0.39416622214E+02  0.00000000000E+00 0.  1.
</event>
<event>
 7    1  0.4274778E-006  0.2771733E+03  0.7561462E-02  0.1097243E+00
          2   -1    0    0  501    0  0.00000000000E+00  0.00000000000E+00  0.39154951970E+03  0.39154951970E+03  0.00000000000E+00 0. -1.
         -2   -1    0    0    0  501 -0.00000000000E+00 -0.00000000000E+00 -0.22020825376E+03  0.22020825376E+03  0.00000000000E+00 0.  1.
         23    2    1    2    0    0 -0.22296113107E+03  0.15756108189E+03  0.79721610433E+02  0.29778634328E+03  0.88227039961E+02 0.  0.
          5    1    1    2  502    0  0.27844087556E+02 -0.52422704715E+02 -0.23746018106E+02  0.64068548894E+02  0.41800000000E+01 0.  1.
         -5    1    1    2    0  502  0.19511704352E+03 -0.10513837717E+03  0.11536567362E+03  0.24990288129E+03  0.41800000000E+01 0.  1.
        -11    1    3    3    0    0 -0.17861191255E+03  0.12178340334E+03  0.98812659351E+02  0.23769172111E+03  0.00000000000E+00 0. -1.
         11    1    3    3    0    0 -0.44349218521E+02  0.35777678546E+02 -0.19091048918E+02  0.60094622175E+02  0.00000000000E+00 0.  1.
</event>
<event>
 7    1  0.4274778E-006  0.1115869E+03  0.7561462E-02  0.1257659E+00
         -4   -1    0    0    0  501 -0.00000000000E+00  0.00000000000E+00  0.35831525561E+03  0.35831525561E+03  0.00000000000E+00 0.  1.
          4   -1    0    0  501    0  0.00000000000E+00 -0.00000000000E+00 -0.52320176456E+02  0.52320176456E+02  0.00000000000E+00 0. -1.
         23    2    1    2    0    0 -0.39160072767E+02 -0.65342980064E+02  0.87756788318E+02  0.14780644940E+03  0.91336062129E+02 0.  0.
          5    1    1    2  502    0 -0.36716538419E+02  0.57279427748E+02  0.12399547801E+03  0.14149695404E+03  0.41800000000E+01 0. -1.
         -5    1    1    2    0  502  0.75876611186E+02  0.80635523159E+01  0.94242812831E+02  0.12133202863E+03  0.41800000000E+01 0. -1.
        -11    1    3    3    0    0 -0.32718942520E+02 -0.36420009838E+02  0.10332274229E+03  0.11433518876E+03  0.00000000000E+00 0.  1.
         11    1    3    3    0    0 -0.64411302465E+01 -0.28922970225E+02 -0.15565953968E+02  0.33471260634E+02  0.00000000000E+00 0. -1.
</event>
<event>
 7    1  0.4274778E-006  0.1213605E+03  0.7561462E-02  0.1240869E+00
         -1   -1    0    0    0  501 -0.00000000000E+00  0.00000000000E+00  0.36345854066E+03  0.36345854066E+03  0.00000000000E+00 0.  1.
          1   -1    0    0  501    0  0.00000000000E+00 -0.00000000000E+00 -0.59777788579E+02  0.59777788579E+02  0.00000000000E+00 0. -1.
         23    2    1    2    0    0 -0.80949073424E+02 -0.25538346950E+02  0.63541310460E+02  0.13947751968E+03  0.90617441515E+02 0.  0.
          5    1    1    2  502    0  0.10317064552E+03 -0.12144227357E+02  0.19359751443E+03  0.21974788816E+03  0.41800000000E+01 0. -1.
         -5    1    1    2    0  502 -0.22221572094E+02  0.37682574306E+02  0.46541927186E+02  0.64010921403E+02  0.41800000000E+01 0. -1.
        -11    1    3    3    0    0 -0.35710679092E+02  0.10219402526E+02  0.72173722693E+02  0.81171023380E+02  0.00000000000E+00 0.  1.
         11    1    3    3    0    0 -0.45238394332E+02 -0.35757749475E+02 -0.86324122329E+01  0.58306496296E+02  0.00000000000E+00 0. -1.
</event>
<event>
 7    1  0.4274778E-006  0.9575020E+02  0.7561462E-02  0.1289495E+00
         -3   -1    0    0    0  501 -0.00000000000E+00  0.00000000000E+00  0.40844838938E+02  0.40844838938E+02  0.00000000000E+00 0.  1.
          3   -1    0    0  501    0  0.00000000000E+00 -0.00000000000E+00 -0.36130386111E+03  0.36130386111E+03  0.00000000000E+00 0. -1.
         23    2    1    2    0    0  0.25636806461E+02  0.17526293362E+02 -0.24861841907E+03  0.26695357233E+03  0.92134003900E+02 0.  0.
          5    1    1    2  502    0  0.30218641409E+02  0.14788496504E+02 -0.60773648546E+02  0.69590047241E+02  0.41800000000E+01 0. -1.
         -5    1    1    2    0  502 -0.55855447870E+02 -0.32314789866E+02 -0.11066954554E+02  0.65605080474E+02  0.41800000000E+01 0.  1.
        -11    1    3    3    0    0 -0.13390025392E+02 -0.29157860980E+02 -0.51687836042E+02  0.60836716147E+02  0.00000000000E+00 0.  1.
         11    1    3    3    0    0  0.39026831853E+02  0.46684154342E+02 -0.19693058303E+03  0.20611685618E+03  0.00000000000E+00 0. -1.
</event>
<event>
 7    1  0.4274778E-006  0.9836829E+02  0.7561462E-02  0.1283765E+00
          1   -1    0    0  501    0  0.00000000000E+00  0.00000000000E+00  0.42306220306E+02  0.42306220306E+02  0.00000000000E+00 0. -1.
         -1   -1    0    0    0  501 -0.00000000000E+00 -0.00000000000E+00 -0.31902669170E+03  0.31902669170E+03  0.00000000000E+00 0.  1.
         23    2    1    2    0    0  0.19285278148E+02  0.67545967880E-01 -0.62944240466E+02  0.11289907281E+03  0.91718573456E+02 0.  0.
          5    1    1    2  502    0 -0.56556568403E+02 -0.37445353502E+02 -0.82528503582E+02  0.10690755928E+03  0.41800000000E+01 0. -1.
         -5    1    1    2    0  502  0.37271290255E+02  0.37377807534E+02 -0.13124772734E+03  0.14152627991E+03  0.41800000000E+01 0. -1.
        -11    1    3    3    0    0 -0.20217957969E+02 -0.22567892648E+02 -0.60070656955E+02  0.67279710389E+02  0.00000000000E+00 0. -1.
         11    1    3    3    0    0  0.39503236117E+02  0.22635438616E+02 -0.28735835107E+01  0.45619362416E+02  0.00000000000E+00 0.  1.
</event>
<event>
 7    1  0.4274778E-006  0.7602913E+02  0.7561462E-02  0.1340713E+00
          4   -1    0    0  501    0  0.00000000000E+00  0.00000000000E+00  0.17991250895E+03  0.17991250895E+03  0.00000000000E+00 0. -1.
         -4   -1    0    0    0  501 -0.00000000000E+00 -0.00000000000E+00 -0.69503220736E+02  0.69503220736E+02  0.00000000000E+00 0.  1.
         23    2    1    2    0    0  0.20670317210E+02  0.16596818860E+02  0.53671383126E+02  0.10952439505E+03  0.91718369663E+02 0.  0.
          5    1    1    2  502    0 -0.29640256131E+02  0.27414028271E+02  0.79575721310E+02  0.89329958869E+02  0.41800000000E+01 0. -1.
         -5    1    1    2    0  502  0.89699389209E+01 -0.44010847131E+02 -0.22837816227E+02  0.50561375767E+02  0.41800000000E+01 0. -1.
        -11    1    3    3    0    0  0.41831318531E+02  0.47315701468E+01 -0.83577671684E+01  0.42919683574E+02  0.00000000000E+00 0.  1.
         11    1    3    3    0    0 -0.21161001321E+02  0.11865248713E+02  0.62029150294E+02  0.66604711471E+02  0.00000000000E+00 0. -1.
</event>
<event>
 7    1  0.4274778E-006  0.1399567E+03  0.7561462E-02  0.1213387E+00
         -1   -1    0    0    0  501 -0.00000000000E+00  0.00000000000E+00  0.48306933775E+03  0.48306933775E+03  0.00000000000E+00 0.  1.
          1   -1    0    0  501    0  0.00000000000E+00 -0.00000000000E+00 -0.76746509842E+02  0.76746509842E+02  0.00000000000E+00 0. -1.
         23    2    1    2    0    0  0.10892812014E+03 -0.57330191616E+02  0.83371516535E+02  0.17555586428E+03  0.93364690782E+02 0.  0.
          5    1    1    2  502    0 -0.47583572604E+02  0.11453343901E+02 -0.31835251651E+01  0.49223802177E+02  0.41800000000E+01 0. -1.
         -5    1    1    2    0  502 -0.61344547535E+02  0.45876847715E+02  0.32613483654E+03  0.33503618114E+03  0.41800000000E+01 0.  1.
        -11    1    3    3    0    0  0.95547548396E+02 -0.82066644866E+02  0.63009215069E+02  0.14083475916E+03  0.00000000000E+00 0. -1.
         11    1    3    3    0    0  0.13380571743E+02  0.24736453250E+02  0.20362301466E+02  0.34721105117E+02  0.00000000000E+00 0.  1.
</event>
<event>
 7    1  0.4274778E-006  0.9880490E+02  0.7561462E-02  0.1282829E+00
         -2   -1    0    0    0  501 -0.00000000000E+00  0.00000000000E+00  0.77306689055E+02  0.77306689055E+02  0.00000000000E+00 0.  1.
          2   -1    0    0  501    0  0.00000000000E+00 -0.00000000000E+00 -0.18866908762E+03  0.18866908762E+03  0.00000000000E+00 0. -1.
         23    2    1    2    0    0  0.15508028665E+02 -0.50190588805E+02 -0.58910927139E+02  0.12051884191E+03  0.91075242302E+02 0.  0.
          5    1    1    2  502    0  0.46663237634E+02 -0.10654262468E+02 -0.12536699404E+02  0.49654932153E+02  0.41800000000E+01 0.  1.
         -5    1    1    2    0  502 -0.62171266298E+02  0.60844851273E+02 -0.39914772022E+02  0.95802002616E+02  0.41800000000E+01 0.  1.
        -11    1    3    3    0    0  0.16633517290E+02 -0.51423354620E+01 -0.71614247463E+02  0.73700189628E+02  0.00000000000E+00 0. -1.
         11    1    3    3    0    0 -0.11254886257E+01 -0.45048253343E+02  0.12703320324E+02  0.46818652278E+02  0.00000000000E+00 0.  1.
</event>
<event>
 6    1  0.4274778E-006  0.8862677E+02  0.7561462E-02  0.1306212E+00
          1   -1    0    0  501    0  0.00000000000E+00  0.00000000000E+00  0.64735203092E+03  0.64735203092E+03  0.00000000000E+00 0. -1.
         -1   -1    0    0    0  501 -0.00000000000E+00 -0.00000000000E+00 -0.13446718176E+02  0.13446718176E+02  0.00000000000E+00 0.  1.
          5    1    1    2  502    0  0.51842615022E+02  0.12695832289E+01  0.16960444178E+03  0.17740464381E+03  0.41800000000E+01 0. -1.
         -5    1    1    2    0  502 -0.64518525026E+02 -0.44817102236E+02  0.19830288977E+03  0.21333710699E+03  0.41800000000E+01 0.  1.
        -11    1    1    2    0    0  0.71650030686E+01  0.86641051189E+01  0.57425171970E+02  0.58515419868E+02  0.00000000000E+00 0.  1.
         11    1    1    2    0    0  0.55109069354E+01  0.34883413888E+02  0.20857280922E+03  0.21154157843E+03  0.00000000000E+00 0. -1.
</event>
<event>
 7    1  0.4274778E-006  0.1434201E+03  0.7561462E-02  0.1208800E+00
          1   -1    0    0  501    0  0.00000000000E+00  0.00000000000E+00  0.11243765941E+03  0.11243765941E+03  0.00000000000E+00 0. -1.
         -1   -1    0    0    0  501 -0.00000000000E+00 -0.00000000000E+00 -0.20327451125E+03  0.20327451125E+03  0.00000000000E+00 0.  1.
         23    2    1    2    0    0 -0.99460808437E+02  0.29894210333E+02 -0.30043881437E+02  0.14213418209E+03  0.92267950449E+02 0.  0.
          5    1    1    2  502    0  0.94034714094E+02  0.27072087938E+02 -0.62482676671E+02  0.11617651520E+03  0.41800000000E+01 0. -1.
         -5    1    1    2    0  502  0.54260943424E+01 -0.56966298272E+02  0.16897062662E+01  0.57401473377E+02  0.41800000000E+01 0. -1.
        -11    1    3    3    0    0 -0.81276928119E+02 -0.15390312309E+02 -0.40690325812E+02  0.92187327611E+02  0.00000000000E+00 0.  1.
         11    1    3    3    0    0 -0.18183880318E+02  0.45284522643E+02  0.10646444376E+02  0.49946854478E+02  0.00000000000E+00 0. -1.
</event>
<event>
 7    1  0.4274778E-006  0.8320821E+02  0.7561462E-02  0.1320186E+00
          1   -1    0    0  501    0  0.00000000000E+00  0.00000000000E+00  0.29332312346E+03  0.29332312346E+03  0.00000000000E+00 0. -1.
         -1   -1    0    0    0  501 -0.00000000000E+00 -0.00000000000E+00 -0.54078298236E+02  0.54078298236E+02  0.00000000000E+00 0.  1.
         23    2    1    2    0    0 -0.49300026533E+02  0.28667997876E+02  0.14422507172E+03  0.18028199606E+03  0.91915069885E+02 0.  0.
          5    1    1    2  502    0  0.35978564972E+02 -0.14712319416E+02 -0.24396686943E+02  0.46082319970E+02  0.41800000000E+01 0. -1.
         -5    1    1    2    0  502  0.13321461561E+02 -0.13955678460E+02  0.11941644044E+03  0.12103710566E+03  0.41800000000E+01 0. -1.
        -11    1    3    3    0    0 -0.61360446962E+02 -0.14256273939E+02  0.93572438803E+02  0.11280136126E+03  0.00000000000E+00 0. -1.
         11    1    3    3    0    0  0.12060420429E+02  0.42924271815E+02  0.50652632922E+02  0.67480634805E+02  0.00000000000E+00 0.  1.
</event>
<event>
 7    1  0.4274778E-006  0.9178127E+02  0.7561462E-02  0.1298595E+00
         -2   -1    0    0    0  501 -0.00000000000E+00  0.00000000000E+00  0.11358509792E+03  0.11358509792E+03  0.00000000000E+00 0.  1.
          2   -1    0    0  501    0  0.00000000000E+00 -0.00000000000E+00 -0.16976741855E+03  0.16976741855E+03  0.00000000000E+00 0. -1.
         23    2    1    2    0    0 -0.71929944637E+02 -0.22465506674E+02 -0.70987488511E+02  0.13656900456E+03  0.89068813599E+02 0.  0.
          5    1    1    2  502    0  0.18746073341E+02 -0.23300762951E+01  0.66012855166E+02  0.68789635618E+02  0.41800000000E+01 0. -1.
         -5    1    1    2    0  502  0.53183871296E+02  0.24795582969E+02 -0.51207687283E+02  0.77993876284E+02  0.41800000000E+01 0. -1.
        -11    1    3    3    0    0 -0.14400144539E+02  0.26290242967E+02  0.39755013160E+01  0.30238148897E+02  0.00000000000E+00 0.  1.
         11    1    3    3    0    0 -0.57529800099E+02 -0.48755749641E+02 -0.74962989827E+02  0.10633085566E+03  0.00000000000E+00 0. -1.
</event>
<event>
 7    1  0.4274778E-006  0.3439762E+03  0.7561462E-02  0.1065115E+00
          1   -1    0    0  501    0  0.00000000000E+00  0.00000000000E+00  0.13088452132E+04  0.13088452132E+04  0.00000000000E+00 0. -1.
         -1   -1    0    0    0  501 -0.00000000000E+00 -0.00000000000E+00 -0.14277513006E+03  0.14277513006E+03  0.00000000000E+00 0.  1.
         23    2    1    2    0    0  0.29113144601E+03 -0.17927030946E+03  0.98193280116E+03  0.10436380910E+04  0.89961527162E+02 0.  0.
          5    1    1    2  502    0 -0.46714209542E+00 -0.42556125470E-01 -0.12971885504E+02  0.13636797509E+02  0.41800000000E+01 0.  1.
         -5    1    1    2    0  502 -0.29066430392E+03  0.17931286559E+03  0.19710916745E+03  0.39434545469E+03  0.41800000000E+01 0.  1.
        -11    1    3    3    0    0  0.25644556043E+03 -0.16317511230E+03  0.93462189439E+03  0.98280645512E+03  0.00000000000E+00 0. -1.
         11    1    3    3    0    0  0.34685885584E+02 -0.16095197164E+02  0.47310906765E+02  0.60831635926E+02  0.00000000000E+00 0.  1.
</event>
<event>
 7    1  0.4274778E-006  0.7820552E+02  0.7561462E-02  0.1334222E+00
         -2   -1    0    0    0  501 -0.00000000000E+00  0.00000000000E+00  0.26724999009E+02  0.26724999009E+02  0.00000000000E+00 0.  1.
          2   -1    0    0  501    0  0.00000000000E+00 -0.00000000000E+00 -0.50331931725E+03  0.50331931725E+03  0.00000000000E+00 0. -1.
         23    2    1    2    0    0  0.91566243831E+01 -0.22919917948E+02 -0.31589265080E+03  0.32955197669E+03  0.90593444044E+02 0.  0.
          5    1    1    2  502    0 -0.32756903099E+02  0.43822724945E+01 -0.16636524665E+03  0.16966757706E+03  0.41800000000E+01 0. -1.
         -5    1    1    2    0  502  0.23600278716E+02  0.18537645453E+02  0.56635792034E+01  0.30824762510E+02  0.41800000000E+01 0.  1.
        -11    1    3    3    0    0  0.10098749372E+02  0.34205857191E+02 -0.97813712814E+02  0.10411314912E+03  0.00000000000E+00 0. -1.
         11    1    3    3    0    0 -0.94212498865E+00 -0.57125775138E+02 -0.21807893798E+03  0.22543882757E+03  0.00000000000E+00 0.  1.
</event>
<event>
 7    1  0.4274778E-006  0.2152447E+03  0.7561462E-02  0.1137479E+00
          2   -1    0    0  501    0  0.00000000000E+00  0.00000000000E+00  0.34939112792E+03  0.34939112792E+03  0.00000000000E+00 0. -1.
         -2   -1    0    0    0  501 -0.00000000000E+00 -0.00000000000E+00 -0.16216339638E+03  0.16216339638E+03  0.00000000000E+00 0.  1.
         23    2    1    2    0    0  0.18340662698E+03  0.84239745055E+02  0.15769595300E+03  0.27227673103E+03  0.92370337254E+02 0.  0.
          5    1    1    2  502    0 -0.19262172847E+03 -0.68570073236E+02  0.18583296894E+00  0.20450548197E+03  0.41800000000E+01 0.  1.
         -5    1    1    2    0  502  0.92151014970E+01 -0.15669671819E+02  0.29345945575E+02  0.34772311286E+02  0.41800000000E+01 0.  1.
        -11    1    3    3    0    0  0.79646672359E+02  0.11173665158E+02  0.15896488963E+02  0.81982568710E+02  0.00000000000E+00 0.  1.
         11    1    3    3    0    0  0.10375995462E+03  0.73066079897E+02  0.14179946403E+03  0.19029416232E+03  0.00000000000E+00 0. -1.
</event>
<event>
 7    1  0.4274778E-006  0.1114329E+03  0.7561462E-02  0.1257939E+00
          2   -1    0    0  501    0  0.00000000000E+00  0.00000000000E+00  0.27431735598E+03  0.27431735598E+03  0.00000000000E+00 0. -1.
         -2   -1    0    0    0  501 -0.00000000000E+00 -0.00000000000E+00 -0.71521886444E+02  0.71521886444E+02  0.00000000000E+00 0.  1.
         23    2    1    2    0    0  0.84485310602E+02  0.28209058628E+02  0.97979154468E+02  0.15990992560E+03  0.89653504657E+02 0.  0.
          5    1    1    2  502    0 -0.44929362709E+02 -0.65110989857E+02  0.10517387297E+03  0.13167043931E+03  0.41800000000E+01 0. -1.
         -5    1    1    2    0  502 -0.39555947893E+02  0.36901931229E+02 -0.35755789583E+00  0.54258877520E+02  0.41800000000E+01 0. -1.
        -11    1    3    3    0    0  0.32575992915E+02  0.14775755870E+02 -0.11857306823E+02  0.37684399969E+02  0.00000000000E+00 0. -1.
         11    1    3    3    0    0  0.51909317687E+02  0.13433302758E+02  0.10983646129E+03  0.12222552563E+03  0.00000000000E+00 0.  1.
</event>
<event>
 7    1  0.4274778E-006  0.1202131E+03  0.7561462E-02  0.1242746E+00
          1   -1    0    0  501    0  0.00000000000E+00  0.00000000000E+00  0.12237425099E+03  0.12237425099E+03  0.00000000000E+00 0. -1.
         -1   -1    0    0    0  501 -0.00000000000E+00 -0.00000000000E+00 -0.19106785361E+03  0.19106785361E+03  0.00000000000E+00 0.  1.
         23    2    1    2    0    0 -0.30477830383E+02  0.99427964243E+02 -0.56097456347E+01  0.13896627434E+03  0.92007271123E+02 0.  0.
          5    1    1    2  502    0  0.18003406379E+02 -0.88041725566E+02  0.17831480628E+02  0.91710970899E+02  0.41800000000E+01 0.  1.
         -5    1    1    2    0  502  0.12474424004E+02 -0.11386238677E+02 -0.80915337609E+02  0.82764859366E+02  0.41800000000E+01 0.  1.
        -11    1    3    3    0    0  0.25177297435E+02  0.87185273795E+01 -0.17506973599E+02  0.31881078250E+02  0.00000000000E+00 0. -1.
         11    1    3    3    0    0 -0.55655127818E+02  0.90709436863E+02  0.11897227964E+02  0.10708519609E+03  0.00000000000E+00 0.  1.
</event>
<event>
 7    1  0.4274778E-006  0.1297661E+03  0.7561462E-02  0.1227803E+00
         -2   -1    0    0    0  501 -0.00000000000E+00  0.00000000000E+00  0.58475379867E+02  0.58475379867E+02  0.00000000000E+00 0.  1.
          2   -1    0    0  501    0  0.00000000000E+00 -0.00000000000E+00 -0.36988554724E+03  0.36988554724E+03  0.00000000000E+00 0. -1.
         23    2    1    2    0    0  0.86385212357E+02 -0.96369433892E+01 -0.21157085631E+03  0.24623424817E+03  0.91180053405E+02 0.  0.
          5    1    1    2  502    0 -0.84208417950E+01 -0.43002235350E+02 -0.71193137273E+02  0.83702078925E+02  0.41800000000E+01 0. -1.
         -5    1    1    2    0  502 -0.77964370562E+02  0.52639178740E+02 -0.28646173792E+02  0.98424600017E+02  0.41800000000E+01 0. -1.
        -11    1    3    3    0    0  0.99173393507E+02  0.80783486347E+01 -0.19462081612E+03  0.21858152658E+03  0.00000000000E+00 0. -1.
         11    1    3    3    0    0 -0.12788181149E+02 -0.17715292024E+02 -0.16950040193E+02  0.27652721586E+02  0.00000000000E+00 0.  1.
</event>
<event>
 7    1  0.4274778E-006  0.1370232E+03  0.7561462E-02  0.1217391E+00
          2   -1    0    0  501    0  0.00000000000E+00  0.00000000000E+00  0.65003865923E+02  0.65003865923E+02  0.00000000000E+00 0. -1.
         -2   -1    0    0    0  501 -0.00000000000E+00 -0.00000000000E+00 -0.29957989173E+03  0.29957989173E+03  0.00000000000E+00 0.  1.
         23    2    1    2    0    0 -0.68810106163E+02  0.60034784230E+01 -0.70227438842E+02  0.13675368805E+03  0.94862034376E+02 0.  0.
          5    1    1    2  502    0  0.93370368800E+02 -0.50904936225E+02 -0.11189537136E+03  0.15442598497E+03  0.41800000000E+01 0. -1.
         -5    1    1    2    0  502 -0.24560262637E+02  0.44901457802E+02 -0.52453215609E+02  0.73404084636E+02  0.41800000000E+01 0.  1.
        -11    1    3    3    0    0 -0.65370080264E+02 -0.35659829776E+02 -0.35926282175E+02  0.82677497569E+02  0.00000000000E+00 0.  1.
         11    1    3    3    0    0 -0.34400258986E+01  0.41663308199E+02 -0.34301156668E+02  0.54076190482E+02  0.00000000000E+00 0. -1.
</event>
<event>
 7    1  0.4274778E-006  0.2617883E+03  0.7561462E-02  0.1106073E+00
         -2   -1    0    0    0  501 -0.00000000000E+00  0.00000000000E+00  0.37432935262E+03  0.37432935262E+03  0.00000000000E+00 0.  1.
          2   -1    0    0  501    0  0.00000000000E+00 -0.00000000000E+00 -0.20925348772E+03  0.20925348772E+03  0.00000000000E+00 0. -1.
         23    2    1    2    0    0 -0.20530014520E+03 -0.15242975332E+03  0.48787247816E+02  0.27608793621E+03  0.91985725295E+02 0.  0.
          5    1    1    2  502    0  0.29490336364E+02  0.52322834762E+02 -0.20092517706E+02  0.63470785754E+02  0.41800000000E+01 0. -1.
         -5    1    1    2    0  502  0.17580980883E+03  0.10010691855E+03  0.13638113479E+03  0.24402411838E+03  0.41800000000E+01 0. -1.
        -11    1    3    3    0    0 -0.92866278605E+02 -0.10153030849E+03  0.63970189235E+02  0.15173903372E+03  0.00000000000E+00 0.  1.
         11    1    3    3    0    0 -0.11243386659E+03 -0.50899444830E+02 -0.15182941419E+02  0.12434890249E+03  0.00000000000E+00 0. -1.
</event>
<event>
 7    1  0.4274778E-006  0.1430200E+03  0.7561462E-02  0.1209322E+00
         -2   -1    0    0    0  501 -0.00000000000E+00  0.00000000000E+00  0.60771467682E+02  0.60771467682E+02  0.00000000000E+00 0.  1.
          2   -1    0    0  501    0  0.00000000000E+00 -0.00000000000E+00 -0.44804673274E+03  0.44804673274E+03  0.00000000000E+00 0. -1.
         23    2    1    2    0    0 -0.11639469150E+03  0.27351326734E+02 -0.22734882892E+03  0.27319275716E+03  0.93010608381E+02 0.  0.
          5    1    1    2  502    0  0.12701007893E+03 -0.48185048802E+02 -0.16237542962E+03  0.21174657405E+03  0.41800000000E+01 0.  1.
         -5    1    1    2    0  502 -0.10615387434E+02  0.20833722068E+02  0.24489934833E+01  0.23878869208E+02  0.41800000000E+01 0.  1.
        -11    1    3    3    0    0 -0.64873159813E+02  0.35914814536E+02 -0.52882731255E+02  0.91076802932E+02  0.00000000000E+00 0.  1.
         11    1    3    3    0    0 -0.51521531684E+02 -0.85634878020E+01 -0.17446609767E+03  0.18211595423E+03  0.00000000000E+00 0. -1.
</event>
<event>
 7    1  0.4274778E-006  0.2946285E+03  0.7561462E-02  0.1087957E+00
         -1   -1    0    0    0  501 -0.00000000000E+00  0.00000000000E+00  0.41686446745E+03  0.41686446745E+03  0.00000000000E+00 0.  1.
          1   -1    0    0  501    0  0.00000000000E+00 -0.00000000000E+00 -0.26226466919E+03  0.26226466919E+03  0.00000000000E+00 0. -1.
         23    2    1    2    0    0 -0.15697622877E+03 -0.21347753312E+03 -0.45443479546E+02  0.28387128801E+03  0.91124117412E+02 0.  0.
          5    1    1    2  502    0  0.52256391021E+02 -0.25621627479E+02 -0.11226853420E+02  0.59419801707E+02  0.41800000000E+01 0. -1.
         -5    1    1    2    0  502  0.10471983774E+03  0.23909916060E+03  0.21127013122E+03  0.33583804693E+03  0.41800000000E+01 0.  1.
        -11    1    3    3    0    0 -0.12677675596E+03 -0.13230799167E+03 -0.66164179074E+02  0.19482158275E+03  0.00000000000E+00 0. -1.
         11    1    3    3    0    0 -0.30199472805E+02 -0.81169541455E+02  0.20720699528E+02  0.89049705259E+02  0.00000000000E+00 0.  1.
</event>
<event>
 7    1  0.4274778E-006  0.1079196E+03  0.7561462E-02  0.1264472E+00
          1   -1    0    0  501    0  0.00000000000E+00  0.00000000000E+00  0.72617299167E+02  0.72617299167E+02  0.00000000000E+00 0. -1.
         -1   -1    0    0    0  501 -0.00000000000E+00 -0.00000000000E+00 -0.30334679322E+03  0.30334679322E+03  0.00000000000E+00 0.  1.
         23    2    1    2    0    0 -0.70038821491E+02  0.19295562221E+02 -0.18525047889E+02  0.11914474655E+03  0.92598801254E+02 0.  0.
          5    1    1    2  502    0 -0.27305043225E+01  0.31792416774E+02 -0.13565415030E+03  0.13941927525E+03  0.41800000000E+01 0.  1.
         -5    1    1    2    0  502  0.72769325814E+02 -0.51087978995E+02 -0.76550295873E+02  0.11740007059E+03  0.41800000000E+01 0.  1.
        -11    1    3    3    0    0  0.88788108688E+00 -0.15582874328E+02  0.24579476504E+02  0.29116403802E+02  0.00000000000E+00 0. -1.
         11    1    3    3    0    0 -0.70926702578E+02  0.34878436550E+02 -0.43104524393E+02  0.90028342748E+02  0.00000000000E+00 0.  1.
</event>
<event>
 7    1  0.4274778E-006  0.1188488E+03  0.7561462E-02  0.1245008E+00
         -3   -1    0    0    0  501 -0.00000000000E+00  0.00000000000E+00  0.25889242313E+02  0.25889242313E+02  0.00000000000E+00 0.  1.
          3   -1    0    0  501    0  0.00000000000E+00 -0.00000000000E+00 -0.62598070158E+03  0.62598070158E+03  0.00000000000E+00 0. -1.
         23    2    1    2    0    0  0.26073269422E+02  0.53063810281E+02 -0.34456551333E+03  0.36129200069E+03  0.91164321100E+02 0.  0.
          5    1    1    2  502    0 -0.18362476276E+02 -0.90860780351E+02 -0.21649112789E+03  0.23553925956E+03  0.41800000000E+01 0. -1.
         -5    1    1    2    0  502 -0.77107931467E+01  0.37796970069E+02 -0.39034818046E+02  0.55038683644E+02  0.41800000000E+01 0. -1.
        -11    1    3    3    0    0  0.46206119732E+01  0.75163238469E+02 -0.20567521582E+03  0.21902775366E+03  0.00000000000E+00 0.  1.
         11    1    3    3    0    0  0.21452657449E+02 -0.22099428188E+02 -0.13889029751E+03  0.14226424702E+03  0.00000000000E+00 0. -1.
</event>
<event>
 7    1  0.4274778E-006  0.9877232E+02  0.7561462E-02  0.1282899E+00
          1   -1    0    0  501    0  0.00000000000E+00  0.00000000000E+00  0.53057008160E+02  0.53057008160E+02  0.00000000000E+00 0.  1.
         -1   -1    0    0    0  501 -0.00000000000E+00 -0.00000000000E+00 -0.34859492000E+03  0.34859492000E+03  0.00000000000E+00 0. -1.
         23    2    1    2    0    0  0.39129869892E+02  0.27044062138E+02 -0.49829478930E+02  0.12186100131E+03  0.10052163277E+03 0.  0.
          5    1    1    2  502    0 -0.27523563002E+02 -0.51976448757E+02 -0.24496768104E+03  0.25196375711E+03  0.41800000000E+01 0.  1.
         -5    1    1    2    0  502 -0.11606306890E+02  0.24932386619E+02 -0.74075186805E+00  0.27827169735E+02  0.41800000000E+01 0.  1.
        -11    1    3    3    0    0 -0.31495541952E+02 -0.71503568015E+01 -0.19552978765E+02  0.37754678436E+02  0.00000000000E+00 0. -1.
         11    1    3    3    0    0  0.70625411844E+02  0.34194418939E+02 -0.30276500164E+02  0.84106322871E+02  0.00000000000E+00 0.  1.
</event>
<event>
 7    1  0.4274778E-006  0.9487476E+02  0.7561462E-02  0.1291458E+00
          2   -1    0    0  501    0  0.00000000000E+00  0.00000000000E+00  0.78420501548E+03  0.78420501548E+03  0.00000000000E+00 0. -1.
         -2   -1    0    0    0  501 -0.00000000000E+00 -0.00000000000E+00 -0.19660239304E+02  0.19660239304E+02  0.00000000000E+00 0.  1.
         23    2    1    2    0    0  0.38279325930E+02 -0.20531495715E+02  0.47448026699E+03  0.48500523842E+03  0.90618477255E+02 0.  0.
          5    1    1    2  502    0  0.87339379945E+00  0.43648158765E+02  0.26226270670E+02  0.51100041620E+02  0.41800000000E+01 0.  1.
         -5    1    1    2    0  502 -0.39152719730E+02 -0.23116663050E+02  0.26383823851E+03  0.26775997474E+03  0.41800000000E+01 0.  1.
        -11    1    3    3    0    0  0.36745142132E+02  0.31366920382E+02  0.24610005850E+03  0.25079738427E+03  0.00000000000E+00 0.  1.
         11    1    3    3    0    0  0.15341837982E+01 -0.51898416097E+02  0.22838020850E+03  0.23420785415E+03  0.00000000000E+00 0. -1.
</event>
<event>
 7    1  0.4274778E-006  0.2455995E+03  0.7561462E-02  0.1116118E+00
         -1   -1    0    0    0  501 -0.00000000000E+00  0.00000000000E+00  0.28292431291E+03  0.28292431291E+03  0.00000000000E+00 0.  1.
          1   -1    0    0  501    0  0.00000000000E+00 -0.00000000000E+00 -0.89582376575E+03  0.89582376575E+03  0.00000000000E+00 0. -1.
         23    2    1    2    0    0 -0.10469301045E+02  0.17764689049E+03 -0.73512978162E+03  0.76189072008E+03  0.91616862842E+02 0.  0.
          5    1    1    2  502    0  0.59443308726E+02  0.39193006285E+02 -0.86348241187E+02  0.11199593676E+03  0.41800000000E+01 0. -1.
         -5    1    1    2    0  502 -0.48974007681E+02 -0.21683989677E+03  0.20857856997E+03  0.30486142182E+03  0.41800000000E+01 0.  1.
        -11    1    3    3    0    0  0.15573664523E+02  0.16954728868E+03 -0.58372511256E+03  0.60804919962E+03  0.00000000000E+00 0. -1.
         11    1    3    3    0    0 -0.26042965568E+02  0.80996018133E+01 -0.15140466906E+03  0.15384152047E+03  0.00000000000E+00 0.  1.
</event>
<event>
 7    1  0.4274778E-006  0.2242728E+03  0.7561462E-02  0.1130737E+00
          2   -1    0    0  501    0  0.00000000000E+00  0.00000000000E+00  0.70796217799E+02  0.70796217799E+02  0.00000000000E+00 0. -1.
         -2   -1    0    0    0  501 -0.00000000000E+00 -0.00000000000E+00 -0.84019366906E+03  0.84019366906E+03  0.00000000000E+00 0.  1.
         23    2    1    2    0    0 -0.17367177306E+03 -0.96028315013E+02 -0.20283499472E+03  0.29778211096E+03  0.90270861770E+02 0.  0.
          5    1    1    2  502    0  0.86923759856E+02 -0.18200645636E+02 -0.25856757885E+03  0.27342580120E+03  0.41800000000E+01 0. -1.
         -5    1    1    2    0  502  0.86748013201E+02  0.11422896065E+03 -0.30799487769E+03  0.33978197469E+03  0.41800000000E+01 0. -1.
        -11    1    3    3    0    0 -0.14913443587E+03 -0.11231118800E+03 -0.18743457036E+03  0.26454980831E+03  0.00000000000E+00 0.  1.
         11    1    3    3    0    0 -0.24537337183E+02  0.16282872987E+02 -0.15400424362E+02  0.33232302648E+02  0.00000000000E+00 0. -1.
</event>
<event>
 7    1  0.4274778E-006  0.1362264E+03  0.7561462E-02  0.1218499E+00
          2   -1    0    0  501    0  0.00000000000E+00  0.00000000000E+00  0.30262081684E+03  0.30262081684E+03  0.00000000000E+00 0. -1.
         -2   -1    0    0    0  501 -0.00000000000E+00 -0.00000000000E+00 -0.11307408565E+03  0.11307408565E+03  0.00000000000E+00 0.  1.
         23    2    1    2    0    0  0.82795132428E+02 -0.30440818382E+02  0.22624140968E+03  0.25829218970E+03  0.88022738143E+02 0.  0.
          5    1    1    2  502    0  0.17088250221E+01  0.62244546123E+02 -0.10403577392E+02  0.63269348246E+02  0.41800000000E+01 0. -1.
         -5    1    1    2    0  502 -0.84503957450E+02 -0.31803727740E+02 -0.26291101093E+02  0.94133364540E+02  0.41800000000E+01 0. -1.
        -11    1    3    3    0    0  0.87062225189E+02 -0.49483697473E+02  0.21090320261E+03  0.23347082953E+03  0.00000000000E+00 0. -1.
         11    1    3    3    0    0 -0.42670927606E+01  0.19042879090E+02  0.15338207066E+02  0.24821360169E+02  0.00000000000E+00 0.  1.
</event>
<event>
 7    1  0.4274778E-006  0.1394252E+03  0.7561462E-02  0.1214104E+00
          2   -1    0    0  501    0  0.00000000000E+00  0.00000000000E+00  0.18425404560E+03  0.18425404560E+03  0.00000000000E+00 0. -1.
         -2   -1    0    0    0  501 -0.00000000000E+00 -0.00000000000E+00 -0.13353843848E+03  0.13353843848E+03  0.00000000000E+00 0.  1.
         23    2    1    2    0    0  0.14967542470E+02 -0.10134453530E+03  0.77556896913E+02  0.15649401494E+03  0.89333992922E+02 0.  0.
          5    1    1    2  502    0  0.33228403324E+02  0.86676307574E+02 -0.50195957492E+02  0.10561257326E+03  0.41800000000E+01 0.  1.
         -5    1    1    2    0  502 -0.48195945794E+02  0.14668227727E+02  0.23354667705E+02  0.55685895873E+02  0.41800000000E+01 0.  1.
        -11    1    3    3    0    0 -0.37071658035E+02 -0.50276294197E+02  0.28821057398E+02  0.68794381581E+02  0.00000000000E+00 0. -1.
         11    1    3    3    0    0  0.52039200505E+02 -0.51068241104E+02  0.48735839515E+02  0.87699633363E+02  0.00000000000E+00 0.  1.
</event>
<event>
 7    1  0.4274778E-006  0.1713451E+03  0.7561462E-02  0.1176452E+00
         -2   -1    0    0    0  501 -0.00000000000E+00  0.00000000000E+00  0.11859968223E+03  0.11859968223E+03  0.00000000000E+00 0.  1.
          2   -1    0    0  501    0  0.00000000000E+00 -0.00000000000E+00 -0.29525394693E+03  0.29525394693E+03  0.00000000000E+00 0. -1.
         23    2    1    2    0    0 -0.14886883182E+03 -0.47980999326E+01 -0.12252520136E+03  0.21195646185E+03  0.87909987504E+02 0.  0.
          5    1    1    2  502    0  0.11318910777E+03 -0.38148219192E+02  0.60867435915E+01  0.11967281058E+03  0.41800000000E+01 0. -1.
         -5    1    1    2    0  502  0.35679724049E+02  0.42946319124E+02 -0.60215806923E+02  0.82224356720E+02  0.41800000000E+01 0. -1.
        -11    1    3    3    0    0 -0.25538408245E+02 -0.31945618448E+02 -0.55639183432E+02  0.69053975749E+02  0.00000000000E+00 0. -1.
         11    1    3    3    0    0 -0.12333042358E+03  0.27147518515E+02 -0.66886017928E+02  0.14290248611E+03  0.00000000000E+00 0.  1.
</event>
<event>
 7    1  0.4274778E-006  0.9780854E+02  0.7561462E-02  0.1284973E+00
          1   -1    0    0  501    0  0.00000000000E+00  0.00000000000E+00  0.35605804196E+03  0.35605804196E+03  0.00000000000E+00 0. -1.
         -1   -1    0    0    0  501 -0.00000000000E+00 -0.00000000000E+00 -0.67386143170E+02  0.67386143170E+02  0.00000000000E+00 0.  1.
         23    2    1    2    0    0 -0.67266738337E+02  0.10584021450E+02  0.25189652291E+03  0.27635074078E+03  0.91000209232E+02 0.  0.
          5    1    1    2  502    0  0.33037179725E+02 -0.30539919185E+02  0.77760118194E+02  0.89934700141E+02  0.41800000000E+01 0.  1.
         -5    1    1    2    0  502  0.34229558612E+02  0.19955897736E+02 -0.40984742312E+02  0.57158744209E+02  0.41800000000E+01 0.  1.
        -11    1    3    3    0    0 -0.14230259883E+02  0.45113563470E+02  0.14027595597E+03  0.14803742003E+03  0.00000000000E+00 0.  1.
         11    1    3    3    0    0 -0.53036478454E+02 -0.34529542020E+02  0.11162056694E+03  0.12831332075E+03  0.00000000000E+00 0. -1.
</event>
<event>
 7    1  0.4274778E-006  0.8812952E+02  0.7561462E-02  0.1307446E+00
          2   -1    0    0  501    0  0.00000000000E+00  0.00000000000E+00  0.47976908007E+03  0.47976908007E+03  0.00000000000E+00 0. -1.
         -2   -1    0    0    0  501 -0.00000000000E+00 -0.00000000000E+00 -0.28277109054E+02  0.28277109054E+02  0.00000000000E+00 0.  1.
         23    2    1    2    0    0 -0.56755462865E+01 -0.14371915991E+02  0.27980777057E+03  0.29506253513E+03  0.92362045073E+02 0.  0.
          5    1    1    2  502    0 -0.37882996458E+02  0.34944897987E+02  0.15238835500E+03  0.16092218758E+03  0.41800000000E+01 0.  1.
         -5    1    1    2    0  502  0.43558542745E+02 -0.20572981996E+02  0.19295845451E+02  0.52061466421E+02  0.41800000000E+01 0.  1.
        -11    1    3    3    0    0 -0.14702166889E+02  0.28669525405E+02  0.40526548039E+02  0.51773511510E+02  0.00000000000E+00 0.  1.
         11    1    3    3    0    0  0.90266206023E+01 -0.43041441396E+02  0.23928122253E+03  0.24328902362E+03  0.00000000000E+00 0. -1.
</event>
<event>
 7    1  0.4274778E-006  0.1193437E+03  0.7561462E-02  0.1244184E+00
          1   -1    0    0  501    0  0.00000000000E+00  0.00000000000E+00  0.35813957881E+03  0.35813957881E+03  0.00000000000E+00 0. -1.
         -1   -1    0    0    0  501 -0.00000000000E+00 -0.00000000000E+00 -0.40103220898E+02  0.40103220898E+02  0.00000000000E+00 0.  1.
         23    2    1    2    0    0  0.50815225973E+02  0.85478730212E+01  0.14243898419E+03  0.17663184235E+03  0.90855325604E+02 0.  0.
          5    1    1    2  502    0 -0.91724861191E+02  0.19327156474E+01  0.13164434465E+03  0.16051445863E+03  0.41800000000E+01 0.  1.
         -5    1    1    2    0  502  0.40909635217E+02 -0.10480588669E+02  0.43953029065E+02  0.61096498725E+02  0.41800000000E+01 0.  1.
        -11    1    3    3    0    0  0.70575097887E+02  0.28699002487E+02  0.10610535597E+03  0.13062474402E+03  0.00000000000E+00 0. -1.
         11    1    3    3    0    0 -0.19759871914E+02 -0.20151129466E+02  0.36333628228E+02  0.46007098332E+02  0.00000000000E+00 0.  1.
</event>
<event>
 7    1  0.4274778E-006  0.2087460E+03  0.7561462E-02  0.1142563E+00
          1   -1    0    0  501    0  0.00000000000E+00  0.00000000000E+00  0.12980086533E+03  0.12980086533E+03  0.00000000000E+00 0. -1.
         -1   -1    0    0    0  501 -0.00000000000E+00 -0.00000000000E+00 -0.37541917345E+03  0.37541917345E+03  0.00000000000E+00 0.  1.
         23    2    1    2    0    0  0.18897621705E+03 -0.72806240442E+01 -0.79083026580E+02  0.22389051596E+03  0.90043433673E+02 0.  0.
          5    1    1    2  502    0 -0.18379765000E+03 -0.28064205372E+02 -0.11559587177E+03  0.21897272373E+03  0.41800000000E+01 0. -1.
         -5    1    1    2    0  502 -0.51785670515E+01  0.35344829416E+02 -0.50939409773E+02  0.62356799078E+02  0.41800000000E+01 0. -1.
        -11    1    3    3    0    0  0.60522296926E+02 -0.25757269004E+02 -0.66454141068E+02  0.93501541147E+02  0.00000000000E+00 0.  1.
         11    1    3    3    0    0  0.12845392012E+03  0.18476644960E+02 -0.12628885513E+02  0.13038897482E+03  0.00000000000E+00 0. -1.
</event>
<event>
 7    1  0.4274778E-006  0.1565849E+03  0.7561462E-02  0.1192607E+00
         -2   -1    0    0    0  501 -0.00000000000E+00  0.00000000000E+00  0.61739873822E+02  0.61739873822E+02  0.00000000000E+00 0.  1.
          2   -1    0    0  501    0  0.00000000000E+00 -0.00000000000E+00 -0.52350276265E+03  0.52350276265E+03  0.00000000000E+00 0. -1.
         23    2    1    2    0    0  0.14127084717E+03 -0.21316913364E+02 -0.22911938361E+03  0.28494187092E+03  0.91018211370E+02 0.  0.
          5    1    1    2  502    0 -0.61595157797E+02  0.54407289227E+02 -0.18306126168E+03  0.20070628917E+03  0.41800000000E+01 0.  1.
         -5    1    1    2    0  502 -0.79675689371E+02 -0.33090375863E+02 -0.49582243534E+02  0.99594476380E+02  0.41800000000E+01 0.  1.
        -11    1    3    3    0    0  0.11825347587E+03 -0.25848987385E+02 -0.11008468793E+03  0.16361752113E+03  0.00000000000E+00 0.  1.
         11    1    3    3    0    0  0.23017371302E+02  0.45320740209E+01 -0.11903469567E+03  0.12132434979E+03  0.00000000000E+00 0. -1.
</event>
<event>
 7    1  0.4274778E-006  0.1655838E+03  0.7561462E-02  0.1182533E+00
          2   -1    0    0  501    0  0.00000000000E+00  0.00000000000E+00  0.77462937176E+03  0.77462937176E+03  0.00000000000E+00 0. -1.
         -2   -1    0    0    0  501 -0.00000000000E+00 -0.00000000000E+00 -0.49193298537E+02  0.49193298537E+02  0.00000000000E+00 0.  1.
         23    2    1    2    0    0 -0.12814021147E+03  0.99377859547E+02  0.34026093757E+03  0.38758828110E+03  0.90284534920E+02 0.  0.
          5    1    1    2  502    0  0.67347034872E+02 -0.33500233134E+02  0.52896812015E+02  0.92051256632E+02  0.41800000000E+01 0. -1.
         -5    1    1    2    0  502  0.60793176603E+02 -0.65877626412E+02  0.33227832364E+03  0.34418313257E+03  0.41800000000E+01 0. -1.
        -11    1    3    3    0    0 -0.94980929282E+02  0.91770393589E+02  0.32399312352E+03  0.34987815902E+03  0.00000000000E+00 0.  1.
         11    1    3    3    0    0 -0.33159282192E+02  0.76074659573E+01  0.16267814050E+02  0.37710122086E+02  0.00000000000E+00 0. -1.
</event>
<event>
 7    1  0.4274778E-006  0.1203421E+03  0.7561462E-02  0.1242534E+00
          2   -1    0    0  501    0  0.00000000000E+00  0.00000000000E+00  0.41171905342E+03  0.41171905342E+03  0.00000000000E+00 0. -1.
         -2   -1    0    0    0  501 -0.00000000000E+00 -0.00000000000E+00 -0.36253780026E+02  0.36253780026E+02  0.00000000000E+00 0.  1.
         23    2    1    2    0    0  0.18112716079E+02 -0.52600179155E+02  0.17955889713E+03  0.20896423651E+03  0.91267766881E+02 0.  0.
          5    1    1    2  502    0  0.43376430263E+02  0.60151286011E+02  0.11725379658E+03  0.13880063805E+03  0.41800000000E+01 0. -1.
         -5    1    1    2    0  502 -0.61489146342E+02 -0.75511068565E+01  0.78652579686E+02  0.10020795888E+03  0.41800000000E+01 0. -1.
        -11    1    3    3    0    0  0.30098287903E+02  0.16403354732E+02  0.81934190075E+02  0.88815474352E+02  0.00000000000E+00 0. -1.
         11    1    3    3    0    0 -0.11985571824E+02 -0.69003533887E+02  0.97624707052E+02  0.12014876216E+03  0.00000000000E+00 0.  1.
</event>
<event>
 7    1  0.4274778E-006  0.9655993E+02  0.7561462E-02  0.1287701E+00
         -2   -1    0    0    0  501 -0.00000000000E+00  0.00000000000E+00  0.91236836939E+02  0.91236836939E+02  0.00000000000E+00 0.  1.
          2   -1    0    0  501    0  0.00000000000E+00 -0.00000000000E+00 -0.16142305872E+03  0.16142305872E+03  0.00000000000E+00 0. -1.
         23    2    1    2    0    0  0.46639734831E+01  0.16441415666E+02 -0.81876299981E+02  0.12587091255E+03  0.94062135479E+02 0.  0.
          5    1    1    2  502    0  0.46189455285E+02  0.21272873777E+02  0.31927115796E+02  0.60189816923E+02  0.41800000000E+01 0. -1.
         -5    1    1    2    0  502 -0.50853428768E+02 -0.37714289443E+02 -0.20237037597E+02  0.66599166184E+02  0.41800000000E+01 0. -1.
        -11    1    3    3    0    0  0.40968672418E+01 -0.30965447860E+02 -0.70507698332E+02  0.77116657126E+02  0.00000000000E+00 0. -1.
         11    1    3    3    0    0  0.56710624134E+00  0.47406863526E+02 -0.11368601649E+02  0.48754255428E+02  0.00000000000E+00 0.  1.
</event>
<event>
 7    1  0.4274778E-006  0.1253568E+03  0.7561462E-02  0.1234513E+00
          1   -1    0    0  501    0  0.00000000000E+00  0.00000000000E+00  0.49532878946E+03  0.49532878946E+03  0.00000000000E+00 0. -1.
         -1   -1    0    0    0  501 -0.00000000000E+00 -0.00000000000E+00 -0.88634102339E+02  0.88634102339E+02  0.00000000000E+00 0.  1.
         23    2    1    2    0    0 -0.95287774614E+02  0.20421898118E+02  0.41218872379E+03  0.43306602436E+03  0.90276372986E+02 0.  0.
          5    1    1    2  502    0 -0.56814847923E+01  0.10836878279E+02 -0.38076993878E+02  0.40212523709E+02  0.41800000000E+01 0. -1.
         -5    1    1    2    0  502  0.10096925941E+03 -0.31258776396E+02  0.32582957209E+02  0.11068434373E+03  0.41800000000E+01 0.  1.
        -11    1    3    3    0    0 -0.21109822289E+02 -0.33988018008E+02  0.14828703583E+03  0.15358989212E+03  0.00000000000E+00 0. -1.
         11    1    3    3    0    0 -0.74177952325E+02  0.54409916126E+02  0.26390168796E+03  0.27947613224E+03  0.00000000000E+00 0.  1.
</event>
<event>
 7    1  0.4274778E-006  0.1049167E+03  0.7561462E-02  0.1270284E+00
         -2   -1    0    0    0  501 -0.00000000000E+00  0.00000000000E+00  0.46626792742E+02  0.46626792742E+02  0.00000000000E+00 0.  1.
          2   -1    0    0  501    0  0.00000000000E+00 -0.00000000000E+00 -0.27226002437E+03  0.27226002437E+03  0.00000000000E+00 0. -1.
         23    2    1    2    0    0 -0.35859382649E+02  0.86306010792E+01 -0.11042965939E+03  0.14487621810E+03  0.86220799679E+02 0.  0.
          5    1    1    2  502    0  0.70043572062E+02 -0.32984917134E+02 -0.10515687538E+03  0.13065047870E+03  0.41800000000E+01 0.  1.
         -5    1    1    2    0  502 -0.34184189414E+02  0.24354316054E+02 -0.10046696863E+02  0.43360120321E+02  0.41800000000E+01 0.  1.
        -11    1    3    3    0    0 -0.45025928407E+01  0.43207306806E+02 -0.33356882990E+02  0.54770670495E+02  0.00000000000E+00 0. -1.
         11    1    3    3    0    0 -0.31356789808E+02 -0.34576705726E+02 -0.77072776404E+02  0.90105547601E+02  0.00000000000E+00 0.  1.
</event>
<event>
 7    1  0.4274778E-006  0.1096445E+03  0.7561462E-02  0.1261230E+00
         -3   -1    0    0    0  501 -0.00000000000E+00  0.00000000000E+00  0.60478988123E+03  0.60478988123E+03  0.00000000000E+00 0.  1.
          3   -1    0    0  501    0  0.00000000000E+00 -0.00000000000E+00 -0.40334333247E+02  0.40334333247E+02  0.00000000000E+00 0. -1.
         23    2    1    2    0    0 -0.63523506510E+02 -0.76066883522E+02  0.15164661805E+03  0.20254103662E+03  0.90580174993E+02 0.  0.
          5    1    1    2  502    0  0.41099257662E+02  0.39653903972E+01  0.32084923068E+03  0.32352213916E+03  0.41800000000E+01 0. -1.
         -5    1    1    2    0  502  0.22424248848E+02  0.72101493125E+02  0.91959699245E+02  0.11906103868E+03  0.41800000000E+01 0. -1.
        -11    1    3    3    0    0 -0.39587815751E+02 -0.64258417609E+02  0.15800379652E+03  0.17510436632E+03  0.00000000000E+00 0.  1.
         11    1    3    3    0    0 -0.23935690759E+02 -0.11808465913E+02 -0.63571784666E+01  0.27436670304E+02  0.00000000000E+00 0. -1.
</event>
<event>
 7    1  0.4274778E-006  0.1560121E+03  0.7561462E-02  0.1193274E+00
          1   -1    0    0  501    0  0.00000000000E+00  0.00000000000E+00  0.10733129396E+03  0.10733129396E+03  0.00000000000E+00 0. -1.
         -1   -1    0    0    0  501 -0.00000000000E+00 -0.00000000000E+00 -0.23579822876E+03  0.23579822876E+03  0.00000000000E+00 0.  1.
         23    2    1    2    0    0 -0.86897872116E+02 -0.10844565642E+02 -0.34126158590E+02  0.13040898810E+03  0.90405003706E+02 0.  0.
          5    1    1    2  502    0  0.98163558758E+02  0.74324809634E+02 -0.78887216799E+02  0.14629055667E+03  0.41800000000E+01 0. -1.
         -5    1    1    2    0  502 -0.11265686643E+02 -0.63480243992E+02 -0.15453559417E+02  0.66429977958E+02  0.41800000000E+01 0.  1.
        -11    1    3    3    0    0  0.17934735756E+02 -0.71907048931E+01 -0.13321086034E+02  0.23469391058E+02  0.00000000000E+00 0. -1.
         11    1    3    3    0    0 -0.10483260787E+03 -0.36538607491E+01 -0.20805072556E+02  0.10693959704E+03  0.00000000000E+00 0.  1.
</event>
<event>
 7    1  0.4274778E-006  0.1492308E+03  0.7561462E-02  0.1201421E+00
          1   -1    0    0  501    0  0.00000000000E+00  0.00000000000E+00  0.19721738982E+03  0.19721738982E+03  0.00000000000E+00 0. -1.
         -1   -1    0    0    0  501 -0.00000000000E+00 -0.00000000000E+00 -0.13322906952E+03  0.13322906952E+03  0.00000000000E+00 0.  1.
         23    2    1    2    0    0 -0.86568933246E+02  0.70851026422E+02  0.71716396765E+02  0.16245332378E+03  0.93454762814E+02 0.  0.
          5    1    1    2  502    0  0.46172624962E+01 -0.84169276965E+02  0.99064838888E+00  0.84405213595E+02  0.41800000000E+01 0.  1.
         -5    1    1    2    0  502  0.81951670750E+02  0.13318250543E+02 -0.87187248574E+01  0.83587921970E+02  0.41800000000E+01 0.  1.
        -11    1    3    3    0    0  0.92997189758E+01  0.20796113845E+02 -0.11944322708E+02  0.25722168824E+02  0.00000000000E+00 0.  1.
         11    1    3    3    0    0 -0.95868652222E+02  0.50054912577E+02  0.83660719472E+02  0.13673115495E+03  0.00000000000E+00 0. -1.
</event>
<event>
 7    1  0.4274778E-006  0.1108694E+03  0.7561462E-02  0.1258968E+00
         -2   -1    0    0    0  501 -0.00000000000E+00  0.00000000000E+00  0.28806576196E+03  0.28806576196E+03  0.00000000000E+00 0.  1.
          2   -1    0    0  501    0  0.00000000000E+00 -0.00000000000E+00 -0.69206932768E+02  0.69206932768E+02  0.00000000000E+00 0. -1.
         23    2    1    2    0    0 -0.85947816943E+02  0.12411415704E+01  0.12707287744E+03  0.17979591443E+03  0.93757597009E+02 0.  0.
          5    1    1    2  502    0  0.10573314700E+03 -0.27949260079E+01  0.26508864849E+02  0.10912150247E+03  0.41800000000E+01 0.  1.
         -5    1    1    2    0  502 -0.19785330056E+02  0.15537844374E+01  0.65277086904E+02  0.68355277823E+02  0.41800000000E+01 0.  1.
        -11    1    3    3    0    0 -0.30793850278E+02  0.20715702941E+02  0.11396246262E+03  0.11985342903E+03  0.00000000000E+00 0.  1.
         11    1    3    3    0    0 -0.55153966664E+02 -0.19474561370E+02  0.13110414811E+02  0.59942485400E+02  0.00000000000E+00 0. -1.
</event>
<event>
 7    1  0.4274778E-006  0.1073001E+03  0.7561462E-02  0.1265653E+00
          2   -1    0    0  501    0  0.00000000000E+00  0.00000000000E+00  0.21659842535E+03  0.21659842535E+03  0.00000000000E+00 0.  1.
         -2   -1    0    0    0  501 -0.00000000000E+00 -0.00000000000E+00 -0.63818197721E+02  0.63818197721E+02  0.00000000000E+00 0. -1.
         23    2    1    2    0    0  0.11978580755E+02  0.26847036111E+02  0.10636455679E+03  0.14378574496E+03  0.92177392927E+02 0.  0.
          5    1    1    2  502    0 -0.37176081713E+02 -0.69406886013E+02  0.29719984870E+02  0.84262250019E+02  0.41800000000E+01 0.  1.
         -5    1    1    2    0  502  0.25197500958E+02  0.42559849902E+02  0.16695685962E+02  0.52368628089E+02  0.41800000000E+01 0.  1.
        -11    1    3    3    0    0  0.37316527189E+02  0.42324596797E+02  0.97755298145E+02  0.11287157752E+03  0.00000000000E+00 0. -1.
         11    1    3    3    0    0 -0.25337946434E+02 -0.15477560685E+02  0.86092586490E+01  0.30914167444E+02  0.00000000000E+00 0.  1.
</event>
<event>
 7    1  0.4274778E-006  0.1106608E+03  0.7561462E-02  0.1259351E+00
          1   -1    0    0  501    0  0.00000000000E+00  0.00000000000E+00  0.74001425259E+02  0.74001425259E+02  0.00000000000E+00 0. -1.
         -1   -1    0    0    0  501 -0.00000000000E+00 -0.00000000000E+00 -0.24379824870E+03  0.24379824870E+03  0.00000000000E+00 0.  1.
         23    2    1    2    0    0 -0.32713935240E+02  0.70736216420E+02 -0.62245655832E+02  0.13534863278E+03  0.91492714751E+02 0.  0.
          5    1    1    2  502    0  0.73678687478E+02 -0.69818501420E+02 -0.95759968927E+02  0.13960879692E+03  0.41800000000E+01 0.  1.
         -5    1    1    2    0  502 -0.40964752238E+02 -0.91771500016E+00 -0.11791198679E+02  0.42842244257E+02  0.41800000000E+01 0.  1.
        -11    1    3    3    0    0 -0.13099859267E+02  0.17881153471E+02 -0.74438022896E+02  0.77668276760E+02  0.00000000000E+00 0.  1.
         11    1    3    3    0    0 -0.19614075973E+02  0.52855062949E+02  0.12192367064E+02  0.57680356017E+02  0.00000000000E+00 0. -1.
</event>
<event>
 7    1  0.4274778E-006  0.1036456E+03  0.7561462E-02  0.1272811E+00
         -1   -1    0    0    0  501 -0.00000000000E+00  0.00000000000E+00  0.22702423158E+03  0.22702423158E+03  0.00000000000E+00 0.  1.
          1   -1    0    0  501    0  0.00000000000E+00 -0.00000000000E+00 -0.13173113608E+03  0.13173113608E+03  0.00000000000E+00 0. -1.
         23    2    1    2    0    0 -0.28647253210E+02 -0.19569979729E+02 -0.93572184948E+02  0.13473955878E+03  0.90528148562E+02 0.  0.
          5    1    1    2  502    0 -0.28730538830E+02 -0.26910106342E+02  0.33167593340E+02  0.51644547948E+02  0.41800000000E+01 0. -1.
         -5    1    1    2    0  502  0.57377792039E+02  0.46480086071E+02  0.15569768711E+03  0.17237126092E+03  0.41800000000E+01 0.  1.
        -11    1    3    3    0    0  0.13605883181E+02  0.27384355156E+02 -0.47754874557E+02  0.56705828699E+02  0.00000000000E+00 0. -1.
         11    1    3    3    0    0 -0.42253136391E+02 -0.46954334886E+02 -0.45817310390E+02  0.78033730084E+02  0.00000000000E+00 0.  1.
</event>
<event>
 7    1  0.4274778E-006  0.1463818E+03  0.7561462E-02  0.1204991E+00
         -1   -1    0    0    0  501 -0.00000000000E+00  0.00000000000E+00  0.14277634856E+03  0.14277634856E+03  0.00000000000E+00 0.  1.
          1   -1    0    0  501    0  0.00000000000E+00 -0.00000000000E+00 -0.28622481130E+03  0.28622481130E+03  0.00000000000E+00 0. -1.
         23    2    1    2    0    0  0.45079288274E+02 -0.12632949103E+03 -0.18175840177E+03  0.24163523222E+03  0.85791528128E+02 0.  0.
          5    1    1    2  502    0  0.65176475172E+01  0.67836797361E+02 -0.38023529914E+02  0.78150956696E+02  0.41800000000E+01 0.  1.
         -5    1    1    2    0  502 -0.51596935791E+02  0.58492693668E+02  0.76333468950E+02  0.10921497094E+03  0.41800000000E+01 0.  1.
        -11    1    3    3    0    0  0.59509143551E+02 -0.10158855647E+03 -0.98227584315E+02  0.15333046433E+03  0.00000000000E+00 0.  1.
         11    1    3    3    0    0 -0.14429855278E+02 -0.24740934563E+02 -0.83530817460E+02  0.88304767888E+02  0.00000000000E+00 0. -1.
</event>
<event>
 7    1  0.4274778E-006  0.1570695E+03  0.7561462E-02  0.1192046E+00
          3   -1    0    0  501    0  0.00000000000E+00  0.00000000000E+00  0.58644473955E+03  0.58644473955E+03  0.00000000000E+00 0. -1.
         -3   -1    0    0    0  501 -0.00000000000E+00 -0.00000000000E+00 -0.50200879122E+02  0.50200879122E+02  0.00000000000E+00 0.  1.
         23    2    1    2    0    0  0.75616933720E+02 -0.10909017111E+03  0.31726372669E+03  0.35535716744E+03  0.89464283808E+02 0.  0.
          5    1    1    2  502    0  0.19822860244E+02 -0.10561959522E+02  0.21188276725E+02  0.31159529004E+02  0.41800000000E+01 0. -1.
         -5    1    1    2    0  502 -0.95439793963E+02  0.11965213063E+03  0.19779185701E+03  0.25012892223E+03  0.41800000000E+01 0.  1.
        -11    1    3    3    0    0  0.31400548936E+02 -0.16264253799E+02  0.19589854087E+02  0.40426263842E+02  0.00000000000E+00 0.  1.
         11    1    3    3    0    0  0.44216384784E+02 -0.92825917309E+02  0.29767387260E+03  0.31493090359E+03  0.00000000000E+00 0. -1.
</event>
<event>
 7    1  0.4274778E-006  0.1391022E+03  0.7561462E-02  0.1214542E+00
         -2   -1    0    0    0  501 -0.00000000000E+00  0.00000000000E+00  0.31845108484E+03  0.31845108484E+03  0.00000000000E+00 0.  1.
          2   -1    0    0  501    0  0.00000000000E+00 -0.00000000000E+00 -0.79407984325E+02  0.79407984325E+02  0.00000000000E+00 0. -1.
         23    2    1    2    0    0 -0.43709099028E+02 -0.10505295000E+03  0.89038779931E+02  0.17181631177E+03  0.92985660281E+02 0.  0.
          5    1    1    2  502    0 -0.22565081580E+02  0.94148267269E+02  0.61168013415E+02  0.11459527652E+03  0.41800000000E+01 0. -1.
         -5    1    1    2    0  502  0.66274180608E+02  0.10904682732E+02  0.88836307172E+02  0.11144748087E+03  0.41800000000E+01 0. -1.
        -11    1    3    3    0    0 -0.36292724797E+02 -0.93263872867E+02  0.10867973494E+03  0.14773827074E+03  0.00000000000E+00 0.  1.
         11    1    3    3    0    0 -0.74163742315E+01 -0.11789077134E+02 -0.19640955006E+02  0.24078041033E+02  0.00000000000E+00 0. -1.
</event>
<event>
 7    1  0.4274778E-006  0.1305336E+03  0.7561462E-02  0.1226666E+00
         -1   -1    0    0    0  501 -0.00000000000E+00  0.00000000000E+00  0.28600469871E+03  0.28600469871E+03  0.00000000000E+00 0.  1.
          1   -1    0    0  501    0  0.00000000000E+00 -0.00000000000E+00 -0.89688261928E+02  0.89688261928E+02  0.00000000000E+00 0. -1.
         23    2    1    2    0    0 -0.83007832452E+02 -0.75116799342E+02  0.52538338524E+02  0.15466695044E+03  0.92891090813E+02 0.  0.
          5    1    1    2  502    0 -0.21718900200E+02  0.46394854209E+01 -0.76321184393E+01  0.23852821274E+02  0.41800000000E+01 0.  1.
         -5    1    1    2    0  502  0.10472673265E+03  0.70477313921E+02  0.15141021670E+03  0.19717318892E+03  0.41800000000E+01 0.  1.
        -11    1    3    3    0    0 -0.61940764847E+02 -0.60006662033E+02  0.79478237506E+02  0.11727850645E+03  0.00000000000E+00 0.  1.
         11    1    3    3    0    0 -0.21067067604E+02 -0.15110137309E+02 -0.26939898982E+02  0.37388443991E+02  0.00000000000E+00 0. -1.
</event>
<event>
 7    1  0.4274778E-006  0.1200675E+03  0.7561462E-02  0.1242986E+00
         -1   -1    0    0    0  501 -0.00000000000E+00  0.00000000000E+00  0.57520852625E+02  0.57520852625E+02  0.00000000000E+00 0.  1.
          1   -1    0    0  501    0  0.00000000000E+00 -0.00000000000E+00 -0.30636703214E+03  0.30636703214E+03  0.00000000000E+00 0. -1.
         23    2    1    2    0    0  0.53652792159E+01  0.45149954538E+00 -0.16465375484E+03  0.18774818299E+03  0.90052935330E+02 0.  0.
          5    1    1    2  502    0  0.38724605743E+02 -0.62539600378E+02 -0.63119118952E+02  0.97016969045E+02  0.41800000000E+01 0. -1.
         -5    1    1    2    0  502 -0.44089884959E+02  0.62088100832E+02 -0.21073305729E+02  0.79122732732E+02  0.41800000000E+01 0.  1.
        -11    1    3    3    0    0  0.30481653322E+02 -0.35212337885E+02 -0.87014603830E+02  0.98694382861E+02  0.00000000000E+00 0. -1.
         11    1    3    3    0    0 -0.25116374106E+02  0.35663837431E+02 -0.77639151006E+02  0.89053800129E+02  0.00000000000E+00 0.  1.
</event>
<event>
 7    1  0.4274778E-006  0.1167096E+03  0.7561462E-02  0.1248626E+00
         -1   -1    0    0    0  501 -0.00000000000E+00  0.00000000000E+00  0.82052091790E+02  0.82052091790E+02  0.00000000000E+00 0.  1.
          1   -1    0    0  501    0  0.00000000000E+00 -0.00000000000E+00 -0.21496564314E+03  0.21496564314E+03  0.00000000000E+00 0. -1.
         23    2    1    2    0    0 -0.46038892511E+02 -0.74776248422E+01 -0.63808310285E+02  0.12012037204E+03  0.90453904398E+02 0.  0.
          5    1    1    2  502    0 -0.46663696425E+02 -0.36720463282E+02 -0.32276976461E+02  0.67713873003E+02  0.41800000000E+01 0. -1.
         -5    1    1    2    0  502  0.92702588936E+02  0.44198088124E+02 -0.36828264601E+02  0.10918348988E+03  0.41800000000E+01 0.  1.
        -11    1    3    3    0    0 -0.13471983899E+02 -0.29065531501E+02 -0.73227755526E+02  0.79928741083E+02  0.00000000000E+00 0. -1.
         11    1    3    3    0    0 -0.32566908612E+02  0.21587906659E+02  0.94194452410E+01  0.40191630958E+02  0.00000000000E+00 0.  1.
</event>
<event>
 6    1  0.4274778E-006  0.8031005E+02  0.7561462E-02  0.1328174E+00
          2   -1    0    0  501    0  0.00000000000E+00  0.00000000000E+00  0.73391755210E+02  0.73391755210E+02  0.00000000000E+00 0.  1.
         -2   -1    0    0    0  501 -0.00000000000E+00 -0.00000000000E+00 -0.10320577007E+03  0.10320577007E+03  0.00000000000E+00 0. -1.
          5    1    1    2  502    0  0.59927882237E+01 -0.59078096700E+02 -0.26650558782E+02  0.65221619911E+02  0.41800000000E+01 0. -1.
         -5    1    1    2    0  502 -0.38253609952E+01  0.67328853870E+02 -0.24111666629E+02  0.71740175758E+02  0.41800000000E+01 0.  1.
        -11    1    1    2    0    0  0.10269543655E+02  0.80308287525E+01  0.98113041206E+01  0.16316231976E+02  0.00000000000E+00 0.  1.
         11    1    1    2    0    0 -0.12436970884E+02 -0.16281585923E+02  0.11136906434E+02  0.23319497632E+02  0.00000000000E+00 0. -1.
</event>
<event>
 7    1  0.4274778E-006  0.8909406E+02  0.7561462E-02  0.1305060E+00
         -2   -1    0    0    0  501 -0.00000000000E+00  0.00000000000E+00  0.14648425705E+03  0.14648425705E+03  0.00000000000E+00 0.  1.
          2   -1    0    0  501    0  0.00000000000E+00 -0.00000000000E+00 -0.71941342737E+02  0.71941342737E+02  0.00000000000E+00 0. -1.
         23    2    1    2    0    0 -0.22001596812E+02  0.54707457794E+01  0.11151924413E+01  0.71614747678E+02  0.67922228388E+02 0.  0.
          5    1    1    2  502    0 -0.13487635297E+02 -0.59323651010E+02  0.46976211470E+02  0.76976936281E+02  0.41800000000E+01 0. -1.
         -5    1    1    2    0  502  0.35489232109E+02  0.53852905231E+02  0.26451510402E+02  0.69833915829E+02  0.41800000000E+01 0. -1.
        -11    1    3    3    0    0  0.11495665575E+02 -0.10407218874E+02  0.23614846368E+02  0.28251044241E+02  0.00000000000E+00 0.  1.
         11    1    3    3    0    0 -0.33497262387E+02  0.15877964653E+02 -0.22499653927E+02  0.43363703437E+02  0.00000000000E+00 0. -1.
</event>
<event>
 7    1  0.4274778E-006  0.1407054E+03  0.7561462E-02  0.1212383E+00
          2   -1    0    0  501    0  0.00000000000E+00  0.00000000000E+00  0.88932869530E+03  0.88932869530E+03  0.00000000000E+00 0. -1.
         -2   -1    0    0    0  501 -0.00000000000E+00 -0.00000000000E+00 -0.36475505386E+02  0.36475505386E+02  0.00000000000E+00 0.  1.
         23    2    1    2    0    0 -0.58777343251E+02  0.12457977300E+03  0.29608342605E+03  0.33876560451E+03  0.90121272179E+02 0.  0.
          5    1    1    2  502    0  0.22085519386E+02 -0.72614579011E+02  0.48550891881E+03  0.49142347308E+03  0.41800000000E+01 0. -1.
         -5    1    1    2    0  502  0.36691823866E+02 -0.51965193994E+02  0.71260845054E+02  0.95615123089E+02  0.41800000000E+01 0. -1.
        -11    1    3    3    0    0 -0.43575920423E+02  0.11660226981E+03  0.29652442386E+03  0.32159241924E+03  0.00000000000E+00 0. -1.
         11    1    3    3    0    0 -0.15201422828E+02  0.79775031914E+01 -0.44099781904E+00  0.17173185268E+02  0.00000000000E+00 0.  1.
</event>
<event>
 7    1  0.4274778E-006  0.1632645E+03  0.7561462E-02  0.1185060E+00
          2   -1    0    0  501    0  0.00000000000E+00  0.00000000000E+00  0.28148039371E+03  0.28148039371E+03  0.00000000000E+00 0. -1.
         -2   -1    0    0    0  501 -0.00000000000E+00 -0.00000000000E+00 -0.12967035108E+03  0.12967035108E+03  0.00000000000E+00 0.  1.
         23    2    1    2    0    0  0.27493173372E+02  0.15215318898E+03  0.10111285073E+03  0.20590509032E+03  0.90921010420E+02 0.  0.
          5    1    1    2  502    0  0.19345531651E+02 -0.84301652395E+02 -0.28183207478E+02  0.91064723001E+02  0.41800000000E+01 0. -1.
         -5    1    1    2    0  502 -0.46838705023E+02 -0.67851536587E+02  0.78880399383E+02  0.11418093147E+03  0.41800000000E+01 0. -1.
        -11    1    3    3    0    0  0.23909924871E+02  0.52777892007E+02  0.88342708742E+02  0.10564859005E+03  0.00000000000E+00 0. -1.
         11    1    3    3    0    0  0.35832485007E+01  0.99375296975E+02  0.12770141986E+02  0.10025650026E+03  0.00000000000E+00 0.  1.
</event>
<event>
 7    1  0.4274778E-006  0.9220801E+02  0.7561462E-02  0.1297591E+00
          2   -1    0    0  501    0  0.00000000000E+00  0.00000000000E+00  0.98252682437E+02  0.98252682437E+02  0.00000000000E+00 0. -1.
         -2   -1    0    0    0  501 -0.00000000000E+00 -0.00000000000E+00 -0.49351923533E+03  0.49351923533E+03  0.00000000000E+00 0.  1.
         23    2    1    2    0    0 -0.37823736358E+02  0.13916485717E+02  0.61553636957E+02  0.11641168704E+03  0.90213785250E+02 0.  0.
          5    1    1    2  502    0 -0.23006440836E+01  0.52699100157E+02 -0.16172306432E+03  0.17015966047E+03  0.41800000000E+01 0. -1.
         -5    1    1    2    0  502  0.40124380441E+02 -0.66615585874E+02 -0.29509712554E+03  0.30520057026E+03  0.41800000000E+01 0. -1.
        -11    1    3    3    0    0 -0.19612349194E+02 -0.11210471971E+02  0.78059486505E+02  0.81262551991E+02  0.00000000000E+00 0. -1.
         11    1    3    3    0    0 -0.18211387164E+02  0.25126957688E+02 -0.16505849548E+02  0.35149135045E+02  0.00000000000E+00 0.  1.
</event>
<event>
 7    1  0.4274778E-006  0.1442147E+03  0.7561462E-02  0.1207768E+00
          2   -1    0    0  501    0  0.00000000000E+00  0.00000000000E+00  0.73145471256E+03  0.73145471256E+03  0.00000000000E+00 0. -1.
         -2   -1    0    0    0  501 -0.00000000000E+00 -0.00000000000E+00 -0.35817096592E+02  0.35817096592E+02  0.00000000000E+00 0.  1.
         23    2    1    2    0    0 -0.11675708310E+03  0.45955515017E+01  0.38204041426E+03  0.40999931910E+03  0.92147859386E+02 0.  0.
          5    1    1    2  502    0  0.11230374597E+03  0.35671973906E+02  0.16241654364E+03  0.20070183639E+03  0.41800000000E+01 0.  1.
         -5    1    1    2    0  502  0.44533371254E+01 -0.40267525408E+02  0.15118065807E+03  0.15657065366E+03  0.41800000000E+01 0.  1.
        -11    1    3    3    0    0 -0.17188265138E+02 -0.20853867312E+02  0.19904954350E+02  0.33563781790E+02  0.00000000000E+00 0.  1.
         11    1    3    3    0    0 -0.99568817959E+02  0.25449418814E+02  0.36213545991E+03  0.37643553731E+03  0.00000000000E+00 0. -1.
</event>
<event>
 7    1  0.4274778E-006  0.7506486E+02  0.7561462E-02  0.1343670E+00
          2   -1    0    0  501    0  0.00000000000E+00  0.00000000000E+00  0.91445954816E+02  0.91445954816E+02  0.00000000000E+00 0. -1.
         -2   -1    0    0    0  501 -0.00000000000E+00 -0.00000000000E+00 -0.13320065038E+03  0.13320065038E+03  0.00000000000E+00 0.  1.
         23    2    1    2    0    0 -0.33306538923E+01 -0.12888005586E+02 -0.21965250962E+01  0.92781037216E+02  0.91794892020E+02 0.  0.
          5    1    1    2  502    0 -0.40525436580E+02 -0.12025678506E+02 -0.63084764990E+02  0.76053191434E+02  0.41800000000E+01 0.  1.
         -5    1    1    2    0  502  0.43856090472E+02  0.24913684092E+02  0.23526594518E+02  0.55812376550E+02  0.41800000000E+01 0.  1.
        -11    1    3    3    0    0  0.17783673911E+02  0.14155865119E+02  0.35281704378E+02  0.41969587071E+02  0.00000000000E+00 0. -1.
         11    1    3    3    0    0 -0.21114327803E+02 -0.27043870705E+02 -0.37478229474E+02  0.50811450145E+02  0.00000000000E+00 0.  1.
</event>
<event>
 7    1  0.4274778E-006  0.1456890E+03  0.7561462E-02  0.1205873E+00
         -2   -1    0    0    0  501 -0.00000000000E+00  0.00000000000E+00  0.47350492477E+03  0.47350492477E+03  0.00000000000E+00 0.  1.
          2   -1    0    0  501    0  0.00000000000E+00 -0.00000000000E+00 -0.59376899126E+02  0.59376899126E+02  0.00000000000E+00 0. -1.
         23    2    1    2    0    0 -0.66430809295E+02  0.10323361825E+03  0.13811475941E+03  0.20592501095E+03  0.90880091372E+02 0.  0.
          5    1    1    2  502    0 -0.29215428043E+02 -0.51948080104E+02  0.57402570386E+02  0.82853314654E+02  0.41800000000E+01 0. -1.
         -5    1    1    2    0  502  0.95646237338E+02 -0.51285538144E+02  0.21861069585E+03  0.24410349829E+03  0.41800000000E+01 0. -1.
        -11    1    3    3    0    0 -0.49487045781E+02  0.70093654846E+02  0.28894921034E+02  0.90537310604E+02  0.00000000000E+00 0. -1.
         11    1    3    3    0    0 -0.16943763514E+02  0.33139963403E+02  0.10921983838E+03  0.11538770035E+03  0.00000000000E+00 0.  1.
</event>
<event>
 7    1  0.4274778E-006  0.8066079E+02  0.7561462E-02  0.1327187E+00
         -3   -1    0    0    0  501 -0.00000000000E+00  0.00000000000E+00  0.10960927122E+03  0.10960927122E+03  0.00000000000E+00 0.  1.
          3   -1    0    0  501    0  0.00000000000E+00 -0.00000000000E+00 -0.11300861488E+03  0.11300861488E+03  0.00000000000E+00 0. -1.
         23    2    1    2    0    0  0.23895536147E+02 -0.35312398225E+01  0.22541693208E+01  0.95092784574E+02  0.91946126053E+02 0.  0.
          5    1    1    2  502    0 -0.64326380399E+02  0.34870888600E+02  0.97571711617E+01  0.73936032326E+02  0.41800000000E+01 0.  1.
         -5    1    1    2    0  502  0.40430844252E+02 -0.31339648777E+02 -0.15410684140E+02  0.53589069203E+02  0.41800000000E+01 0.  1.
        -11    1    3    3    0    0  0.30452387302E+01 -0.13326654803E+02  0.44729943536E+02  0.46772225262E+02  0.00000000000E+00 0.  1.
         11    1    3    3    0    0  0.20850297417E+02  0.97954149802E+01 -0.42475774216E+02  0.48320559312E+02  0.00000000000E+00 0. -1.
</event>
<event>
 7    1  0.4274778E-006  0.1277446E+03  0.7561462E-02  0.1230841E+00
          2   -1    0    0  501    0  0.00000000000E+00  0.00000000000E+00  0.28716023322E+03  0.28716023322E+03  0.00000000000E+00 0. -1.
         -2   -1    0    0    0  501 -0.00000000000E+00 -0.00000000000E+00 -0.11320434239E+03  0.11320434239E+03  0.00000000000E+00 0.  1.
         23    2    1    2    0    0  0.63246877364E+02  0.26157253068E+02  0.22189920045E+03  0.24991986962E+03  0.92392189525E+02 0.  0.
          5    1    1    2  502    0 -0.91039152891E+02 -0.50666591926E+02 -0.43147960109E+02  0.11284701927E+03  0.41800000000E+01 0. -1.
         -5    1    1    2    0  502  0.27792275527E+02  0.24509338858E+02 -0.47953495146E+01  0.37597686726E+02  0.41800000000E+01 0. -1.
        -11    1    3    3    0    0  0.38437386036E+02  0.60428687219E+02  0.15530127719E+03  0.17101913805E+03  0.00000000000E+00 0.  1.
         11    1    3    3    0    0  0.24809491328E+02 -0.34271434150E+02  0.66597923267E+02  0.78900731569E+02  0.00000000000E+00 0. -1.
</event>
<event>
 6    1  0.2245926E-005  0.6919433E+02  0.7561462E-02  0.1362854E+00
         -2   -1    0    0    0  501 -0.00000000000E+00  0.00000000000E+00  0.57417601318E+02  0.57417601318E+02  0.00000000000E+00 0.  1.
          2   -1    0    0  501    0  0.00000000000E+00 -0.00000000000E+00 -0.19318375668E+03  0.19318375668E+03  0.00000000000E+00 0. -1.
          5    1    1    2  502    0  0.39746147553E+02 -0.13354330207E+02 -0.11029556527E+03  0.11807065045E+03  0.41800000000E+01 0. -1.
         -5    1    1    2    0  502 -0.53623219947E+02  0.26428039541E+02  0.29380752964E+02  0.66742730212E+02  0.41800000000E+01 0.  1.
        -11    1    1    2    0    0 -0.15251800967E+01 -0.19553878527E+02 -0.29720087713E+02  0.35608481482E+02  0.00000000000E+00 0. -1.
         11    1    1    2    0    0  0.15402252491E+02  0.64801691932E+01 -0.25131255342E+02  0.30179495848E+02  0.00000000000E+00 0.  1.
</event>
<event>
 7    1  0.4274778E-006  0.1650481E+03  0.7561462E-02  0.1183113E+00
         -1   -1    0    0    0  501 -0.00000000000E+00  0.00000000000E+00  0.13215966095E+04  0.13215966095E+04  0.00000000000E+00 0.  1.
          1   -1    0    0  501    0  0.00000000000E+00 -0.00000000000E+00 -0.28722485002E+02  0.28722485002E+02  0.00000000000E+00 0. -1.
         23    2    1    2    0    0 -0.10395374900E+03  0.12279427016E+03  0.66598387732E+03  0.69113518947E+03  0.90821311206E+02 0.  0.
          5    1    1    2  502    0  0.10423163429E+03 -0.11782391216E+03  0.36828803540E+03  0.40050000909E+03  0.41800000000E+01 0. -1.
         -5    1    1    2    0  502 -0.27788528429E+00 -0.49703580062E+01  0.25860221176E+03  0.25868389592E+03  0.41800000000E+01 0. -1.
        -11    1    3    3    0    0 -0.99432420791E+02  0.93170956947E+02  0.62872111913E+03  0.64331786790E+03  0.00000000000E+00 0.  1.
         11    1    3    3    0    0 -0.45213282112E+01  0.29623313216E+02  0.37262758184E+02  0.47817321570E+02  0.00000000000E+00 0. -1.
</event>
<event>
 7    1  0.4274778E-006  0.1130500E+03  0.7561462E-02  0.1255024E+00
          3   -1    0    0  501    0  0.00000000000E+00  0.00000000000E+00  0.85383760916E+02  0.85383760916E+02  0.00000000000E+00 0. -1.
         -3   -1    0    0    0  501 -0.00000000000E+00 -0.00000000000E+00 -0.20054579267E+03  0.20054579267E+03  0.00000000000E+00 0.  1.
         23    2    1    2    0    0  0.37125098990E+02  0.21717324339E+02 -0.45060097634E+02  0.11011029809E+03  0.90796201434E+02 0.  0.
          5    1    1    2  502    0 -0.83650125198E+02 -0.10516153359E+02 -0.90388243962E+02  0.12367473458E+03  0.41800000000E+01 0. -1.
         -5    1    1    2    0  502  0.46525026209E+02 -0.11201170980E+02  0.20286309840E+02  0.52144520920E+02  0.41800000000E+01 0.  1.
        -11    1    3    3    0    0  0.47882622786E+00 -0.30144616173E+02 -0.34361448348E+02  0.45712539761E+02  0.00000000000E+00 0.  1.
         11    1    3    3    0    0  0.36646272762E+02  0.51861940513E+02 -0.10698649286E+02  0.64397758327E+02  0.00000000000E+00 0. -1.
</event>
<event>
 7    1  0.4274778E-006  0.2462319E+03  0.7561462E-02  0.1115710E+00
         -2   -1    0    0    0  501 -0.00000000000E+00  0.00000000000E+00  0.30936205874E+02  0.30936205874E+02  0.00000000000E+00 0.  1.
          2   -1    0    0  501    0  0.00000000000E+00 -0.00000000000E+00 -0.22653167319E+04  0.22653167319E+04  0.00000000000E+00 0. -1.
         23    2    1    2    0    0 -0.19625821639E+03 -0.13993131527E+03 -0.11406349810E+04  0.11693007863E+04  0.90100547478E+02 0.  0.
          5    1    1    2  502    0  0.13831779261E+03  0.82183948460E+02 -0.93042024594E+03  0.94423795708E+03  0.41800000000E+01 0.  1.
         -5    1    1    2    0  502  0.57940423776E+02  0.57747366813E+02 -0.16332529907E+03  0.18271419429E+03  0.41800000000E+01 0.  1.
        -11    1    3    3    0    0 -0.91880774712E+02 -0.10503648054E+03 -0.77490159438E+03  0.78736727134E+03  0.00000000000E+00 0.  1.
         11    1    3    3    0    0 -0.10437744167E+03 -0.34894834730E+02 -0.36573338659E+03  0.38193351501E+03  0.00000000000E+00 0. -1.
</event>
<event>
 7    1  0.4274778E-006  0.2173524E+03  0.7561462E-02  0.1135872E+00
          2   -1    0    0  501    0  0.00000000000E+00  0.00000000000E+00  0.80637596410E+03  0.80637596410E+03  0.00000000000E+00 0. -1.
         -2   -1    0    0    0  501 -0.00000000000E+00 -0.00000000000E+00 -0.84473033198E+02  0.84473033198E+02  0.00000000000E+00 0.  1.
         23    2    1    2    0    0 -0.19132560437E+03 -0.31255313930E+02  0.58386356502E+03  0.62198961321E+03  0.91608050119E+02 0.  0.
          5    1    1    2  502    0  0.10952000059E+03  0.73207249765E+02  0.48451278064E+02  0.14042411008E+03  0.41800000000E+01 0. -1.
         -5    1    1    2    0  502  0.81805603780E+02 -0.41951935835E+02  0.89588087824E+02  0.12843527401E+03  0.41800000000E+01 0. -1.
        -11    1    3    3    0    0 -0.38800145955E+02 -0.42974493585E+02  0.11416007247E+03  0.12800304907E+03  0.00000000000E+00 0.  1.
         11    1    3    3    0    0 -0.15252545841E+03  0.11719179655E+02  0.46970349254E+03  0.49398656413E+03  0.00000000000E+00 0. -1.
</event>
<event>
 7    1  0.4274778E-006  0.8373297E+02  0.7561462E-02  0.1318780E+00
          1   -1    0    0  501    0  0.00000000000E+00  0.00000000000E+00  0.46169888161E+02  0.46169888161E+02  0.00000000000E+00 0. -1.
         -1   -1    0    0    0  501 -0.00000000000E+00 -0.00000000000E+00 -0.25615667816E+03  0.25615667816E+03  0.00000000000E+00 0.  1.
         23    2    1    2    0    0 -0.15805741612E+02  0.20286190930E+01 -0.79310928768E+02  0.12074698247E+03  0.89641918717E+02 0.  0.
          5    1    1    2  502    0  0.24798930695E+02 -0.59928138275E+02 -0.85910817889E+02  0.10772423010E+03  0.41800000000E+01 0.  1.
         -5    1    1    2    0  502 -0.89931890830E+01  0.57899519182E+02 -0.44765043344E+02  0.73855353746E+02  0.41800000000E+01 0.  1.
        -11    1    3    3    0    0  0.12515622221E+02  0.79111536503E+01 -0.89014056563E+02  0.90237073409E+02  0.00000000000E+00 0.  1.
         11    1    3    3    0    0 -0.28321363833E+02 -0.58825345573E+01  0.97031277948E+01  0.30509909065E+02  0.00000000000E+00 0. -1.
</event>
<event>
 7    1  0.4274778E-006  0.1083436E+03  0.7561462E-02  0.1263668E+00
         -4   -1    0    0    0  501 -0.00000000000E+00  0.00000000000E+00  0.10250123384E+03  0.10250123384E+03  0.00000000000E+00 0.  1.
          4   -1    0    0  501    0  0.00000000000E+00 -0.00000000000E+00 -0.19225149303E+03  0.19225149303E+03  0.00000000000E+00 0. -1.
         23    2    1    2    0    0  0.93438029158E+01  0.62717219607E+02 -0.10632235770E+03  0.15354228555E+03  0.90829694586E+02 0.  0.
          5    1    1    2  502    0 -0.24806328067E+02  0.28656272142E+02  0.28602719053E+02  0.47666799582E+02  0.41800000000E+01 0. -1.
         -5    1    1    2    0  502  0.15462525151E+02 -0.91373491749E+02 -0.12030620541E+02  0.93543641735E+02  0.41800000000E+01 0. -1.
        -11    1    3    3    0    0 -0.30706662843E+01  0.70870204857E+02 -0.32123006855E+02  0.77871063286E+02  0.00000000000E+00 0.  1.
         11    1    3    3    0    0  0.12414469200E+02 -0.81529852500E+01 -0.74199350843E+02  0.75671222268E+02  0.00000000000E+00 0. -1.
</event>
<event>
 7    1  0.4274778E-006  0.3332743E+03  0.7561462E-02  0.1069697E+00
          2   -1    0    0  501    0  0.00000000000E+00  0.00000000000E+00  0.67650244509E+03  0.67650244509E+03  0.00000000000E+00 0. -1.
         -2   -1    0    0    0  501 -0.00000000000E+00 -0.00000000000E+00 -0.17605291758E+03  0.17605291758E+03  0.00000000000E+00 0.  1.
         23    2    1    2    0    0  0.52768377403E+02  0.31248872458E+03  0.32134994759E+03  0.46764225178E+03  0.12243276602E+03 0.  0.
          5    1    1    2  502    0  0.19877496478E+02 -0.18485571670E+03  0.58850023030E+02  0.19505780803E+03  0.41800000000E+01 0.  1.
         -5    1    1    2    0  502 -0.72645873881E+02 -0.12763300788E+03  0.12024955689E+03  0.18985530286E+03  0.41800000000E+01 0.  1.
        -11    1    3    3    0    0  0.51244060812E+02  0.51440917514E+02  0.10978704748E+03  0.13162567211E+03  0.00000000000E+00 0. -1.
         11    1    3    3    0    0  0.15243165907E+01  0.26104780707E+03  0.21156290011E+03  0.33601657968E+03  0.00000000000E+00 0.  1.
</event>
<event>
 7    1  0.4274778E-006  0.1271361E+03  0.7561462E-02  0.1231768E+00
          2   -1    0    0  501    0  0.00000000000E+00  0.00000000000E+00  0.59837350038E+03  0.59837350038E+03  0.00000000000E+00 0. -1.
         -2   -1    0    0    0  501 -0.00000000000E+00 -0.00000000000E+00 -0.45114127714E+02  0.45114127714E+02  0.00000000000E+00 0.  1.
         23    2    1    2    0    0  0.11145740884E+00  0.68598373852E+02  0.45838007523E+03  0.47215673851E+03  0.90077428001E+02 0.  0.
          5    1    1    2  502    0  0.39542441346E+01 -0.10464241457E+03  0.80248059105E+02  0.13199581192E+03  0.41800000000E+01 0.  1.
         -5    1    1    2    0  502 -0.40657015434E+01  0.36044040716E+02  0.14631238335E+02  0.39335077671E+02  0.41800000000E+01 0.  1.
        -11    1    3    3    0    0 -0.43718924821E+02  0.46672260173E+02  0.27536588966E+03  0.28269421191E+03  0.00000000000E+00 0.  1.
         11    1    3    3    0    0  0.43830382229E+02  0.21926113680E+02  0.18301418557E+03  0.18946252660E+03  0.00000000000E+00 0. -1.
</event>
<event>
 7    1  0.4274778E-006  0.1001174E+03  0.7561462E-02  0.1280049E+00
          4   -1    0    0  501    0  0.00000000000E+00  0.00000000000E+00  0.19101149922E+03  0.19101149922E+03  0.00000000000E+00 0. -1.
         -4   -1    0    0    0  501 -0.00000000000E+00 -0.00000000000E+00 -0.87539885135E+02  0.87539885135E+02  0.00000000000E+00 0.  1.
         23    2    1    2    0    0 -0.32912979709E+02  0.62018797582E+02  0.77305657108E+02  0.13825860542E+03  0.90607294773E+02 0.  0.
          5    1    1    2  502    0 -0.37381277546E+01 -0.45979235901E+02  0.67987066507E+02  0.82266501964E+02  0.41800000000E+01 0. -1.
         -5    1    1    2    0  502  0.36651107464E+02 -0.16039561681E+02 -0.41821109526E+02  0.58026276972E+02  0.41800000000E+01 0.  1.
        -11    1    3    3    0    0 -0.50121664243E+02  0.76325248337E+02  0.68753811197E+02  0.11430140557E+03  0.00000000000E+00 0. -1.
         11    1    3    3    0    0  0.17208684533E+02 -0.14306450755E+02  0.85518459115E+01  0.23957199859E+02  0.00000000000E+00 0.  1.
</event>
<event>
 7    1  0.4274778E-006  0.9705384E+02  0.7561462E-02  0.1286616E+00
          2   -1    0    0  501    0  0.00000000000E+00  0.00000000000E+00  0.21712065294E+03  0.21712065294E+03  0.00000000000E+00 0. -1.
         -2   -1    0    0    0  501 -0.00000000000E+00 -0.00000000000E+00 -0.60782534041E+02  0.60782534041E+02  0.00000000000E+00 0.  1.
         23    2    1    2    0    0  0.20828067115E+02 -0.32989745698E+02  0.80963559932E+02  0.12673605862E+03  0.89357701495E+02 0.  0.
          5    1    1    2  502    0 -0.59472972906E+02  0.24993823278E+02  0.88296151272E+02  0.10943220932E+03  0.41800000000E+01 0. -1.
         -5    1    1    2    0  502  0.38644905791E+02  0.79959224194E+01 -0.12921592309E+02  0.41734919034E+02  0.41800000000E+01 0. -1.
        -11    1    3    3    0    0 -0.26488338942E+02  0.74689811948E+01  0.41028103984E+01  0.27825363127E+02  0.00000000000E+00 0.  1.
         11    1    3    3    0    0  0.47316406056E+02 -0.40458726892E+02  0.76860749534E+02  0.98910695492E+02  0.00000000000E+00 0. -1.
</event>
<event>
 7    1  0.4274778E-006  0.1114033E+03  0.7561462E-02  0.1257993E+00
          2   -1    0    0  501    0  0.00000000000E+00  0.00000000000E+00  0.17745556202E+03  0.17745556202E+03  0.00000000000E+00 0. -1.
         -2   -1    0    0    0  501 -0.00000000000E+00 -0.00000000000E+00 -0.87446341643E+02  0.87446341643E+02  0.00000000000E+00 0.  1.
         23    2    1    2    0    0  0.34925432431E+02 -0.35449471691E+02  0.77260504805E+02  0.12967421165E+03  0.91486418062E+02 0.  0.
          5    1    1    2  502    0 -0.10966981025E+02  0.81582314433E+02  0.59714876722E+01  0.82638246388E+02  0.41800000000E+01 0.  1.
         -5    1    1    2    0  502 -0.23958451407E+02 -0.46132842742E+02  0.67772278962E+01  0.52589445626E+02  0.41800000000E+01 0.  1.
        -11    1    3    3    0    0  0.41327209437E+02  0.98491987379E+01  0.31767664018E+01  0.42603248707E+02  0.00000000000E+00 0.  1.
         11    1    3    3    0    0 -0.64017770056E+01 -0.45298670428E+02  0.74083738403E+02  0.87070962939E+02  0.00000000000E+00 0. -1.
</event>
<event>
 7    1  0.4274778E-006  0.8976087E+02  0.7561462E-02  0.1303432E+00
          1   -1    0    0  501    0  0.00000000000E+00  0.00000000000E+00  0.25911503141E+03  0.25911503141E+03  0.00000000000E+00 0. -1.
         -1   -1    0    0    0  501 -0.00000000000E+00 -0.00000000000E+00 -0.50744119064E+02  0.50744119064E+02  0.00000000000E+00 0.  1.
         23    2    1    2    0    0  0.22056987886E+02  0.11314616057E+02  0.13024026328E+03  0.16030652523E+03  0.90117282465E+02 0.  0.
          5    1    1    2  502    0  0.42909624232E+02  0.24903477625E+02  0.15269146121E+02  0.52077233729E+02  0.41800000000E+01 0. -1.
         -5    1    1    2    0  502 -0.64966612118E+02 -0.36218093682E+02  0.62861502947E+02  0.97475391525E+02  0.41800000000E+01 0. -1.
        -11    1    3    3    0    0  0.29893930356E+01 -0.19103176593E+02 -0.53353897797E+01  0.20058270383E+02  0.00000000000E+00 0.  1.
         11    1    3    3    0    0  0.19067594851E+02  0.30417792650E+02  0.13557565306E+03  0.14024825484E+03  0.00000000000E+00 0. -1.
</event>
<event>
 7    1  0.4274778E-006  0.1070296E+03  0.7561462E-02  0.1266172E+00
          2   -1    0    0  501    0  0.00000000000E+00  0.00000000000E+00  0.19331980640E+03  0.19331980640E+03  0.00000000000E+00 0.  1.
         -2   -1    0    0    0  501 -0.00000000000E+00 -0.00000000000E+00 -0.17893570995E+03  0.17893570995E+03  0.00000000000E+00 0. -1.
         23    2    1    2    0    0  0.32600904883E+02  0.74928257337E+02  0.12956731759E+03  0.18361347011E+03  0.10123810483E+03 0.  0.
          5    1    1    2  502    0 -0.21602893830E+02 -0.65174232715E+02 -0.14199542458E+03  0.15778003243E+03  0.41800000000E+01 0. -1.
         -5    1    1    2    0  502 -0.10998011054E+02 -0.97540246220E+01  0.26812203435E+02  0.30862013811E+02  0.41800000000E+01 0. -1.
        -11    1    3    3    0    0 -0.25658856426E+02 -0.95413814496E+01  0.24232601977E+02  0.36560003715E+02  0.00000000000E+00 0. -1.
         11    1    3    3    0    0  0.58259761310E+02  0.84469638787E+02  0.10533471562E+03  0.14705346640E+03  0.00000000000E+00 0.  1.
</event>
<event>
 7    1  0.4274778E-006  0.1323004E+03  0.7561462E-02  0.1224082E+00
          2   -1    0    0  501    0  0.00000000000E+00  0.00000000000E+00  0.63740309480E+03  0.63740309480E+03  0.00000000000E+00 0. -1.
         -2   -1    0    0    0  501 -0.00000000000E+00 -0.00000000000E+00 -0.35386474130E+02  0.35386474130E+02  0.00000000000E+00 0.  1.
         23    2    1    2    0    0  0.91084858026E+02  0.47662161685E+02  0.29673817661E+03  0.32723156746E+03  0.91971844964E+02 0.  0.
          5    1    1    2  502    0  0.17450352293E+02 -0.17333119368E+02  0.15854575189E+03  0.16049666559E+03  0.41800000000E+01 0. -1.
         -5    1    1    2    0  502 -0.10853521032E+03 -0.30329042317E+02  0.14673269216E+03  0.18506133588E+03  0.41800000000E+01 0. -1.
        -11    1    3    3    0    0  0.22964591362E+02  0.53789253890E+02  0.74547102435E+02  0.94751922260E+02  0.00000000000E+00 0.  1.
         11    1    3    3    0    0  0.68120266664E+02 -0.61270922041E+01  0.22219107418E+03  0.23247964520E+03  0.00000000000E+00 0. -1.
</event>
<event>
 7    1  0.4274778E-006  0.1357052E+03  0.7561462E-02  0.1219228E+00
          1   -1    0    0  501    0  0.00000000000E+00  0.00000000000E+00  0.16088496965E+04  0.16088496965E+04  0.00000000000E+00 0. -1.
         -1   -1    0    0    0  501 -0.00000000000E+00 -0.00000000000E+00 -0.15101665949E+02  0.15101665949E+02  0.00000000000E+00 0.  1.
         23    2    1    2    0    0 -0.56656520397E+02  0.99367803024E+02  0.67289172039E+03  0.68847678469E+03  0.90183668750E+02 0.  0.
          5    1    1    2  502    0  0.68177079750E+02 -0.81936778713E+02  0.39393305108E+03  0.40812065745E+03  0.41800000000E+01 0. -1.
         -5    1    1    2    0  502 -0.11520559352E+02 -0.17431024310E+02  0.52692325912E+03  0.52735392034E+03  0.41800000000E+01 0.  1.
        -11    1    3    3    0    0 -0.42993905954E+02 -0.13331276290E+00  0.15063888835E+03  0.15665429584E+03  0.00000000000E+00 0. -1.
         11    1    3    3    0    0 -0.13662614443E+02  0.99501115787E+02  0.52225283204E+03  0.53182248885E+03  0.00000000000E+00 0.  1.
</event>
<event>
 7    1  0.4274778E-006  0.1715829E+03  0.7561462E-02  0.1176207E+00
         -1   -1    0    0    0  501 -0.00000000000E+00  0.00000000000E+00  0.17917424235E+02  0.17917424235E+02  0.00000000000E+00 0.  1.
          1   -1    0    0  501    0  0.00000000000E+00 -0.00000000000E+00 -0.18215232233E+04  0.18215232233E+04  0.00000000000E+00 0. -1.
         23    2    1    2    0    0 -0.80833473136E+02 -0.11357375958E+03 -0.66988751637E+03  0.69035449169E+03  0.91689641548E+02 0.  0.
          5    1    1    2  502    0  0.50461370235E+02 -0.11946178812E+02 -0.20866666152E+03  0.21505420039E+03  0.41800000000E+01 0.  1.
         -5    1    1    2    0  502  0.30372102900E+02  0.12551993840E+03 -0.92505162114E+03  0.93403195541E+03  0.41800000000E+01 0.  1.
        -11    1    3    3    0    0 -0.65347672839E+02 -0.12609165766E+03 -0.62954551832E+03  0.64536577544E+03  0.00000000000E+00 0. -1.
         11    1    3    3    0    0 -0.15485800297E+02  0.12517898077E+02 -0.40341998048E+02  0.44988716248E+02  0.00000000000E+00 0.  1.
</event>
<event>
 7    1  0.4274778E-006  0.1132602E+03  0.7561462E-02  0.1254649E+00
         -2   -1    0    0    0  501 -0.00000000000E+00  0.00000000000E+00  0.19083382146E+02  0.19083382146E+02  0.00000000000E+00 0.  1.
          2   -1    0    0  501    0  0.00000000000E+00 -0.00000000000E+00 -0.77099563082E+03  0.77099563082E+03  0.00000000000E+00 0. -1.
         23    2    1    2    0    0 -0.14665613013E+02 -0.37587069969E+02 -0.46183473598E+03  0.47160715409E+03  0.86568564698E+02 0.  0.
          5    1    1    2  502    0  0.56511786899E+02 -0.19791167635E+02 -0.14330724234E+03  0.15536959317E+03  0.41800000000E+01 0.  1.
         -5    1    1    2    0  502 -0.41846173886E+02  0.57378237604E+02 -0.14677027035E+03  0.16310226571E+03  0.41800000000E+01 0.  1.
        -11    1    3    3    0    0  0.34394381541E+02 -0.30148389144E+02 -0.20829659788E+03  0.21325893073E+03  0.00000000000E+00 0.  1.
         11    1    3    3    0    0 -0.49059994553E+02 -0.74386808255E+01 -0.25353813811E+03  0.25834822336E+03  0.00000000000E+00 0. -1.
</event>
<event>
 7    1  0.4274778E-006  0.1420552E+03  0.7561462E-02  0.1210590E+00
          2   -1    0    0  501    0  0.00000000000E+00  0.00000000000E+00  0.24889363852E+03  0.24889363852E+03  0.00000000000E+00 0. -1.
         -2   -1    0    0    0  501 -0.00000000000E+00 -0.00000000000E+00 -0.13861267490E+03  0.13861267490E+03  0.00000000000E+00 0.  1.
         23    2    1    2    0    0  0.96943762267E+01 -0.11091786693E+03  0.15753956483E+03  0.21350126099E+03  0.91473055166E+02 0.  0.
          5    1    1    2  502    0 -0.38290387125E+02  0.10518494736E+03 -0.73970825054E+02  0.13423554767E+03  0.41800000000E+01 0.  1.
         -5    1    1    2    0  502  0.28596010899E+02  0.57329195727E+01  0.26712223839E+02  0.39769504756E+02  0.41800000000E+01 0.  1.
        -11    1    3    3    0    0  0.22357274428E+02  0.74671982792E+01  0.15728402533E+02  0.28337067883E+02  0.00000000000E+00 0.  1.
         11    1    3    3    0    0 -0.12662898201E+02 -0.11838506521E+03  0.14181116230E+03  0.18516419311E+03  0.00000000000E+00 0. -1.
</event>
<event>
 7    1  0.4274778E-006  0.2233458E+03  0.7561462E-02  0.1131413E+00
         -3   -1    0    0    0  501 -0.00000000000E+00  0.00000000000E+00  0.49986609269E+03  0.49986609269E+03  0.00000000000E+00 0.  1.
          3   -1    0    0  501    0  0.00000000000E+00 -0.00000000000E+00 -0.10454468306E+03  0.10454468306E+03  0.00000000000E+00 0. -1.
         23    2    1    2    0    0  0.18358067057E+03  0.79889904602E+02  0.15804747924E+03  0.26970076302E+03  0.87608426622E+02 0.  0.
          5    1    1    2  502    0 -0.82053173947E+00  0.21194007187E+02  0.48733761273E+02  0.53313329485E+02  0.41800000000E+01 0.  1.
         -5    1    1    2    0  502 -0.18276013883E+03 -0.10108391179E+03  0.18854016912E+03  0.28139668324E+03  0.41800000000E+01 0.  1.
        -11    1    3    3    0    0  0.26824609218E+02  0.49795519008E+02  0.24732961624E+02  0.61732266795E+02  0.00000000000E+00 0.  1.
         11    1    3    3    0    0  0.15675606135E+03  0.30094385594E+02  0.13331451761E+03  0.20796849622E+03  0.00000000000E+00 0. -1.
</event>
<event>
 7    1  0.4274778E-006  0.3096977E+03  0.7561462E-02  0.1080491E+00
         -4   -1    0    0    0  501 -0.00000000000E+00  0.00000000000E+00  0.46703262042E+03  0.46703262042E+03  0.00000000000E+00 0.  1.
          4   -1    0    0  501    0  0.00000000000E+00 -0.00000000000E+00 -0.21909194285E+03  0.21909194285E+03  0.00000000000E+00 0. -1.
         23    2    1    2    0    0  0.25768125906E+03 -0.14126926712E+03  0.54206160021E+02  0.31257995395E+03  0.91713045558E+02 0.  0.
          5    1    1    2  502    0 -0.17667032626E+02  0.64583875315E+02  0.34352452001E+02  0.75370845497E+02  0.41800000000E+01 0. -1.
         -5    1    1    2    0  502 -0.24001422643E+03  0.76685391808E+02  0.15938206555E+03  0.29817376381E+03  0.41800000000E+01 0. -1.
        -11    1    3    3    0    0  0.44109638679E+02  0.23584038267E+00 -0.16026340175E+02  0.46931433224E+02  0.00000000000E+00 0.  1.
         11    1    3    3    0    0  0.21357162038E+03 -0.14150510751E+03  0.70232500195E+02  0.26564852073E+03  0.00000000000E+00 0. -1.
</event>
<event>
 7    1  0.4274778E-006  0.1323526E+03  0.7561462E-02  0.1224006E+00
         -3   -1    0    0    0  501 -0.00000000000E+00  0.00000000000E+00  0.20865592130E+03  0.20865592130E+03  0.00000000000E+00 0.  1.
          3   -1    0    0  501    0  0.00000000000E+00 -0.00000000000E+00 -0.16604598125E+03  0.16604598125E+03  0.00000000000E+00 0. -1.
         23    2    1    2    0    0  0.36972637910E+02  0.77355187440E+02 -0.10183598038E+03  0.16250382471E+03  0.93199383943E+02 0.  0.
          5    1    1    2  502    0  0.36056087062E+02 -0.70938004876E+01  0.16167398866E+01  0.37019584917E+02  0.41800000000E+01 0. -1.
         -5    1    1    2    0  502 -0.73028724973E+02 -0.70261386952E+02  0.14282918054E+03  0.17517849292E+03  0.41800000000E+01 0.  1.
        -11    1    3    3    0    0  0.30666189049E+02 -0.14711209776E+02 -0.22249692331E+02  0.40643371572E+02  0.00000000000E+00 0.  1.
         11    1    3    3    0    0  0.63064488616E+01  0.92066397216E+02 -0.79586288045E+02  0.12186045314E+03  0.00000000000E+00 0. -1.
</event>
<event>
 7    1  0.4274778E-006  0.8440617E+02  0.7561462E-02  0.1316993E+00
         -2   -1    0    0    0  501 -0.00000000000E+00  0.00000000000E+00  0.17358917330E+03  0.17358917330E+03  0.00000000000E+00 0.  1.
          2   -1    0    0  501    0  0.00000000000E+00 -0.00000000000E+00 -0.75617991218E+02  0.75617991218E+02  0.00000000000E+00 0. -1.
         23    2    1    2    0    0 -0.26215668167E+02 -0.24002068951E+02  0.29890040887E+02  0.10242419716E+03  0.91290421445E+02 0.  0.
          5    1    1    2  502    0  0.13589639436E+02 -0.27887215640E+02  0.85022035136E+02  0.90601291132E+02  0.41800000000E+01 0. -1.
         -5    1    1    2    0  502  0.12626028730E+02  0.51889284591E+02 -0.16940893938E+02  0.56181676232E+02  0.41800000000E+01 0. -1.
        -11    1    3    3    0    0  0.23508173071E+02  0.79757221625E+01  0.35193730471E+02  0.43067911600E+02  0.00000000000E+00 0.  1.
         11    1    3    3    0    0 -0.49723841237E+02 -0.31977791114E+02 -0.53036895837E+01  0.59356285557E+02  0.00000000000E+00 0. -1.
</event>
<event>
 7    1  0.4274778E-006  0.7055732E+02  0.7561462E-02  0.1358208E+00
          1   -1    0    0  501    0  0.00000000000E+00  0.00000000000E+00  0.46048462226E+02  0.46048462226E+02  0.00000000000E+00 0. -1.
         -1   -1    0    0    0  501 -0.00000000000E+00 -0.00000000000E+00 -0.31988237228E+03  0.31988237228E+03  0.00000000000E+00 0.  1.
         23    2    1    2    0    0 -0.47304798882E+02  0.16322573457E+02 -0.14780127876E+03  0.18142690010E+03  0.92554479506E+02 0.  0.
          5    1    1    2  502    0  0.12516078487E+01  0.63135434498E+01  0.24361185065E+02  0.25541477852E+02  0.41800000000E+01 0.  1.
         -5    1    1    2    0  502  0.46053191033E+02 -0.22636116907E+02 -0.15039381636E+03  0.15896245655E+03  0.41800000000E+01 0.  1.
        -11    1    3    3    0    0 -0.46101618671E+02 -0.16608021935E+02 -0.26457376208E+02  0.55688224900E+02  0.00000000000E+00 0. -1.
         11    1    3    3    0    0 -0.12031802105E+01  0.32930595392E+02 -0.12134390255E+03  0.12573867520E+03  0.00000000000E+00 0.  1.
</event>
<event>
 7    1  0.4274778E-006  0.1020920E+03  0.7561462E-02  0.1275957E+00
          2   -1    0    0  501    0  0.00000000000E+00  0.00000000000E+00  0.14523422148E+03  0.14523422148E+03  0.00000000000E+00 0. -1.
         -2   -1    0    0    0  501 -0.00000000000E+00 -0.00000000000E+00 -0.11002541914E+03  0.11002541914E+03  0.00000000000E+00 0.  1.
         23    2    1    2    0    0 -0.58336143585E+02  0.23615459420E+02  0.21607770842E+02  0.11456762561E+03  0.93263334193E+02 0.  0.
          5    1    1    2  502    0  0.58422952646E+02  0.37334867931E+02 -0.18218265700E+02  0.71808852967E+02  0.41800000000E+01 0. -1.
         -5    1    1    2    0  502 -0.86809060702E-01 -0.60950327351E+02  0.31819297200E+02  0.68883162052E+02  0.41800000000E+01 0. -1.
        -11    1    3    3    0    0 -0.56905069091E+02  0.74364501489E+01  0.53702723000E+02  0.78596883759E+02  0.00000000000E+00 0. -1.
         11    1    3    3    0    0 -0.14310744945E+01  0.16179009271E+02 -0.32094952158E+02  0.35970741850E+02  0.00000000000E+00 0.  1.
</event>
<event>
 7    1  0.4274778E-006  0.7397548E+02  0.7561462E-02  0.1347073E+00
          3   -1    0    0  501    0  0.00000000000E+00  0.00000000000E+00  0.85201168278E+02  0.85201168278E+02  0.00000000000E+00 0. -1.
         -3   -1    0    0    0  501 -0.00000000000E+00 -0.00000000000E+00 -0.15020561153E+03  0.15020561153E+03  0.00000000000E+00 0.  1.
         23    2    1    2    0    0  0.16775608889E+02 -0.11340224894E+02 -0.70085189595E+00  0.93306852291E+02  0.91080490430E+02 0.  0.
          5    1    1    2  502    0 -0.22857057900E+02  0.36500388010E+02  0.24350176833E+02  0.49650044638E+02  0.41800000000E+01 0. -1.
         -5    1    1    2    0  502  0.60814490111E+01 -0.25160163117E+02 -0.88653768187E+02  0.92449882876E+02  0.41800000000E+01 0. -1.
        -11    1    3    3    0    0  0.17858183033E+02 -0.43115899002E+02  0.24526185524E+02  0.52720292339E+02  0.00000000000E+00 0. -1.
         11    1    3    3    0    0 -0.10825741440E+01  0.31775674108E+02 -0.25227037420E+02  0.40586559952E+02  0.00000000000E+00 0.  1.
</event>
<event>
 7    1  0.4274778E-006  0.2014664E+03  0.7561462E-02  0.1148508E+00
         -1   -1    0    0    0  501 -0.00000000000E+00  0.00000000000E+00  0.93306618923E+03  0.93306618923E+03  0.00000000000E+00 0.  1.
          1   -1    0    0  501    0  0.00000000000E+00 -0.00000000000E+00 -0.47676615788E+02  0.47676615788E+02  0.00000000000E+00 0. -1.
         23    2    1    2    0    0 -0.14902453272E+03 -0.99988159505E+02  0.37591878540E+03  0.42629408125E+03  0.90585689238E+02 0.  0.
          5    1    1    2  502    0  0.15978735541E+03  0.10377501262E+03  0.38702299639E+03  0.43139949505E+03  0.41800000000E+01 0.  1.
         -5    1    1    2    0  502 -0.10762822687E+02 -0.37868531165E+01  0.12244779165E+03  0.12304922872E+03  0.41800000000E+01 0.  1.
        -11    1    3    3    0    0 -0.15147924956E+03 -0.64509272785E+02  0.32289715345E+03  0.36244997038E+03  0.00000000000E+00 0.  1.
         11    1    3    3    0    0  0.24547168361E+01 -0.35478886721E+02  0.53021631945E+02  0.63844110862E+02  0.00000000000E+00 0. -1.
</event>
<event>
 7    1  0.4274778E-006  0.9852765E+02  0.7561462E-02  0.1283423E+00
         -3   -1    0    0    0  501 -0.00000000000E+00  0.00000000000E+00  0.43395413382E+03  0.43395413382E+03  0.00000000000E+00 0.  1.
          3   -1    0    0  501    0  0.00000000000E+00 -0.00000000000E+00 -0.37364462740E+02  0.37364462740E+02  0.00000000000E+00 0. -1.
         23    2    1    2    0    0 -0.50859477687E+02 -0.40764178485E+02  0.14115605917E+03  0.17952764106E+03  0.89759323445E+02 0.  0.
          5    1    1    2  502    0  0.66876756308E+02  0.73598437822E+01  0.52448601374E+02  0.85410748861E+02  0.41800000000E+01 0.  1.
         -5    1    1    2    0  502 -0.16017278622E+02  0.33404334702E+02  0.20298501054E+03  0.20638020665E+03  0.41800000000E+01 0.  1.
        -11    1    3    3    0    0 -0.66866766708E+02 -0.33386956871E+02  0.14345136927E+03  0.16175335770E+03  0.00000000000E+00 0.  1.
         11    1    3    3    0    0  0.16007289021E+02 -0.73772216141E+01 -0.22953101051E+01  0.17774283362E+02  0.00000000000E+00 0. -1.
</event>
<event>
 7    1  0.4274778E-006  0.1494523E+03  0.7561462E-02  0.1201148E+00
          2   -1    0    0  501    0  0.00000000000E+00  0.00000000000E+00  0.18445431317E+03  0.18445431317E+03  0.00000000000E+00 0. -1.
         -2   -1    0    0    0  501 -0.00000000000E+00 -0.00000000000E+00 -0.13700968149E+03  0.13700968149E+03  0.00000000000E+00 0.  1.
         23    2    1    2    0    0 -0.10718470072E+03  0.22775476106E+02  0.28557905039E+02  0.14374546145E+03  0.88543330440E+02 0.  0.
          5    1    1    2  502    0  0.29424161863E+02  0.56896317958E+02  0.16532670664E+02  0.66285548182E+02  0.41800000000E+01 0. -1.
         -5    1    1    2    0  502  0.77760538860E+02 -0.79671794065E+02  0.23540559709E+01  0.11143298503E+03  0.41800000000E+01 0.  1.
        -11    1    3    3    0    0  0.39557767689E+01  0.10824457894E+02 -0.19036853088E+02  0.22253512847E+02  0.00000000000E+00 0.  1.
         11    1    3    3    0    0 -0.11114047749E+03  0.11951018212E+02  0.47594758127E+02  0.12149194860E+03  0.00000000000E+00 0. -1.
</event>
<event>
 7    1  0.4274778E-006  0.1321287E+03  0.7561462E-02  0.1224331E+00
         -1   -1    0    0    0  501 -0.00000000000E+00  0.00000000000E+00  0.84851887738E+02  0.84851887738E+02  0.00000000000E+00 0.  1.
          1   -1    0    0  501    0  0.00000000000E+00 -0.00000000000E+00 -0.26502888571E+03  0.26502888571E+03  0.00000000000E+00 0. -1.
         23    2    1    2    0    0  0.99453136634E+02 -0.21316455764E+02 -0.72709336263E+02  0.15611934297E+03  0.93494834065E+02 0.  0.
          5    1    1    2  502    0 -0.45411064508E+02  0.47556017288E+02  0.51133536881E+01  0.66085992056E+02  0.41800000000E+01 0. -1.
         -5    1    1    2    0  502 -0.54042072126E+02 -0.26239561524E+02 -0.11258101539E+03  0.12767543842E+03  0.41800000000E+01 0. -1.
        -11    1    3    3    0    0  0.11006929197E+03  0.45761132467E+01 -0.57420778197E+02  0.12423097688E+03  0.00000000000E+00 0.  1.
         11    1    3    3    0    0 -0.10616155339E+02 -0.25892569011E+02 -0.15288558066E+02  0.31888366090E+02  0.00000000000E+00 0. -1.
</event>
<event>
 7    1  0.4274778E-006  0.8964213E+02  0.7561462E-02  0.1303721E+00
         -2   -1    0    0    0  501 -0.00000000000E+00  0.00000000000E+00  0.16253090775E+03  0.16253090775E+03  0.00000000000E+00 0.  1.
          2   -1    0    0  501    0  0.00000000000E+00 -0.00000000000E+00 -0.13105470073E+03  0.13105470073E+03  0.00000000000E+00 0. -1.
         23    2    1    2    0    0  0.15007939205E+02 -0.79386986889E+02 -0.39520250561E+02  0.12861512472E+03  0.91937305685E+02 0.  0.
          5    1    1    2  502    0  0.18018125384E+02  0.52111350853E+02 -0.24304856345E+02  0.60402352372E+02  0.41800000000E+01 0. -1.
         -5    1    1    2    0  502 -0.33026064589E+02  0.27275636036E+02  0.95301313934E+02  0.10456813138E+03  0.41800000000E+01 0. -1.
        -11    1    3    3    0    0  0.14018400542E+02 -0.63304255161E+02  0.19282746470E+02  0.67644427610E+02  0.00000000000E+00 0.  1.
         11    1    3    3    0    0  0.98953866369E+00 -0.16082731729E+02 -0.58802997031E+02  0.60970697113E+02  0.00000000000E+00 0. -1.
</event>
<event>
 7    1  0.4274778E-006  0.1054622E+03  0.7561462E-02  0.1269212E+00
         -1   -1    0    0    0  501 -0.00000000000E+00  0.00000000000E+00  0.36039296319E+03  0.36039296319E+03  0.00000000000E+00 0.  1.
          1   -1    0    0  501    0  0.00000000000E+00 -0.00000000000E+00 -0.37426119644E+02  0.37426119644E+02  0.00000000000E+00 0. -1.
         23    2    1    2    0    0  0.30250779942E+02 -0.25228703418E+02  0.12251199867E+03  0.15827484228E+03  0.92141948725E+02 0.  0.
          5    1    1    2  502    0 -0.46102438900E+02 -0.33283375217E+02  0.44995905172E+02  0.72631410702E+02  0.41800000000E+01 0. -1.
         -5    1    1    2    0  502  0.15851658958E+02  0.58512078635E+02  0.15545893970E+03  0.16691282985E+03  0.41800000000E+01 0. -1.
        -11    1    3    3    0    0 -0.81169684555E+01 -0.47897408499E+02  0.34375022932E+02  0.59512092212E+02  0.00000000000E+00 0. -1.
         11    1    3    3    0    0  0.38367748398E+02  0.22668705081E+02  0.88136975742E+02  0.98762750064E+02  0.00000000000E+00 0.  1.
</event>
<event>
 7    1  0.4274778E-006  0.8742795E+02  0.7561462E-02  0.1309203E+00
          4   -1    0    0  501    0  0.00000000000E+00  0.00000000000E+00  0.11919131047E+03  0.11919131047E+03  0.00000000000E+00 0. -1.
         -4   -1    0    0    0  501 -0.00000000000E+00 -0.00000000000E+00 -0.14078506573E+03  0.14078506573E+03  0.00000000000E+00 0.  1.
         23    2    1    2    0    0 -0.65962207723E+02  0.27415884673E+02 -0.68028973035E+01  0.11517112953E+03  0.90085881725E+02 0.  0.
          5    1    1    2  502    0  0.48968533522E+02 -0.12054773478E+02 -0.69138800669E+02  0.85678941385E+02  0.41800000000E+01 0.  1.
         -5    1    1    2    0  502  0.16993674201E+02 -0.15361111196E+02  0.54347942709E+02  0.59126305285E+02  0.41800000000E+01 0.  1.
        -11    1    3    3    0    0 -0.70359585845E+02 -0.28168646093E+01 -0.30271158595E+02  0.76646911805E+02  0.00000000000E+00 0.  1.
         11    1    3    3    0    0  0.43973781220E+01  0.30232749283E+02  0.23468261291E+02  0.38524217728E+02  0.00000000000E+00 0. -1.
</event>
<event>
 7    1  0.4274778E-006  0.1075754E+03  0.7561462E-02  0.1265127E+00
          2   -1    0    0  501    0  0.00000000000E+00  0.00000000000E+00  0.30535242679E+03  0.30535242679E+03  0.00000000000E+00 0. -1.
         -2   -1    0    0    0  501 -0.00000000000E+00 -0.00000000000E+00 -0.45057370311E+02  0.45057370311E+02  0.00000000000E+00 0.  1.
         23    2    1    2    0    0  0.41491113055E+02 -0.10825655586E+02  0.99925483317E+02  0.14255318411E+03  0.92182432178E+02 0.  0.
          5    1    1    2  502    0  0.19370766385E+02 -0.38002414972E+02  0.20205464382E+02  0.47382943397E+02  0.41800000000E+01 0. -1.
         -5    1    1    2    0  502 -0.60861879440E+02  0.48828070558E+02  0.14016410878E+03  0.16047366960E+03  0.41800000000E+01 0. -1.
        -11    1    3    3    0    0 -0.19684194413E+02  0.17865727310E+02  0.66971800767E+01  0.27413572241E+02  0.00000000000E+00 0.  1.
         11    1    3    3    0    0  0.61175307468E+02 -0.28691382896E+02  0.93228303240E+02  0.11513961187E+03  0.00000000000E+00 0. -1.
</event>
<event>
 7    1  0.4274778E-006  0.1089058E+03  0.7561462E-02  0.1262610E+00
         -1   -1    0    0    0  501 -0.00000000000E+00  0.00000000000E+00  0.18632509746E+04  0.18632509746E+04  0.00000000000E+00 0.  1.
          1   -1    0    0  501    0  0.00000000000E+00 -0.00000000000E+00 -0.11783465249E+02  0.11783465249E+02  0.00000000000E+00 0. -1.
         23    2    1    2    0    0  0.12874336855E+01  0.25315245106E+02  0.22011823668E+03  0.23870021659E+03  0.88787590125E+02 0.  0.
          5    1    1    2  502    0  0.60794578293E+02 -0.23411218239E+01  0.72394404647E+03  0.72650802915E+03  0.41800000000E+01 0.  1.
         -5    1    1    2    0  502 -0.62082011978E+02 -0.22974123282E+02  0.90740522620E+03  0.90982619411E+03  0.41800000000E+01 0.  1.
        -11    1    3    3    0    0 -0.49932780389E+01 -0.32229351192E+02  0.57763499914E+02  0.66334650268E+02  0.00000000000E+00 0. -1.
         11    1    3    3    0    0  0.62807117243E+01  0.57544596298E+02  0.16235473677E+03  0.17236556632E+03  0.00000000000E+00 0.  1.
</event>
<event>
 7    1  0.4274778E-006  0.1210224E+03  0.7561462E-02  0.1241420E+00
          2   -1    0    0  501    0  0.00000000000E+00  0.00000000000E+00  0.15280168239E+03  0.15280168239E+03  0.00000000000E+00 0. -1.
         -2   -1    0    0    0  501 -0.00000000000E+00 -0.00000000000E+00 -0.12296266139E+03  0.12296266139E+03  0.00000000000E+00 0.  1.
         23    2    1    2    0    0  0.17160766476E+01 -0.60835445862E+02  0.71251180874E+02  0.13062204509E+03  0.91002700485E+02 0.  0.
          5    1    1    2  502    0 -0.62576732772E+02  0.26881329410E+02 -0.29404997069E+02  0.74300603011E+02  0.41800000000E+01 0.  1.
         -5    1    1    2    0  502  0.60860656124E+02  0.33954116452E+02 -0.12007162805E+02  0.70841695678E+02  0.41800000000E+01 0.  1.
        -11    1    3    3    0    0  0.36738795741E+02 -0.36285476123E+01  0.66811923334E+01  0.37517246717E+02  0.00000000000E+00 0.  1.
         11    1    3    3    0    0 -0.35022719093E+02 -0.57206898250E+02  0.64569988541E+02  0.93104798374E+02  0.00000000000E+00 0. -1.
</event>
<event>
 7    1  0.4274778E-006  0.8055678E+02  0.7561462E-02  0.1327479E+00
          2   -1    0    0  501    0  0.00000000000E+00  0.00000000000E+00  0.27840747651E+03  0.27840747651E+03  0.00000000000E+00 0. -1.
         -2   -1    0    0    0  501 -0.00000000000E+00 -0.00000000000E+00 -0.65609101033E+02  0.65609101033E+02  0.00000000000E+00 0.  1.
         23    2    1    2    0    0  0.56979844319E+02  0.95011020863E+01  0.16791581665E+03  0.19910733904E+03  0.90061297884E+02 0.  0.
          5    1    1    2  502    0 -0.57593712074E+02 -0.24324206278E+02  0.82882510081E+02  0.10390228852E+03  0.41800000000E+01 0.  1.
         -5    1    1    2    0  502  0.61386775479E+00  0.14823104191E+02 -0.37999951260E+02  0.41006949988E+02  0.41800000000E+01 0.  1.
        -11    1    3    3    0    0  0.32452750447E+00 -0.19425525349E+02  0.11422377319E+03  0.11586425987E+03  0.00000000000E+00 0. -1.
         11    1    3    3    0    0  0.56655316815E+02  0.28926627435E+02  0.53692043464E+02  0.83243079169E+02  0.00000000000E+00 0.  1.
</event>
<event>
 7    1  0.4274778E-006  0.1179565E+03  0.7561462E-02  0.1246507E+00
         -2   -1    0    0    0  501 -0.00000000000E+00  0.00000000000E+00  0.49799070624E+02  0.49799070624E+02  0.00000000000E+00 0.  1.
          2   -1    0    0  501    0  0.00000000000E+00 -0.00000000000E+00 -0.33747799148E+03  0.33747799148E+03  0.00000000000E+00 0. -1.
         23    2    1    2    0    0  0.22424981379E+02  0.67388173520E+02 -0.15057953988E+03  0.18856209069E+03  0.88529195709E+02 0.  0.
          5    1    1    2  502    0 -0.57192082140E+02 -0.82907974331E+02 -0.12012720667E+03  0.15682054920E+03  0.41800000000E+01 0.  1.
         -5    1    1    2    0  502  0.34767100761E+02  0.15519800811E+02 -0.16972174299E+02  0.41894422218E+02  0.41800000000E+01 0.  1.
        -11    1    3    3    0    0 -0.23280353378E+02  0.17361621570E+02 -0.71155813266E+01  0.29900372148E+02  0.00000000000E+00 0.  1.
         11    1    3    3    0    0  0.45705334758E+02  0.50026551950E+02 -0.14346395856E+03  0.15866171854E+03  0.00000000000E+00 0. -1.
</event>
<event>
 7    1  0.4274778E-006  0.1091561E+03  0.7561462E-02  0.1262141E+00
         -1   -1    0    0    0  501 -0.00000000000E+00  0.00000000000E+00  0.69543607791E+02  0.69543607791E+02  0.00000000000E+00 0.  1.
          1   -1    0    0  501    0  0.00000000000E+00 -0.00000000000E+00 -0.25999187067E+03  0.25999187067E+03  0.00000000000E+00 0. -1.
         23    2    1    2    0    0  0.23032873140E+02  0.22475726796E+02 -0.17357179391E+03  0.19927657247E+03  0.92457088175E+02 0.  0.
          5    1    1    2  502    0 -0.22603475582E+02  0.50687708821E+02 -0.11058079750E+02  0.56744290124E+02  0.41800000000E+01 0.  1.
         -5    1    1    2    0  502 -0.42939755790E+00 -0.73163435617E+02 -0.58183892214E+01  0.73514615871E+02  0.41800000000E+01 0.  1.
        -11    1    3    3    0    0  0.54057090210E+02  0.64138235566E+01 -0.62713799065E+02  0.83044125185E+02  0.00000000000E+00 0. -1.
         11    1    3    3    0    0 -0.31024217070E+02  0.16061903239E+02 -0.11085799485E+03  0.11623244729E+03  0.00000000000E+00 0.  1.
</event>
<event>
 7    1  0.4274778E-006  0.2022975E+03  0.7561462E-02  0.1147815E+00
         -2   -1    0    0    0  501 -0.00000000000E+00  0.00000000000E+00  0.11541051913E+03  0.11541051913E+03  0.00000000000E+00 0.  1.
          2   -1    0    0  501    0  0.00000000000E+00 -0.00000000000E+00 -0.41238222731E+03  0.41238222731E+03  0.00000000000E+00 0. -1.
         23    2    1    2    0    0  0.77001264103E+02 -0.16973969428E+03 -0.17777223272E+03  0.27363256926E+03  0.92363725252E+02 0.  0.
          5    1    1    2  502    0 -0.79625175836E+02  0.41538444118E+02 -0.20299750051E+02  0.92169209712E+02  0.41800000000E+01 0. -1.
         -5    1    1    2    0  502  0.26239117337E+01  0.12820125016E+03 -0.98899725406E+02  0.16199096747E+03  0.41800000000E+01 0. -1.
        -11    1    3    3    0    0  0.36851554648E+02 -0.79728611018E+02 -0.14544159061E+03  0.16990569377E+03  0.00000000000E+00 0. -1.
         11    1    3    3    0    0  0.40149709455E+02 -0.90011083262E+02 -0.32330642112E+02  0.10372687549E+03  0.00000000000E+00 0.  1.
</event>
<event>
 7    1  0.4274778E-006  0.1207966E+03  0.7561462E-02  0.1241789E+00
          2   -1    0    0  501    0  0.00000000000E+00  0.00000000000E+00  0.47598333880E+03  0.47598333880E+03  0.00000000000E+00 0. -1.
         -2   -1    0    0    0  501 -0.00000000000E+00 -0.00000000000E+00 -0.33875207189E+02  0.33875207189E+02  0.00000000000E+00 0.  1.
         23    2    1    2    0    0  0.22606215890E+02 -0.59867209249E+02  0.19093694057E+03  0.22205763712E+03  0.93581810138E+02 0.  0.
          5    1    1    2  502    0 -0.42186566683E+02 -0.27100277783E+02  0.10708060373E+03  0.11831255030E+03  0.41800000000E+01 0.  1.
         -5    1    1    2    0  502  0.19580350793E+02  0.86967487032E+02  0.14409058732E+03  0.16948835857E+03  0.41800000000E+01 0.  1.
        -11    1    3    3    0    0  0.30201472440E+02  0.99564008594E+01  0.11186224865E+03  0.11629454642E+03  0.00000000000E+00 0. -1.
         11    1    3    3    0    0 -0.75952565498E+01 -0.69823610109E+02  0.79074691920E+02  0.10576309069E+03  0.00000000000E+00 0.  1.
</event>
<event>
 7    1  0.4274778E-006  0.1172991E+03  0.7561462E-02  0.1247620E+00
          1   -1    0    0  501    0  0.00000000000E+00  0.00000000000E+00  0.28220044936E+03  0.28220044936E+03  0.00000000000E+00 0. -1.
         -1   -1    0    0    0  501 -0.00000000000E+00 -0.00000000000E+00 -0.55865274814E+02  0.55865274814E+02  0.00000000000E+00 0.  1.
         23    2    1    2    0    0  0.57042992898E+02  0.86947786584E+01  0.13572993047E+03  0.17319148516E+03  0.90791928557E+02 0.  0.
          5    1    1    2  502    0 -0.93684790387E+02 -0.56505269011E+01  0.39823484625E+02  0.10203994675E+03  0.41800000000E+01 0. -1.
         -5    1    1    2    0  502  0.36641797489E+02 -0.30442517573E+01  0.50781759449E+02  0.62834292267E+02  0.41800000000E+01 0. -1.
        -11    1    3    3    0    0 -0.10902634300E+01  0.38363372107E+02  0.73982216131E+02  0.83344497704E+02  0.00000000000E+00 0. -1.
         11    1    3    3    0    0  0.58133256328E+02 -0.29668593449E+02  0.61747714337E+02  0.89846987453E+02  0.00000000000E+00 0.  1.
</event>
<event>
 7    1  0.4274778E-006  0.1000870E+03  0.7561462E-02  0.1280113E+00
         -3   -1    0    0    0  501 -0.00000000000E+00  0.00000000000E+00  0.30350834475E+02  0.30350834475E+02  0.00000000000E+00 0.  1.
          3   -1    0    0  501    0  0.00000000000E+00 -0.00000000000E+00 -0.50113144060E+03  0.50113144060E+03  0.00000000000E+00 0. -1.
         23    2    1    2    0    0 -0.59054369331E+00 -0.10384432082E+02 -0.27926326076E+03  0.30249730594E+03  0.11579493134E+03 0.  0.
          5    1    1    2  502    0 -0.25624684515E+01 -0.51804167315E+02 -0.13540664267E+03  0.14506091574E+03  0.41800000000E+01 0. -1.
         -5    1    1    2    0  502  0.31530121448E+01  0.62188599397E+02 -0.56110702697E+02  0.83924053392E+02  0.41800000000E+01 0. -1.
        -11    1    3    3    0    0 -0.12544572941E+02  0.35846557853E+02 -0.29174137874E+02  0.47890211326E+02  0.00000000000E+00 0. -1.
         11    1    3    3    0    0  0.11954029248E+02 -0.46230989934E+02 -0.25008912288E+03  0.25460709462E+03  0.00000000000E+00 0.  1.
</event>
<event>
 7    1  0.4274778E-006  0.1087035E+03  0.7561462E-02  0.1262990E+00
          1   -1    0    0  501    0  0.00000000000E+00  0.00000000000E+00  0.62871078021E+03  0.62871078021E+03  0.00000000000E+00 0. -1.
         -1   -1    0    0    0  501 -0.00000000000E+00 -0.00000000000E+00 -0.19217718253E+02  0.19217718253E+02  0.00000000000E+00 0.  1.
         23    2    1    2    0    0 -0.14900170318E+02 -0.20604064514E+01  0.29216177352E+03  0.30649537687E+03  0.91403795253E+02 0.  0.
          5    1    1    2  502    0 -0.46738415293E+02  0.32275671236E+02  0.15512450686E+03  0.16524915566E+03  0.41800000000E+01 0.  1.
         -5    1    1    2    0  502  0.61638585611E+02 -0.30215264784E+02  0.16220678158E+03  0.17618396593E+03  0.41800000000E+01 0.  1.
        -11    1    3    3    0    0  0.24684715009E+02  0.31335235332E+02  0.14924836896E+03  0.15448724143E+03  0.00000000000E+00 0.  1.
         11    1    3    3    0    0 -0.39584885327E+02 -0.33395641783E+02  0.14291340457E+03  0.15200813544E+03  0.00000000000E+00 0. -1.
</event>
<event>
 7    1  0.4274778E-006  0.7889420E+02  0.7561462E-02  0.1332219E+00
         -2   -1    0    0    0  501 -0.00000000000E+00  0.00000000000E+00  0.64093524599E+02  0.64093524599E+02  0.00000000000E+00 0.  1.
          2   -1    0    0  501    0  0.00000000000E+00 -0.00000000000E+00 -0.27570222639E+03  0.27570222639E+03  0.00000000000E+00 0. -1.
         23    2    1    2    0    0 -0.55484331655E+02 -0.19990875552E+02 -0.15839247710E+03  0.19161051329E+03  0.90267745270E+02 0.  0.
          5    1    1    2  502    0  0.67725780688E+02 -0.59632458312E+01 -0.82490767876E+02  0.10697916085E+03  0.41800000000E+01 0.  1.
         -5    1    1    2    0  502 -0.12241449033E+02  0.25954121383E+02  0.29274543183E+02  0.41206076855E+02  0.41800000000E+01 0.  1.
        -11    1    3    3    0    0 -0.24207450651E+02 -0.16289963971E+02  0.94176712955E+00  0.29193330034E+02  0.00000000000E+00 0.  1.
         11    1    3    3    0    0 -0.31276881004E+02 -0.37009115814E+01 -0.15933424423E+03  0.16241718325E+03  0.00000000000E+00 0. -1.
</event>
<event>
 7    1  0.4274778E-006  0.1090900E+03  0.7561462E-02  0.1262264E+00
         -1   -1    0    0    0  501 -0.00000000000E+00  0.00000000000E+00  0.24144374543E+03  0.24144374543E+03  0.00000000000E+00 0.  1.
          1   -1    0    0  501    0  0.00000000000E+00 -0.00000000000E+00 -0.49851032191E+02  0.49851032191E+02  0.00000000000E+00 0. -1.
         23    2    1    2    0    0  0.32446546813E+01 -0.17593319695E+00  0.82522663326E+02  0.12529946647E+03  0.94230608615E+02 0.  0.
          5    1    1    2  502    0  0.60173456702E+02  0.86682515002E+01  0.55999763420E+02  0.82761279465E+02  0.41800000000E+01 0. -1.
         -5    1    1    2    0  502 -0.63418111383E+02 -0.84923183032E+01  0.53070286495E+02  0.83234031683E+02  0.41800000000E+01 0. -1.
        -11    1    3    3    0    0 -0.32418493925E+02  0.31661530006E+02  0.50000101228E+02  0.67479043810E+02  0.00000000000E+00 0.  1.
         11    1    3    3    0    0  0.35663148607E+02 -0.31837463203E+02  0.32522562098E+02  0.57820422665E+02  0.00000000000E+00 0. -1.
</event>
<event>
 7    1  0.4274778E-006  0.1228689E+03  0.7561462E-02  0.1238438E+00
          1   -1    0    0  501    0  0.00000000000E+00  0.00000000000E+00  0.17975338091E+03  0.17975338091E+03  0.00000000000E+00 0. -1.
         -1   -1    0    0    0  501 -0.00000000000E+00 -0.00000000000E+00 -0.10889020788E+03  0.10889020788E+03  0.00000000000E+00 0.  1.
         23    2    1    2    0    0  0.37281975766E+02 -0.79359916166E+02  0.33750993730E+02  0.13144269182E+03  0.91924477942E+02 0.  0.
          5    1    1    2  502    0 -0.72981147597E+02  0.56783725851E+02 -0.10799749614E+02  0.93191986875E+02  0.41800000000E+01 0.  1.
         -5    1    1    2    0  502  0.35699171831E+02  0.22576190314E+02  0.47911928920E+02  0.64008910094E+02  0.41800000000E+01 0.  1.
        -11    1    3    3    0    0  0.89395449469E+01 -0.81794699548E+02 -0.60691945749E+01  0.82505293532E+02  0.00000000000E+00 0.  1.
         11    1    3    3    0    0  0.28342430819E+02  0.24347833821E+01  0.39820188305E+02  0.48937398291E+02  0.00000000000E+00 0. -1.
</event>
<event>
 7    1  0.4274778E-006  0.1606322E+03  0.7561462E-02  0.1187985E+00
         -2   -1    0    0    0  501 -0.00000000000E+00  0.00000000000E+00  0.32432875392E+03  0.32432875392E+03  0.00000000000E+00 0.  1.
          2   -1    0    0  501    0  0.00000000000E+00 -0.00000000000E+00 -0.95116477167E+02  0.95116477167E+02  0.00000000000E+00 0. -1.
         23    2    1    2    0    0 -0.99077058108E+02 -0.94717521223E+02  0.92467621768E+02  0.18893664661E+03  0.91428240101E+02 0.  0.
          5    1    1    2  502    0  0.11888743756E+03  0.90015273979E+02  0.14509983164E+03  0.20810671758E+03  0.41800000000E+01 0.  1.
         -5    1    1    2    0  502 -0.19810379456E+02  0.47022472434E+01 -0.83551766567E+01  0.22401866893E+02  0.41800000000E+01 0.  1.
        -11    1    3    3    0    0 -0.34486345933E+02 -0.76927445994E+02  0.87888047378E+02  0.12178443609E+03  0.00000000000E+00 0.  1.
         11    1    3    3    0    0 -0.64590712174E+02 -0.17790075229E+02  0.45795743896E+01  0.67152210518E+02  0.00000000000E+00 0. -1.
</event>
<event>
 7    1  0.4274778E-006  0.1092795E+03  0.7561462E-02  0.1261910E+00
         -2   -1    0    0    0  501 -0.00000000000E+00  0.00000000000E+00  0.61567033221E+02  0.61567033221E+02  0.00000000000E+00 0.  1.
          2   -1    0    0  501    0  0.00000000000E+00 -0.00000000000E+00 -0.22576188857E+03  0.22576188857E+03  0.00000000000E+00 0. -1.
         23    2    1    2    0    0 -0.14156129213E+02  0.45122645071E+02 -0.81241910321E+02  0.12996025898E+03  0.89738352056E+02 0.  0.
          5    1    1    2  502    0 -0.14893542611E+02  0.32654761502E+02 -0.61801589822E+02  0.71589524128E+02  0.41800000000E+01 0. -1.
         -5    1    1    2    0  502  0.29049671824E+02 -0.77777406572E+02 -0.21151355209E+02  0.85779138684E+02  0.41800000000E+01 0. -1.
        -11    1    3    3    0    0 -0.51208910613E+02  0.22965876403E+02 -0.32523995465E+02  0.64865971712E+02  0.00000000000E+00 0.  1.
         11    1    3    3    0    0  0.37052781401E+02  0.22156768668E+02 -0.48717914856E+02  0.65094287270E+02  0.00000000000E+00 0. -1.
</event>
<event>
 7    1  0.4274778E-006  0.1747632E+03  0.7561462E-02  0.1172970E+00
         -2   -1    0    0    0  501 -0.00000000000E+00  0.00000000000E+00  0.49651339687E+02  0.49651339687E+02  0.00000000000E+00 0.  1.
          2   -1    0    0  501    0  0.00000000000E+00 -0.00000000000E+00 -0.94202580599E+03  0.94202580599E+03  0.00000000000E+00 0. -1.
         23    2    1    2    0    0  0.12107589465E+03  0.11503921147E+03 -0.61778282300E+03  0.64680260727E+03  0.93832851070E+02 0.  0.
          5    1    1    2  502    0 -0.12004513141E+03 -0.11573375303E+03 -0.16307449103E+03  0.23327215263E+03  0.41800000000E+01 0.  1.
         -5    1    1    2    0  502 -0.10307632397E+01  0.69454156222E+00 -0.11151715227E+03  0.11160238578E+03  0.41800000000E+01 0.  1.
        -11    1    3    3    0    0  0.16570328296E+02  0.55860463244E+02 -0.10439545758E+03  0.11955491917E+03  0.00000000000E+00 0.  1.
         11    1    3    3    0    0  0.10450556635E+03  0.59178748225E+02 -0.51338736541E+03  0.52724768810E+03  0.00000000000E+00 0. -1.
</event>
<event>
 7    1  0.4274778E-006  0.1360775E+03  0.7561462E-02  0.1218707E+00
         -2   -1    0    0    0  501 -0.00000000000E+00  0.00000000000E+00  0.21042212684E+03  0.21042212684E+03  0.00000000000E+00 0.  1.
          2   -1    0    0  501    0  0.00000000000E+00 -0.00000000000E+00 -0.14949797725E+03  0.14949797725E+03  0.00000000000E+00 0. -1.
         23    2    1    2    0    0  0.81852263302E+02 -0.98023155351E+02 -0.28508420240E+02  0.16003428069E+03  0.92140702071E+02 0.  0.
          5    1    1    2  502    0 -0.32885054725E+02 -0.94022183400E+00 -0.24455718536E+02  0.41205162425E+02  0.41800000000E+01 0. -1.
         -5    1    1    2    0  502 -0.48967208577E+02  0.98963377185E+02  0.11388828837E+03  0.15868066098E+03  0.41800000000E+01 0. -1.
        -11    1    3    3    0    0  0.38317881170E+01 -0.10861163527E+02 -0.40814520005E+02  0.42408401485E+02  0.00000000000E+00 0. -1.
         11    1    3    3    0    0  0.78020475185E+02 -0.87161991824E+02  0.12306099764E+02  0.11762587920E+03  0.00000000000E+00 0.  1.
</event>
<event>
 7    1  0.4274778E-006  0.2188841E+03  0.7561462E-02  0.1134718E+00
         -1   -1    0    0    0  501 -0.00000000000E+00  0.00000000000E+00  0.13075580269E+03  0.13075580269E+03  0.00000000000E+00 0.  1.
          1   -1    0    0  501    0  0.00000000000E+00 -0.00000000000E+00 -0.42788012442E+03  0.42788012442E+03  0.00000000000E+00 0. -1.
         23    2    1    2    0    0 -0.80193745795E+02  0.18582524911E+03 -0.20880680729E+03  0.30483962415E+03  0.91459573637E+02 0.  0.
          5    1    1    2  502    0  0.93979644528E+02 -0.17250064303E+03 -0.10948764920E+03  0.22493035179E+03  0.41800000000E+01 0.  1.
         -5    1    1    2    0  502 -0.13785898733E+02 -0.13324606082E+02  0.21170134752E+02  0.28865951163E+02  0.41800000000E+01 0.  1.
        -11    1    3    3    0    0 -0.50690854017E+02  0.22100995483E+02 -0.44030403352E+02  0.70687290949E+02  0.00000000000E+00 0.  1.
         11    1    3    3    0    0 -0.29502891778E+02  0.16372425363E+03 -0.16477640393E+03  0.23415233320E+03  0.00000000000E+00 0. -1.
</event>
<event>
 7    1  0.4274778E-006  0.9693511E+02  0.7561462E-02  0.1286876E+00
          1   -1    0    0  501    0  0.00000000000E+00  0.00000000000E+00  0.94193637238E+03  0.94193637238E+03  0.00000000000E+00 0. -1.
         -1   -1    0    0    0  501 -0.00000000000E+00 -0.00000000000E+00 -0.14317438994E+02  0.14317438994E+02  0.00000000000E+00 0.  1.
         23    2    1    2    0    0 -0.22248267019E+02 -0.29993521417E+02  0.47780460752E+03  0.48787809950E+03  0.91286364219E+02 0.  0.
          5    1    1    2  502    0  0.29485978744E+01 -0.31192794177E+02  0.33737299485E+03  0.33885054920E+03  0.41800000000E+01 0. -1.
         -5    1    1    2    0  502  0.19299669144E+02  0.61186315594E+02  0.11244133101E+03  0.12952516267E+03  0.41800000000E+01 0. -1.
        -11    1    3    3    0    0 -0.57715896545E+02 -0.16614860439E+02  0.31971188354E+03  0.32530426800E+03  0.00000000000E+00 0. -1.
         11    1    3    3    0    0  0.35467629526E+02 -0.13378660978E+02  0.15809272399E+03  0.16257383151E+03  0.00000000000E+00 0.  1.
</event>
<event>
 7    1  0.4274778E-006  0.1509915E+03  0.7561462E-02  0.1199260E+00
          2   -1    0    0  501    0  0.00000000000E+00  0.00000000000E+00  0.13154688987E+03  0.13154688987E+03  0.00000000000E+00 0. -1.
         -2   -1    0    0    0  501 -0.00000000000E+00 -0.00000000000E+00 -0.19380549770E+03  0.19380549770E+03  0.00000000000E+00 0.  1.
         23    2    1    2    0    0  0.62622537760E+02  0.97321331548E+02 -0.45761548270E+02  0.15414419326E+03  0.90957623131E+02 0.  0.
          5    1    1    2  502    0 -0.85824846972E+02 -0.32757517852E+02  0.18921947369E+02  0.93885418601E+02  0.41800000000E+01 0.  1.
         -5    1    1    2    0  502  0.23202309213E+02 -0.64563813697E+02 -0.35419006930E+02  0.77322775712E+02  0.41800000000E+01 0.  1.
        -11    1    3    3    0    0 -0.14815990692E+02  0.46155771020E+02  0.43411751100E+01  0.48669441953E+02  0.00000000000E+00 0. -1.
         11    1    3    3    0    0  0.77438528452E+02  0.51165560528E+02 -0.50102723380E+02  0.10547475131E+03  0.00000000000E+00 0.  1.
</event>
<event>
 7    1  0.4274778E-006  0.1250835E+03  0.7561462E-02  0.1234939E+00
          1   -1    0    0  501    0  0.00000000000E+00  0.00000000000E+00  0.34743947164E+02  0.34743947164E+02  0.00000000000E+00 0. -1.
         -1   -1    0    0    0  501 -0.00000000000E+00 -0.00000000000E+00 -0.54857853565E+03  0.54857853565E+03  0.00000000000E+00 0.  1.
         23    2    1    2    0    0 -0.82494162467E+02  0.56716669701E+01 -0.17829211310E+03  0.21782751149E+03  0.93932382723E+02 0.  0.
          5    1    1    2  502    0  0.55349050989E+01 -0.47566256812E+02 -0.18610023761E+03  0.19220810285E+03  0.41800000000E+01 0. -1.
         -5    1    1    2    0  502  0.76959257368E+02  0.41894589842E+02 -0.14944223778E+03  0.17328686847E+03  0.41800000000E+01 0.  1.
        -11    1    3    3    0    0 -0.36140809537E+02  0.42052805429E+02 -0.13106525236E+03  0.14231197046E+03  0.00000000000E+00 0.  1.
         11    1    3    3    0    0 -0.46353352929E+02 -0.36381138459E+02 -0.47226860732E+02  0.75515541036E+02  0.00000000000E+00 0. -1.
</event>
<event>
 7    1  0.4274778E-006  0.1140206E+03  0.7561462E-02  0.1253301E+00
          2   -1    0    0  501    0  0.00000000000E+00  0.00000000000E+00  0.43932196628E+03  0.43932196628E+03  0.00000000000E+00 0. -1.
         -2   -1    0    0    0  501 -0.00000000000E+00 -0.00000000000E+00 -0.38190642892E+02  0.38190642892E+02  0.00000000000E+00 0.  1.
         23    2    1    2    0    0 -0.94456735295E+01  0.43695453055E+02  0.27956896179E+03  0.29745060217E+03  0.91211528709E+02 0.  0.
          5    1    1    2  502    0  0.63795149300E+02 -0.15828360983E+01  0.58608704092E+02  0.86745484261E+02  0.41800000000E+01 0. -1.
         -5    1    1    2    0  502 -0.54349475770E+02 -0.42112616956E+02  0.62953657511E+02  0.93316522746E+02  0.41800000000E+01 0. -1.
        -11    1    3    3    0    0 -0.25101393510E+02  0.64475541623E+02  0.24239508798E+03  0.25207648463E+03  0.00000000000E+00 0.  1.
         11    1    3    3    0    0  0.15655719981E+02 -0.20780088568E+02  0.37173873804E+02  0.45374117541E+02  0.00000000000E+00 0. -1.
</event>
<event>
 7    1  0.4274778E-006  0.8189266E+02  0.7561462E-02  0.1323765E+00
         -1   -1    0    0    0  501 -0.00000000000E+00  0.00000000000E+00  0.49021159473E+02  0.49021159473E+02  0.00000000000E+00 0.  1.
          1   -1    0    0  501    0  0.00000000000E+00 -0.00000000000E+00 -0.32445227111E+03  0.32445227111E+03  0.00000000000E+00 0. -1.
         23    2    1    2    0    0 -0.18025376207E+02  0.38950563762E+02 -0.18939338614E+03  0.21569941518E+03  0.93884622748E+02 0.  0.
          5    1    1    2  502    0 -0.10449268469E+02  0.15557393117E+02  0.24550581425E+02  0.31167661774E+02  0.41800000000E+01 0. -1.
         -5    1    1    2    0  502  0.28474644675E+02 -0.54507956879E+02 -0.11058830692E+03  0.12660635363E+03  0.41800000000E+01 0. -1.
        -11    1    3    3    0    0 -0.45286518154E+02  0.18748531939E+02 -0.42299386452E+02  0.64742677351E+02  0.00000000000E+00 0.  1.
         11    1    3    3    0    0  0.27261141948E+02  0.20202031823E+02 -0.14709399969E+03  0.15095673782E+03  0.00000000000E+00 0. -1.
</event>
<event>
 7    1  0.4274778E-006  0.8394842E+02  0.7561462E-02  0.1318206E+00
          1   -1    0    0  501    0  0.00000000000E+00  0.00000000000E+00  0.18511231940E+03  0.18511231940E+03  0.00000000000E+00 0. -1.
         -1   -1    0    0    0  501 -0.00000000000E+00 -0.00000000000E+00 -0.12986183813E+03  0.12986183813E+03  0.00000000000E+00 0.  1.
         23    2    1    2    0    0 -0.65332722518E+02 -0.91636546565E+01  0.11661161871E+03  0.16081308718E+03  0.88939542345E+02 0.  0.
          5    1    1    2  502    0  0.66220604753E+02  0.74001168478E+00 -0.96869664348E+02  0.11741771750E+03  0.41800000000E+01 0.  1.
         -5    1    1    2    0  502 -0.88788223523E+00  0.84236429717E+01  0.35508526900E+02  0.36743352846E+02  0.41800000000E+01 0.  1.
        -11    1    3    3    0    0 -0.78313933348E+01  0.24323468735E+02 -0.11203992847E+01  0.25577668921E+02  0.00000000000E+00 0.  1.
         11    1    3    3    0    0 -0.57501329183E+02 -0.33487123392E+02  0.11773201800E+03  0.13523541826E+03  0.00000000000E+00 0. -1.
</event>
<event>
 7    1  0.4274778E-006  0.1950689E+03  0.7561462E-02  0.1153967E+00
         -2   -1    0    0    0  501 -0.00000000000E+00  0.00000000000E+00  0.69083326908E+02  0.69083326908E+02  0.00000000000E+00 0.  1.
          2   -1    0    0  501    0  0.00000000000E+00 -0.00000000000E+00 -0.80045767731E+03  0.80045767731E+03  0.00000000000E+00 0. -1.
         23    2    1    2    0    0 -0.58738033723E+02 -0.16562687312E+03 -0.56607552195E+03  0.59779207039E+03  0.77662379323E+02 0.  0.
          5    1    1    2  502    0  0.64547696764E+01  0.15883366995E+03 -0.10053811509E+03  0.18813607773E+03  0.41800000000E+01 0.  1.
         -5    1    1    2    0  502  0.52283264047E+02  0.67932031757E+01 -0.64760713366E+02  0.83612856095E+02  0.41800000000E+01 0.  1.
        -11    1    3    3    0    0 -0.56022357904E+02 -0.11903916759E+03 -0.49918790834E+03  0.51623385770E+03  0.00000000000E+00 0. -1.
         11    1    3    3    0    0 -0.27156758194E+01 -0.46587705535E+02 -0.66887613611E+02  0.81558212687E+02  0.00000000000E+00 0.  1.
</event>
<event>
 7    1  0.4274778E-006  0.1413919E+03  0.7561462E-02  0.1211468E+00
          2   -1    0    0  501    0  0.00000000000E+00  0.00000000000E+00  0.16441646554E+03  0.16441646554E+03  0.00000000000E+00 0. -1.
         -2   -1    0    0    0  501 -0.00000000000E+00 -0.00000000000E+00 -0.16720479778E+03  0.16720479778E+03  0.00000000000E+00 0.  1.
         23    2    1    2    0    0 -0.11628632736E+03 -0.28724846143E+01  0.42334852552E+02  0.15494446216E+03  0.93192196643E+02 0.  0.
          5    1    1    2  502    0  0.57515157381E+02 -0.37963524271E+02 -0.72337885580E+02  0.99997322934E+02  0.41800000000E+01 0.  1.
         -5    1    1    2    0  502  0.58771169976E+02  0.40836008886E+02  0.27214700785E+02  0.76679478225E+02  0.41800000000E+01 0.  1.
        -11    1    3    3    0    0 -0.97969345355E+02 -0.35857594653E+02  0.91994502659E+01  0.10473007977E+03  0.00000000000E+00 0.  1.
         11    1    3    3    0    0 -0.18316982002E+02  0.32985110039E+02  0.33135402286E+02  0.50214382388E+02  0.00000000000E+00 0. -1.
</event>
<event>
 7    1  0.4274778E-006  0.8963869E+02  0.7561462E-02  0.1303729E+00
         -1   -1    0    0    0  501 -0.00000000000E+00  0.00000000000E+00  0.20057866150E+02  0.20057866150E+02  0.00000000000E+00 0.  1.
          1   -1    0    0  501    0  0.00000000000E+00 -0.00000000000E+00 -0.57994008146E+03  0.57994008146E+03  0.00000000000E+00 0. -1.
         23    2    1    2    0    0 -0.61426115185E+01  0.29029684364E+02 -0.27961177012E+03  0.29554240723E+03  0.91006143935E+02 0.  0.
          5    1    1    2  502    0  0.39398251108E+02  0.66550993621E+01 -0.23287498807E+03  0.23631492760E+03  0.41800000000E+01 0. -1.
         -5    1    1    2    0  502 -0.33255639589E+02 -0.35684783726E+02 -0.47395457123E+02  0.68140612779E+02  0.41800000000E+01 0.  1.
        -11    1    3    3    0    0  0.14008136073E+02 -0.27101164753E+02 -0.14707674015E+03  0.15020741826E+03  0.00000000000E+00 0.  1.
         11    1    3    3    0    0 -0.20150747592E+02  0.56130849116E+02 -0.13253502997E+03  0.14533498897E+03  0.00000000000E+00 0. -1.
</event>
<event>
 7    1  0.4274778E-006  0.1175886E+03  0.7561462E-02  0.1247129E+00
          1   -1    0    0  501    0  0.00000000000E+00  0.00000000000E+00  0.11752546315E+03  0.11752546315E+03  0.00000000000E+00 0. -1.
         -1   -1    0    0    0  501 -0.00000000000E+00 -0.00000000000E+00 -0.15062349915E+03  0.15062349915E+03  0.00000000000E+00 0.  1.
         23    2    1    2    0    0 -0.56660358993E+02 -0.46455455647E+02  0.23150534052E+02  0.11264523453E+03  0.82368052026E+02 0.  0.
          5    1    1    2  502    0  0.15730195845E+02  0.73775354998E+02  0.62955035218E+01  0.75811264539E+02  0.41800000000E+01 0.  1.
         -5    1    1    2    0  502  0.40930163149E+02 -0.27319899352E+02 -0.62544073582E+02  0.79692463233E+02  0.41800000000E+01 0.  1.
        -11    1    3    3    0    0 -0.63162996968E+02 -0.64972607632E+02  0.18922881133E+02  0.92569321910E+02  0.00000000000E+00 0.  1.
         11    1    3    3    0    0  0.65026379746E+01  0.18517151986E+02  0.42276529192E+01  0.20075912619E+02  0.00000000000E+00 0. -1.
</event>
<event>
 7    1  0.4274778E-006  0.1587294E+03  0.7561462E-02  0.1190139E+00
          1   -1    0    0  501    0  0.00000000000E+00  0.00000000000E+00  0.18956410311E+03  0.18956410311E+03  0.00000000000E+00 0. -1.
         -1   -1    0    0    0  501 -0.00000000000E+00 -0.00000000000E+00 -0.17513713073E+03  0.17513713073E+03  0.00000000000E+00 0.  1.
         23    2    1    2    0    0 -0.11885876925E+03  0.85534465987E+02  0.36337825991E+00  0.17159792700E+03  0.89454818797E+02 0.  0.
          5    1    1    2  502    0  0.80696774084E+02 -0.59724682083E+02  0.68543121274E+02  0.12163321451E+03  0.41800000000E+01 0. -1.
         -5    1    1    2    0  502  0.38161995167E+02 -0.25809783904E+02 -0.54479527157E+02  0.71470092343E+02  0.41800000000E+01 0. -1.
        -11    1    3    3    0    0 -0.94531175308E+02  0.10372684116E+03  0.69585493193E+01  0.14051271149E+03  0.00000000000E+00 0. -1.
         11    1    3    3    0    0 -0.24327593942E+02 -0.18192375175E+02 -0.65951710594E+01  0.31085215502E+02  0.00000000000E+00 0.  1.
</event>
<event>
 7    1  0.4964644E-006  0.3056577E+03  0.7561462E-02  0.1082446E+00
          1   -1    0    0  501    0  0.00000000000E+00  0.00000000000E+00  0.88369847158E+03  0.88369847158E+03  0.00000000000E+00 0. -1.
         -1   -1    0    0    0  501 -0.00000000000E+00 -0.00000000000E+00 -0.11616563363E+03  0.11616563363E+03  0.00000000000E+00 0.  1.
         23    2    1    2    0    0  0.29976851733E+03  0.29850961425E+01  0.33623220877E+03  0.45992139816E+03  0.92765939281E+02 0.  0.
          5    1    1    2  502    0 -0.29686363631E+03  0.67391067081E+00  0.43902815848E+03  0.52999214056E+03  0.41800000000E+01 0. -1.
         -5    1    1    2    0  502 -0.29048810198E+01 -0.36590068133E+01 -0.77275292973E+01  0.99505664984E+01  0.41800000000E+01 0. -1.
        -11    1    3    3    0    0  0.20395710344E+03 -0.31395626003E+02  0.26410388313E+03  0.33516420820E+03  0.00000000000E+00 0.  1.
         11    1    3    3    0    0  0.95811413888E+02  0.34380722145E+02  0.72128325643E+02  0.12475718996E+03  0.00000000000E+00 0. -1.
</event>
<event>
 7    1  0.4274778E-006  0.1447670E+03  0.7561462E-02  0.1207055E+00
         -2   -1    0    0    0  501 -0.00000000000E+00  0.00000000000E+00  0.46895288709E+02  0.46895288709E+02  0.00000000000E+00 0.  1.
          2   -1    0    0  501    0  0.00000000000E+00 -0.00000000000E+00 -0.53779271179E+03  0.53779271179E+03  0.00000000000E+00 0. -1.
         23    2    1    2    0    0 -0.47206974247E+02  0.10401987518E+03 -0.26102762081E+03  0.29914179827E+03  0.91114015373E+02 0.  0.
          5    1    1    2  502    0 -0.11024171772E+02 -0.79681906308E+02 -0.49824224682E+02  0.94713591006E+02  0.41800000000E+01 0.  1.
         -5    1    1    2    0  502  0.58231146019E+02 -0.24337968876E+02 -0.18004557759E+03  0.19083261122E+03  0.41800000000E+01 0.  1.
        -11    1    3    3    0    0 -0.67025762616E+02  0.38531046626E+02 -0.12761579768E+03  0.14920752738E+03  0.00000000000E+00 0.  1.
         11    1    3    3    0    0  0.19818788369E+02  0.65488828558E+02 -0.13341182313E+03  0.14993427089E+03  0.00000000000E+00 0. -1.
</event>
<event>
 7    1  0.4274778E-006  0.7920730E+02  0.7561462E-02  0.1331316E+00
          2   -1    0    0  501    0  0.00000000000E+00  0.00000000000E+00  0.69663284753E+02  0.69663284753E+02  0.00000000000E+00 0. -1.
         -2   -1    0    0    0  501 -0.00000000000E+00 -0.00000000000E+00 -0.32156808190E+03  0.32156808190E+03  0.00000000000E+00 0.  1.
         23    2    1    2    0    0  0.35353681439E+02 -0.22938662538E+02  0.11144094675E+02  0.10254028241E+03  0.92813003619E+02 0.  0.
          5    1    1    2  502    0 -0.83611376455E+01  0.42459220845E+02 -0.29032174847E+02  0.52278424171E+02  0.41800000000E+01 0. -1.
         -5    1    1    2    0  502 -0.26992543794E+02 -0.19520558307E+02 -0.23401671698E+03  0.23641266007E+03  0.41800000000E+01 0.  1.
        -11    1    3    3    0    0  0.14836150342E+01 -0.42317740438E+02  0.36583290015E+02  0.55958282476E+02  0.00000000000E+00 0.  1.
         11    1    3    3    0    0  0.33870066405E+02  0.19379077900E+02 -0.25439195340E+02  0.46581999937E+02  0.00000000000E+00 0. -1.
</event>
<event>
 7    1  0.4274778E-006  0.1180935E+03  0.7561462E-02  0.1246276E+00
          1   -1    0    0  501    0  0.00000000000E+00  0.00000000000E+00  0.87655096902E+03  0.87655096902E+03  0.00000000000E+00 0. -1.
         -1   -1    0    0    0  501 -0.00000000000E+00 -0.00000000000E+00 -0.16853100072E+02  0.16853100072E+02  0.00000000000E+00 0.  1.
         23    2    1    2    0    0 -0.50512715027E+02  0.10788520020E+02  0.44273645103E+03  0.45512967396E+03  0.91975695193E+02 0.  0.
          5    1    1    2  502    0  0.47606107800E+02  0.50530051459E+02  0.27290528466E+03  0.28162811364E+03  0.41800000000E+01 0.  1.
         -5    1    1    2    0  502  0.29066072265E+01 -0.61318571479E+02  0.14405613326E+03  0.15664628149E+03  0.41800000000E+01 0.  1.
        -11    1    3    3    0    0  0.17492429986E+02  0.29747712867E+02  0.16400766731E+03  0.16759900496E+03  0.00000000000E+00 0.  1.
         11    1    3    3    0    0 -0.68005145013E+02 -0.18959192847E+02  0.27872878372E+03  0.28753066900E+03  0.00000000000E+00 0. -1.
</event>
<event>
 7    1  0.4274778E-006  0.1230661E+03  0.7561462E-02  0.1238123E+00
          2   -1    0    0  501    0  0.00000000000E+00  0.00000000000E+00  0.15040167132E+03  0.15040167132E+03  0.00000000000E+00 0. -1.
         -2   -1    0    0    0  501 -0.00000000000E+00 -0.00000000000E+00 -0.35575162405E+03  0.35575162405E+03  0.00000000000E+00 0.  1.
         23    2    1    2    0    0 -0.91703610748E+02  0.65668544650E+02  0.87946142605E+02  0.16896506463E+03  0.89959763697E+02 0.  0.
          5    1    1    2  502    0  0.14865016769E+02  0.12236863836E+02  0.42296483510E+01  0.20151225403E+02  0.41800000000E+01 0. -1.
         -5    1    1    2    0  502  0.76838593979E+02 -0.77905408485E+02 -0.29752574369E+03  0.31703700534E+03  0.41800000000E+01 0.  1.
        -11    1    3    3    0    0 -0.23706085779E+02  0.20262057947E+01 -0.16554494843E+02  0.28985087759E+02  0.00000000000E+00 0.  1.
         11    1    3    3    0    0 -0.67997524969E+02  0.63642338855E+02  0.10450063745E+03  0.13997997687E+03  0.00000000000E+00 0. -1.
</event>
<event>
 7    1  0.4274778E-006  0.1217933E+03  0.7561462E-02  0.1240168E+00
         -2   -1    0    0    0  501 -0.00000000000E+00  0.00000000000E+00  0.25888766781E+03  0.25888766781E+03  0.00000000000E+00 0.  1.
          2   -1    0    0  501    0  0.00000000000E+00 -0.00000000000E+00 -0.98596281401E+02  0.98596281401E+02  0.00000000000E+00 0. -1.
         23    2    1    2    0    0  0.10271930429E+00 -0.96309193033E+02  0.16363136167E+01  0.13366778101E+03  0.92676463806E+02 0.  0.
          5    1    1    2  502    0 -0.46514043881E+02  0.84253556048E+02  0.14446070863E+03  0.17363348387E+03  0.41800000000E+01 0.  1.
         -5    1    1    2    0  502  0.46411324576E+02  0.12055636985E+02  0.14194364160E+02  0.50182684324E+02  0.41800000000E+01 0.  1.
        -11    1    3    3    0    0  0.11774321537E+02 -0.48297842166E+02  0.45653638367E+02  0.67494969455E+02  0.00000000000E+00 0.  1.
         11    1    3    3    0    0 -0.11671602233E+02 -0.48011350867E+02 -0.44017324751E+02  0.66172811554E+02  0.00000000000E+00 0. -1.
</event>
<event>
 7    1  0.4274778E-006  0.6668387E+02  0.7561462E-02  0.1371747E+00
          2   -1    0    0  501    0  0.00000000000E+00  0.00000000000E+00  0.28958242859E+02  0.28958242859E+02  0.00000000000E+00 0. -1.
         -2   -1    0    0    0  501 -0.00000000000E+00 -0.00000000000E+00 -0.45274836262E+03  0.45274836262E+03  0.00000000000E+00 0.  1.
         23    2    1    2    0    0  0.21688925652E+02 -0.85434167464E+01 -0.16159990969E+03  0.17965944790E+03  0.74963904249E+02 0.  0.
          5    1    1    2  502    0 -0.44426838085E+02  0.11974383014E+02 -0.81269001129E+01  0.46911072214E+02  0.41800000000E+01 0. -1.
         -5    1    1    2    0  502  0.22737912433E+02 -0.34309662673E+01 -0.25406330996E+03  0.25513608537E+03  0.41800000000E+01 0.  1.
        -11    1    3    3    0    0  0.13851089985E+02  0.25414096271E+02 -0.23654906417E+02  0.37380256562E+02  0.00000000000E+00 0.  1.
         11    1    3    3    0    0  0.78378356670E+01 -0.33957513017E+02 -0.13794500327E+03  0.14227919133E+03  0.00000000000E+00 0. -1.
</event>
<event>
 7    1  0.4274778E-006  0.1600427E+03  0.7561462E-02  0.1188649E+00
          2   -1    0    0  501    0  0.00000000000E+00  0.00000000000E+00  0.11219469165E+04  0.11219469165E+04  0.00000000000E+00 0. -1.
         -2   -1    0    0    0  501 -0.00000000000E+00 -0.00000000000E+00 -0.24623661063E+02  0.24623661063E+02  0.00000000000E+00 0.  1.
         23    2    1    2    0    0  0.10048197364E+03 -0.59797711617E+02  0.65315811434E+03  0.67054224270E+03  0.96638416684E+02 0.  0.
          5    1    1    2  502    0 -0.88750826410E+01  0.74856686204E+02  0.24252007332E+03  0.25399950576E+03  0.41800000000E+01 0. -1.
         -5    1    1    2    0  502 -0.91606890996E+02 -0.15058974587E+02  0.20164506775E+03  0.22202882908E+03  0.41800000000E+01 0. -1.
        -11    1    3    3    0    0  0.94108925473E+02 -0.26396875299E+01  0.41259859769E+03  0.42320333248E+03  0.00000000000E+00 0. -1.
         11    1    3    3    0    0  0.63730481636E+01 -0.57158024087E+02  0.24055951665E+03  0.24733891022E+03  0.00000000000E+00 0.  1.
</event>
<event>
 7    1  0.4274778E-006  0.1299358E+03  0.7561462E-02  0.1227551E+00
          2   -1    0    0  501    0  0.00000000000E+00  0.00000000000E+00  0.91883025871E+03  0.91883025871E+03  0.00000000000E+00 0. -1.
         -2   -1    0    0    0  501 -0.00000000000E+00 -0.00000000000E+00 -0.23204170260E+02  0.23204170260E+02  0.00000000000E+00 0.  1.
         23    2    1    2    0    0  0.91153821493E+02  0.30888939948E+02  0.46794871290E+03  0.48616353496E+03  0.90087951678E+02 0.  0.
          5    1    1    2  502    0 -0.99877329257E+02 -0.29805673619E+01  0.40871010925E+03  0.42076809584E+03  0.41800000000E+01 0.  1.
         -5    1    1    2    0  502  0.87235077635E+01 -0.27908372586E+02  0.18967266310E+02  0.35102798170E+02  0.41800000000E+01 0.  1.
        -11    1    3    3    0    0  0.55091507566E+02  0.61826564598E+02  0.33118408425E+03  0.34138028056E+03  0.00000000000E+00 0. -1.
         11    1    3    3    0    0  0.36062313927E+02 -0.30937624650E+02  0.13676462864E+03  0.14478325439E+03  0.00000000000E+00 0.  1.
</event>
<event>
 7    1  0.4274778E-006  0.1455534E+03  0.7561462E-02  0.1206046E+00
         -2   -1    0    0    0  501 -0.00000000000E+00  0.00000000000E+00  0.67579205392E+02  0.67579205392E+02  0.00000000000E+00 0.  1.
          2   -1    0    0  501    0  0.00000000000E+00 -0.00000000000E+00 -0.33353948692E+03  0.33353948692E+03  0.00000000000E+00 0. -1.
         23    2    1    2    0    0 -0.88713431111E+02  0.50991928604E+02 -0.10098007319E+03  0.17017336579E+03  0.91059044579E+02 0.  0.
          5    1    1    2  502    0  0.11376588748E+03 -0.21760699905E+02 -0.14967859379E+03  0.18930757791E+03  0.41800000000E+01 0. -1.
         -5    1    1    2    0  502 -0.25052456374E+02 -0.29231228699E+02 -0.15301614543E+02  0.41637748609E+02  0.41800000000E+01 0. -1.
        -11    1    3    3    0    0 -0.57745423541E+02 -0.18304902951E+02 -0.52047084106E+02  0.79865526830E+02  0.00000000000E+00 0.  1.
         11    1    3    3    0    0 -0.30968007570E+02  0.69296831555E+02 -0.48932989086E+02  0.90307838958E+02  0.00000000000E+00 0. -1.
</event>
<event>
 7    1  0.4274778E-006  0.1717307E+03  0.7561462E-02  0.1176055E+00
          2   -1    0    0  501    0  0.00000000000E+00  0.00000000000E+00  0.29451918878E+03  0.29451918878E+03  0.00000000000E+00 0. -1.
         -2   -1    0    0    0  501 -0.00000000000E+00 -0.00000000000E+00 -0.13549435336E+03  0.13549435336E+03  0.00000000000E+00 0.  1.
         23    2    1    2    0    0 -0.54771860822E+02  0.14125663451E+03  0.15234866610E+03  0.23342983320E+03  0.91246794096E+02 0.  0.
          5    1    1    2  502    0  0.80284505508E+02 -0.53516340187E+02  0.31884329848E+02  0.10170390052E+03  0.41800000000E+01 0.  1.
         -5    1    1    2    0  502 -0.25512644685E+02 -0.87740294327E+02 -0.25208160525E+02  0.94879808413E+02  0.41800000000E+01 0.  1.
        -11    1    3    3    0    0 -0.21970013260E+01  0.50364222432E+02  0.25261421058E+01  0.50475371321E+02  0.00000000000E+00 0.  1.
         11    1    3    3    0    0 -0.52574859496E+02  0.90892412082E+02  0.14982252400E+03  0.18295446188E+03  0.00000000000E+00 0. -1.
</event>
<event>
 7    1  0.4274778E-006  0.1045421E+03  0.7561462E-02  0.1271024E+00
         -2   -1    0    0    0  501 -0.00000000000E+00  0.00000000000E+00  0.32587350438E+02  0.32587350438E+02  0.00000000000E+00 0.  1.
          2   -1    0    0  501    0  0.00000000000E+00 -0.00000000000E+00 -0.69480940461E+03  0.69480940461E+03  0.00000000000E+00 0. -1.
         23    2    1    2    0    0 -0.52182181146E+02  0.75957963945E+02 -0.42273809626E+03  0.44192754715E+03  0.89999258806E+02 0.  0.
          5    1    1    2  502    0  0.19383431490E+02 -0.71369389644E+01 -0.19694062927E+03  0.19806498219E+03  0.41800000000E+01 0.  1.
         -5    1    1    2    0  502  0.32798749656E+02 -0.68821024981E+02 -0.42543328636E+02  0.87404225698E+02  0.41800000000E+01 0.  1.
        -11    1    3    3    0    0 -0.57040500453E+02  0.28157707508E+02 -0.34287366037E+03  0.34872456489E+03  0.00000000000E+00 0. -1.
         11    1    3    3    0    0  0.48583193075E+01  0.47800256437E+02 -0.79864435895E+02  0.93202982263E+02  0.00000000000E+00 0.  1.
</event>
<event>
 7    1  0.4274778E-006  0.1082409E+03  0.7561462E-02  0.1263863E+00
          1   -1    0    0  501    0  0.00000000000E+00  0.00000000000E+00  0.81602469099E+02  0.81602469099E+02  0.00000000000E+00 0. -1.
         -1   -1    0    0    0  501 -0.00000000000E+00 -0.00000000000E+00 -0.19128499507E+03  0.19128499507E+03  0.00000000000E+00 0.  1.
         23    2    1    2    0    0 -0.61435166926E+02  0.27348481967E+01 -0.47881423122E+02  0.12041311399E+03  0.91787407697E+02 0.  0.
          5    1    1    2  502    0 -0.14804903138E+02  0.46193085620E+02 -0.22646821845E+02  0.53696715502E+02  0.41800000000E+01 0. -1.
         -5    1    1    2    0  502  0.76240070064E+02 -0.48927933816E+02 -0.39154281006E+02  0.98777634675E+02  0.41800000000E+01 0. -1.
        -11    1    3    3    0    0 -0.45555263532E+02  0.23266043671E+02  0.14231199637E+02  0.53095365774E+02  0.00000000000E+00 0. -1.
         11    1    3    3    0    0 -0.15879903394E+02 -0.20531195474E+02 -0.62112622760E+02  0.67317748221E+02  0.00000000000E+00 0.  1.
</event>
<event>
 7    1  0.4274778E-006  0.2018188E+03  0.7561462E-02  0.1148213E+00
          1   -1    0    0  501    0  0.00000000000E+00  0.00000000000E+00  0.44202941988E+03  0.44202941988E+03  0.00000000000E+00 0. -1.
         -1   -1    0    0    0  501 -0.00000000000E+00 -0.00000000000E+00 -0.13636123648E+03  0.13636123648E+03  0.00000000000E+00 0.  1.
         23    2    1    2    0    0 -0.47928155750E+02  0.17610662756E+03  0.29242761436E+03  0.35673060377E+03  0.91826802422E+02 0.  0.
          5    1    1    2  502    0 -0.27941496382E+02  0.11429509246E+01 -0.92422167060E+00  0.28290637012E+02  0.41800000000E+01 0. -1.
         -5    1    1    2    0  502  0.75869652132E+02 -0.17724957849E+03  0.14164790714E+02  0.19336941559E+03  0.41800000000E+01 0. -1.
        -11    1    3    3    0    0 -0.18656871309E+02  0.68183317401E+02  0.41393925592E+02  0.81917645808E+02  0.00000000000E+00 0.  1.
         11    1    3    3    0    0 -0.29271284441E+02  0.10792331016E+03  0.25103368876E+03  0.27481295796E+03  0.00000000000E+00 0. -1.
</event>
<event>
 7    1  0.4274778E-006  0.1220394E+03  0.7561462E-02  0.1239770E+00
         -2   -1    0    0    0  501 -0.00000000000E+00  0.00000000000E+00  0.12406678336E+02  0.12406678336E+02  0.00000000000E+00 0.  1.
          2   -1    0    0  501    0  0.00000000000E+00 -0.00000000000E+00 -0.14351542685E+04  0.14351542685E+04  0.00000000000E+00 0. -1.
         23    2    1    2    0    0 -0.21121947704E+02 -0.75440623798E+02 -0.56978914317E+03  0.58192674253E+03  0.88553043993E+02 0.  0.
          5    1    1    2  502    0 -0.28371323280E+02 -0.80246298310E+01 -0.62509452931E+02  0.69240383985E+02  0.41800000000E+01 0.  1.
         -5    1    1    2    0  502  0.49493270984E+02  0.83465253629E+02 -0.79044899409E+03  0.79639382035E+03  0.41800000000E+01 0.  1.
        -11    1    3    3    0    0 -0.48714793517E+02 -0.15392043641E+02 -0.21052858373E+03  0.21663871003E+03  0.00000000000E+00 0.  1.
         11    1    3    3    0    0  0.27592845813E+02 -0.60048580157E+02 -0.35926055944E+03  0.36528803250E+03  0.00000000000E+00 0. -1.
</event>
<event>
 7    1  0.4274778E-006  0.1069841E+03  0.7561462E-02  0.1266259E+00
         -1   -1    0    0    0  501 -0.00000000000E+00  0.00000000000E+00  0.55472329112E+03  0.55472329112E+03  0.00000000000E+00 0.  1.
          1   -1    0    0  501    0  0.00000000000E+00 -0.00000000000E+00 -0.21894458047E+02  0.21894458047E+02  0.00000000000E+00 0. -1.
         23    2    1    2    0    0  0.96563663033E+01  0.13672830172E+02  0.18092916323E+03  0.20277153552E+03  0.90004121103E+02 0.  0.
          5    1    1    2  502    0 -0.10698833627E+02 -0.69373374267E+02  0.19939032219E+03  0.21142635380E+03  0.41800000000E+01 0.  1.
         -5    1    1    2    0  502  0.10424673238E+01  0.55700544094E+02  0.15250934764E+03  0.16241985984E+03  0.41800000000E+01 0.  1.
        -11    1    3    3    0    0  0.33337106925E+00  0.50141136710E+02  0.73806369592E+02  0.89227937997E+02  0.00000000000E+00 0.  1.
         11    1    3    3    0    0  0.93229952340E+01 -0.36468306538E+02  0.10712279364E+03  0.11354359753E+03  0.00000000000E+00 0. -1.
</event>
<event>
 7    1  0.4274778E-006  0.1044649E+03  0.7561462E-02  0.1271177E+00
          2   -1    0    0  501    0  0.00000000000E+00  0.00000000000E+00  0.97199742083E+02  0.97199742083E+02  0.00000000000E+00 0. -1.
         -2   -1    0    0    0  501 -0.00000000000E+00 -0.00000000000E+00 -0.16403857048E+03  0.16403857048E+03  0.00000000000E+00 0.  1.
         23    2    1    2    0    0  0.51004541148E+02  0.40785079321E+02 -0.47040813544E+02  0.11874393539E+03  0.87306346504E+02 0.  0.
          5    1    1    2  502    0  0.12266645678E+02  0.12016070848E+02 -0.51232396588E+02  0.54194902112E+02  0.41800000000E+01 0.  1.
         -5    1    1    2    0  502 -0.63271186826E+02 -0.52801150169E+02  0.31434381734E+02  0.88299475064E+02  0.41800000000E+01 0.  1.
        -11    1    3    3    0    0 -0.70920998709E+01 -0.22051543464E+02 -0.13618047788E+02  0.26870423801E+02  0.00000000000E+00 0.  1.
         11    1    3    3    0    0  0.58096641019E+02  0.62836622785E+02 -0.33422765757E+02  0.91873511588E+02  0.00000000000E+00 0. -1.
</event>
<event>
 7    1  0.4274778E-006  0.1005661E+03  0.7561462E-02  0.1279110E+00
         -1   -1    0    0    0  501 -0.00000000000E+00  0.00000000000E+00  0.17290059016E+03  0.17290059016E+03  0.00000000000E+00 0.  1.
          1   -1    0    0  501    0  0.00000000000E+00 -0.00000000000E+00 -0.92576779262E+02  0.92576779262E+02  0.00000000000E+00 0. -1.
         23    2    1    2    0    0 -0.24162337075E+02  0.30482839793E+02 -0.19880569390E+02  0.10056113483E+03  0.90577495797E+02 0.  0.
          5    1    1    2  502    0 -0.24972279516E+02 -0.64856565945E+02  0.42377659432E+02  0.81506608992E+02  0.41800000000E+01 0.  1.
         -5    1    1    2    0  502  0.49134616590E+02  0.34373726153E+02  0.57826720852E+02  0.83409625593E+02  0.41800000000E+01 0.  1.
        -11    1    3    3    0    0 -0.98802899178E+01 -0.18175367641E+02  0.25273481781E+02  0.32660572547E+02  0.00000000000E+00 0.  1.
         11    1    3    3    0    0 -0.14282047157E+02  0.48658207434E+02 -0.45154051171E+02  0.67900562286E+02  0.00000000000E+00 0. -1.
</event>
<event>
 7    1  0.4274778E-006  0.1432973E+03  0.7561462E-02  0.1208960E+00
         -3   -1    0    0    0  501 -0.00000000000E+00  0.00000000000E+00  0.22546970651E+02  0.22546970651E+02  0.00000000000E+00 0.  1.
          3   -1    0    0  501    0  0.00000000000E+00 -0.00000000000E+00 -0.10539343775E+04  0.10539343775E+04  0.00000000000E+00 0. -1.
         23    2    1    2    0    0 -0.10411860457E+03 -0.39065784447E+01 -0.59783341838E+03  0.61337019216E+03  0.89231448076E+02 0.  0.
          5    1    1    2  502    0 -0.15415381461E+02 -0.26194874494E+02 -0.38370409521E+02  0.49128058807E+02  0.41800000000E+01 0.  1.
         -5    1    1    2    0  502  0.11953398603E+03  0.30101452939E+02 -0.39518357897E+03  0.41398309721E+03  0.41800000000E+01 0.  1.
        -11    1    3    3    0    0  0.12490637900E+02 -0.97148802755E+01 -0.33019969362E+02  0.36615752220E+02  0.00000000000E+00 0.  1.
         11    1    3    3    0    0 -0.11660924247E+03  0.58083018307E+01 -0.56481344902E+03  0.57675443994E+03  0.00000000000E+00 0. -1.
</event>
<event>
 7    1  0.4274778E-006  0.1441808E+03  0.7561462E-02  0.1207812E+00
          1   -1    0    0  501    0  0.00000000000E+00  0.00000000000E+00  0.76247032770E+02  0.76247032770E+02  0.00000000000E+00 0. -1.
         -1   -1    0    0    0  501 -0.00000000000E+00 -0.00000000000E+00 -0.28582342276E+03  0.28582342276E+03  0.00000000000E+00 0.  1.
         23    2    1    2    0    0 -0.69020657180E+02  0.69662950457E+02 -0.11111419908E+03  0.17509736836E+03  0.93252052988E+02 0.  0.
          5    1    1    2  502    0  0.84676818429E+02 -0.34226637487E+01 -0.29093387990E+02  0.89698248763E+02  0.41800000000E+01 0. -1.
         -5    1    1    2    0  502 -0.15656161250E+02 -0.66240286708E+02 -0.69368802924E+02  0.97274838408E+02  0.41800000000E+01 0. -1.
        -11    1    3    3    0    0 -0.36269770912E+02 -0.18896913048E+02 -0.34304560823E+02  0.53379701179E+02  0.00000000000E+00 0. -1.
         11    1    3    3    0    0 -0.32750886268E+02  0.88559863505E+02 -0.76809638257E+02  0.12171766718E+03  0.00000000000E+00 0.  1.
</event>
<event>
 7    1  0.4274778E-006  0.1168607E+03  0.7561462E-02  0.1248368E+00
          2   -1    0    0  501    0  0.00000000000E+00  0.00000000000E+00  0.48730455815E+02  0.48730455815E+02  0.00000000000E+00 0. -1.
         -2   -1    0    0    0  501 -0.00000000000E+00 -0.00000000000E+00 -0.31547624101E+03  0.31547624101E+03  0.00000000000E+00 0.  1.
         23    2    1    2    0    0  0.35047267510E+02  0.27308062156E+02 -0.61097718387E+02  0.11943622437E+03  0.92509671278E+02 0.  0.
          5    1    1    2  502    0 -0.45411506566E+02  0.42231472446E+02 -0.10240816667E+03  0.11979401986E+03  0.41800000000E+01 0.  1.
         -5    1    1    2    0  502  0.10364239056E+02 -0.69539534602E+02 -0.10323990015E+03  0.12497645261E+03  0.41800000000E+01 0.  1.
        -11    1    3    3    0    0  0.43051921139E+02  0.56404735123E+02 -0.51818365265E+02  0.87864128271E+02  0.00000000000E+00 0.  1.
         11    1    3    3    0    0 -0.80046536289E+01 -0.29096672967E+02 -0.92793531219E+01  0.31572096095E+02  0.00000000000E+00 0. -1.
</event>
<event>
 7    1  0.4274778E-006  0.1694803E+03  0.7561462E-02  0.1178391E+00
          3   -1    0    0  501    0  0.00000000000E+00  0.00000000000E+00  0.10149382258E+04  0.10149382258E+04  0.00000000000E+00 0. -1.
         -3   -1    0    0    0  501 -0.00000000000E+00 -0.00000000000E+00 -0.32722930771E+02  0.32722930771E+02  0.00000000000E+00 0.  1.
         23    2    1    2    0    0 -0.13615715184E+03  0.17765117115E+02  0.59597364954E+03  0.61907917830E+03  0.96021188666E+02 0.  0.
          5    1    1    2  502    0  0.35164175574E+02  0.48507438428E+02  0.85727456054E+02  0.10467167692E+03  0.41800000000E+01 0. -1.
         -5    1    1    2    0  502  0.10099297626E+03 -0.66272555543E+02  0.30051418940E+03  0.32391030132E+03  0.41800000000E+01 0. -1.
        -11    1    3    3    0    0 -0.65796921090E+02  0.48008535613E+02  0.40895518278E+03  0.41698728498E+03  0.00000000000E+00 0. -1.
         11    1    3    3    0    0 -0.70360230748E+02 -0.30243418498E+02  0.18701846676E+03  0.20209189331E+03  0.00000000000E+00 0.  1.
</event>
<event>
 7    1  0.4274778E-006  0.1096911E+03  0.7561462E-02  0.1261143E+00
         -1   -1    0    0    0  501 -0.00000000000E+00  0.00000000000E+00  0.32961262478E+02  0.32961262478E+02  0.00000000000E+00 0.  1.
          1   -1    0    0  501    0  0.00000000000E+00 -0.00000000000E+00 -0.58465819962E+03  0.58465819962E+03  0.00000000000E+00 0. -1.
         23    2    1    2    0    0 -0.46769391932E+02 -0.65547167870E+02 -0.27947867812E+03  0.30740273163E+03  0.99520352967E+02 0.  0.
          5    1    1    2  502    0  0.59163531190E+02  0.45046718758E+02 -0.27576154679E+03  0.28564214217E+03  0.41800000000E+01 0.  1.
         -5    1    1    2    0  502 -0.12394139257E+02  0.20500449112E+02  0.35432877694E+01  0.24574588296E+02  0.41800000000E+01 0.  1.
        -11    1    3    3    0    0  0.28481455545E+01  0.20802269695E+02 -0.18196183874E+02  0.27783942577E+02  0.00000000000E+00 0.  1.
         11    1    3    3    0    0 -0.49617537487E+02 -0.86349437565E+02 -0.26128249424E+03  0.27961878905E+03  0.00000000000E+00 0. -1.
</event>
<event>
 7    1  0.4274778E-006  0.1169408E+03  0.7561462E-02  0.1248231E+00
         -2   -1    0    0    0  501 -0.00000000000E+00  0.00000000000E+00  0.29270745365E+03  0.29270745365E+03  0.00000000000E+00 0.  1.
          2   -1    0    0  501    0  0.00000000000E+00 -0.00000000000E+00 -0.12639886294E+03  0.12639886294E+03  0.00000000000E+00 0. -1.
         23    2    1    2    0    0 -0.11272380556E+02 -0.67442330247E+01 -0.19411969005E+02  0.95517964661E+02  0.92597547429E+02 0.  0.
          5    1    1    2  502    0  0.32682313399E+02  0.68255305357E+02 -0.42033848966E+02  0.86667393968E+02  0.41800000000E+01 0. -1.
         -5    1    1    2    0  502 -0.21409932843E+02 -0.61511072332E+02  0.22775440868E+03  0.23692095796E+03  0.41800000000E+01 0.  1.
        -11    1    3    3    0    0  0.40546401265E+02  0.17275454571E+00 -0.14281644199E+02  0.42988438687E+02  0.00000000000E+00 0. -1.
         11    1    3    3    0    0 -0.51818781821E+02 -0.69169875704E+01 -0.51303248067E+01  0.52529525975E+02  0.00000000000E+00 0.  1.
</event>
<event>
 7    1  0.4274778E-006  0.7221846E+02  0.7561462E-02  0.1352708E+00
         -1   -1    0    0    0  501 -0.00000000000E+00  0.00000000000E+00  0.14909518223E+03  0.14909518223E+03  0.00000000000E+00 0.  1.
          1   -1    0    0  501    0  0.00000000000E+00 -0.00000000000E+00 -0.76280118492E+02  0.76280118492E+02  0.00000000000E+00 0. -1.
         23    2    1    2    0    0  0.14479086005E+02 -0.30078754819E+01 -0.72253126046E+01  0.85458611716E+02  0.83858678309E+02 0.  0.
          5    1    1    2  502    0 -0.16259661630E+01 -0.51234372550E+02  0.13817083773E+02  0.53254003610E+02  0.41800000000E+01 0. -1.
         -5    1    1    2    0  502 -0.12853119842E+02  0.54242248032E+02  0.66223292571E+02  0.86662685397E+02  0.41800000000E+01 0.  1.
        -11    1    3    3    0    0  0.90641277007E+01  0.15426654242E+02  0.34866266341E+02  0.39189240878E+02  0.00000000000E+00 0.  1.
         11    1    3    3    0    0  0.54149583039E+01 -0.18434529724E+02 -0.42091578945E+02  0.46269370837E+02  0.00000000000E+00 0. -1.
</event>
<event>
 7    1  0.4274778E-006  0.1018855E+03  0.7561462E-02  0.1276380E+00
          1   -1    0    0  501    0  0.00000000000E+00  0.00000000000E+00  0.10804317898E+03  0.10804317898E+03  0.00000000000E+00 0. -1.
         -1   -1    0    0    0  501 -0.00000000000E+00 -0.00000000000E+00 -0.24388422625E+03  0.24388422625E+03  0.00000000000E+00 0.  1.
         23    2    1    2    0    0 -0.63333831522E+01 -0.10164632768E+02  0.69298812211E+02  0.11677142565E+03  0.93219144888E+02 0.  0.
          5    1    1    2  502    0 -0.46700525383E+02 -0.19140197038E+02 -0.64838533419E+02  0.82272680944E+02  0.41800000000E+01 0. -1.
         -5    1    1    2    0  502  0.53033908535E+02  0.29304829806E+02 -0.14030132606E+03  0.15288329863E+03  0.41800000000E+01 0.  1.
        -11    1    3    3    0    0 -0.38066960911E+02  0.24598271151E+02  0.23312679361E+02  0.50967141136E+02  0.00000000000E+00 0. -1.
         11    1    3    3    0    0  0.31733577758E+02 -0.34762903919E+02  0.45986132849E+02  0.65804284516E+02  0.00000000000E+00 0.  1.
</event>
<event>
 7    1  0.4274778E-006  0.9421291E+02  0.7561462E-02  0.1292959E+00
         -2   -1    0    0    0  501 -0.00000000000E+00  0.00000000000E+00  0.66153649311E+02  0.66153649311E+02  0.00000000000E+00 0.  1.
          2   -1    0    0  501    0  0.00000000000E+00 -0.00000000000E+00 -0.17615184807E+03  0.17615184807E+03  0.00000000000E+00 0. -1.
         23    2    1    2    0    0 -0.46885778934E+01 -0.22574294373E+02 -0.82560145407E+02  0.11219307371E+03  0.72384574668E+02 0.  0.
          5    1    1    2  502    0  0.23373853526E+02  0.65017980574E+02  0.10552441561E+02  0.70017863788E+02  0.41800000000E+01 0.  1.
         -5    1    1    2    0  502 -0.18685275633E+02 -0.42443686201E+02 -0.37990494917E+02  0.60094559886E+02  0.41800000000E+01 0.  1.
        -11    1    3    3    0    0  0.20575834018E+02  0.16322262940E+02 -0.15003279891E+02  0.30246977048E+02  0.00000000000E+00 0.  1.
         11    1    3    3    0    0 -0.25264411912E+02 -0.38896557312E+02 -0.67556865515E+02  0.81946096663E+02  0.00000000000E+00 0. -1.
</event>
<event>
 7    1  0.4274778E-006  0.9886147E+02  0.7561462E-02  0.1282708E+00
         -2   -1    0    0    0  501 -0.00000000000E+00  0.00000000000E+00  0.68511842079E+03  0.68511842079E+03  0.00000000000E+00 0.  1.
          2   -1    0    0  501    0  0.00000000000E+00 -0.00000000000E+00 -0.19340581351E+02  0.19340581351E+02  0.00000000000E+00 0. -1.
         23    2    1    2    0    0  0.33115756425E+02 -0.13646298292E+02  0.24695564423E+03  0.26589015430E+03  0.91802010627E+02 0.  0.
          5    1    1    2  502    0  0.57203840650E+01 -0.35953335360E+02  0.31452042358E+03  0.31664796599E+03  0.41800000000E+01 0.  1.
         -5    1    1    2    0  502 -0.38836140490E+02  0.49599633652E+02  0.10430177163E+03  0.12192088185E+03  0.41800000000E+01 0.  1.
        -11    1    3    3    0    0  0.35135355731E+02  0.34802322481E+02  0.13929020911E+03  0.14780885368E+03  0.00000000000E+00 0.  1.
         11    1    3    3    0    0 -0.20195993059E+01 -0.48448620773E+02  0.10766543512E+03  0.11808130062E+03  0.00000000000E+00 0. -1.
</event>
<event>
 7    1  0.4274778E-006  0.1640971E+03  0.7561462E-02  0.1184147E+00
          1   -1    0    0  501    0  0.00000000000E+00  0.00000000000E+00  0.30009400001E+02  0.30009400001E+02  0.00000000000E+00 0. -1.
         -1   -1    0    0    0  501 -0.00000000000E+00 -0.00000000000E+00 -0.13232746441E+04  0.13232746441E+04  0.00000000000E+00 0.  1.
         23    2    1    2    0    0  0.12984919179E+03  0.44923986043E+02 -0.27838063909E+03  0.32153055607E+03  0.83708668202E+02 0.  0.
          5    1    1    2  502    0 -0.85905368491E+02 -0.75907164359E+02 -0.45346432932E+03  0.46774886456E+03  0.41800000000E+01 0. -1.
         -5    1    1    2    0  502 -0.43943823295E+02  0.30983178316E+02 -0.56142027568E+03  0.56400462347E+03  0.41800000000E+01 0. -1.
        -11    1    3    3    0    0 -0.65106686292E+01  0.19868491417E+02 -0.24067856693E+02  0.31881146200E+02  0.00000000000E+00 0.  1.
         11    1    3    3    0    0  0.13635986042E+03  0.25055494626E+02 -0.25431278240E+03  0.28964940987E+03  0.00000000000E+00 0. -1.
</event>
<event>
 7    1  0.4274778E-006  0.1112001E+03  0.7561462E-02  0.1258364E+00
         -2   -1    0    0    0  501 -0.00000000000E+00  0.00000000000E+00  0.11190223595E+04  0.11190223595E+04  0.00000000000E+00 0. -1.
          2   -1    0    0  501    0  0.00000000000E+00 -0.00000000000E+00 -0.11204034705E+02  0.11204034705E+02  0.00000000000E+00 0.  1.
         23    2    1    2    0    0 -0.14880350929E+02 -0.23997530964E+02  0.44913698327E+03  0.45917769306E+03  0.91229478389E+02 0.  0.
          5    1    1    2  502    0 -0.52530185957E+01  0.73370059080E+02  0.33786995546E+03  0.34580968606E+03  0.41800000000E+01 0.  1.
         -5    1    1    2    0  502  0.20133369524E+02 -0.49372528116E+02  0.32081138605E+03  0.32523901506E+03  0.41800000000E+01 0.  1.
        -11    1    3    3    0    0 -0.28586006924E+02 -0.54643530437E+02  0.27430909318E+03  0.28115574654E+03  0.00000000000E+00 0.  1.
         11    1    3    3    0    0  0.13705655995E+02  0.30645999474E+02  0.17482789009E+03  0.17802194652E+03  0.00000000000E+00 0. -1.
</event>
<event>
 7    1  0.4274778E-006  0.1516337E+03  0.7561462E-02  0.1198480E+00
          2   -1    0    0  501    0  0.00000000000E+00  0.00000000000E+00  0.59271517249E+03  0.59271517249E+03  0.00000000000E+00 0. -1.
         -2   -1    0    0    0  501 -0.00000000000E+00 -0.00000000000E+00 -0.49912767247E+02  0.49912767247E+02  0.00000000000E+00 0.  1.
         23    2    1    2    0    0  0.11225444303E+03 -0.15007805964E+02  0.38737285559E+03  0.41321289617E+03  0.88661570570E+02 0.  0.
          5    1    1    2  502    0 -0.43420625038E+02  0.68669787479E+02  0.75937009403E+02  0.11128698122E+03  0.41800000000E+01 0. -1.
         -5    1    1    2    0  502 -0.68833817990E+02 -0.53661981515E+02  0.79492540255E+02  0.11812806235E+03  0.41800000000E+01 0. -1.
        -11    1    3    3    0    0  0.74761797561E+01  0.22138245833E+02  0.14096817107E+03  0.14289163883E+03  0.00000000000E+00 0. -1.
         11    1    3    3    0    0  0.10477826327E+03 -0.37146051797E+02  0.24640468451E+03  0.27032125734E+03  0.00000000000E+00 0.  1.
</event>
<event>
 7    1  0.4274778E-006  0.8910327E+02  0.7561462E-02  0.1305038E+00
          3   -1    0    0  501    0  0.00000000000E+00  0.00000000000E+00  0.13489126563E+03  0.13489126563E+03  0.00000000000E+00 0. -1.
         -3   -1    0    0    0  501 -0.00000000000E+00 -0.00000000000E+00 -0.12174071926E+03  0.12174071926E+03  0.00000000000E+00 0.  1.
         23    2    1    2    0    0 -0.58367823157E+02 -0.28582655896E+02  0.32177000183E+02  0.11438731831E+03  0.88460885433E+02 0.  0.
          5    1    1    2  502    0  0.33521684279E+02  0.28613530695E+02 -0.71465530181E+02  0.84066829724E+02  0.41800000000E+01 0.  1.
         -5    1    1    2    0  502  0.24846138878E+02 -0.30874799501E-01  0.52439076370E+02  0.58177836853E+02  0.41800000000E+01 0.  1.
        -11    1    3    3    0    0 -0.54601874458E+02  0.21378174594E+02  0.95421944429E+01  0.59409128239E+02  0.00000000000E+00 0.  1.
         11    1    3    3    0    0 -0.37659486981E+01 -0.49960830489E+02  0.22634805741E+02  0.54978190073E+02  0.00000000000E+00 0. -1.
</event>
<event>
 7    1  0.4274778E-006  0.1257127E+03  0.7561462E-02  0.1233960E+00
          1   -1    0    0  501    0  0.00000000000E+00  0.00000000000E+00  0.39254071411E+03  0.39254071411E+03  0.00000000000E+00 0. -1.
         -1   -1    0    0    0  501 -0.00000000000E+00 -0.00000000000E+00 -0.47096300859E+02  0.47096300859E+02  0.00000000000E+00 0.  1.
         23    2    1    2    0    0 -0.20369754001E+01  0.64580773360E+02  0.23609969357E+03  0.26136576422E+03  0.91619713188E+02 0.  0.
          5    1    1    2  502    0 -0.60482809425E+02 -0.21910542180E+02  0.42614313172E+02  0.77276737649E+02  0.41800000000E+01 0. -1.
         -5    1    1    2    0  502  0.62519784825E+02 -0.42670231180E+02  0.66730406503E+02  0.10099451310E+03  0.41800000000E+01 0. -1.
        -11    1    3    3    0    0 -0.42604657015E+02  0.11102289317E+02  0.77241343062E+02  0.88908057596E+02  0.00000000000E+00 0.  1.
         11    1    3    3    0    0  0.40567681615E+02  0.53478484043E+02  0.15885835051E+03  0.17245770663E+03  0.00000000000E+00 0. -1.
</event>
<event>
 7    1  0.4274778E-006  0.1429866E+03  0.7561462E-02  0.1209366E+00
         -2   -1    0    0    0  501 -0.00000000000E+00  0.00000000000E+00  0.16916913615E+02  0.16916913615E+02  0.00000000000E+00 0.  1.
          2   -1    0    0  501    0  0.00000000000E+00 -0.00000000000E+00 -0.12506741576E+04  0.12506741576E+04  0.00000000000E+00 0. -1.
         23    2    1    2    0    0  0.73751069266E+02 -0.54532211867E+02 -0.65505142186E+03  0.66845696084E+03  0.96588616658E+02 0.  0.
          5    1    1    2  502    0 -0.51548970991E+02  0.95335296065E+02 -0.40062132158E+03  0.41504340832E+03  0.41800000000E+01 0.  1.
         -5    1    1    2    0  502 -0.22202098275E+02 -0.40803084199E+02 -0.17808450056E+03  0.18409070207E+03  0.41800000000E+01 0.  1.
        -11    1    3    3    0    0 -0.22296119874E+02 -0.51866746280E+01 -0.74095628757E+02  0.77551149289E+02  0.00000000000E+00 0.  1.
         11    1    3    3    0    0  0.96047189140E+02 -0.49345537239E+02 -0.58095579310E+03  0.59090581155E+03  0.00000000000E+00 0. -1.
</event>
<event>
 7    1  0.4274778E-006  0.5522737E+02  0.7561462E-02  0.1419027E+00
         -3   -1    0    0    0  501 -0.00000000000E+00  0.00000000000E+00  0.15329104703E+03  0.15329104703E+03  0.00000000000E+00 0.  1.
          3   -1    0    0  501    0  0.00000000000E+00 -0.00000000000E+00 -0.17315801988E+03  0.17315801988E+03  0.00000000000E+00 0. -1.
         23    2    1    2    0    0  0.29068515595E+02 -0.11715730550E+02 -0.12671117702E+03  0.15898067859E+03  0.90757351451E+02 0.  0.
          5    1    1    2  502    0 -0.33637980868E+02  0.17223688721E+01  0.13381201944E+03  0.13804930010E+03  0.41800000000E+01 0.  1.
         -5    1    1    2    0  502  0.45694652734E+01  0.99933616782E+01 -0.26967815269E+02  0.29419088207E+02  0.41800000000E+01 0.  1.
        -11    1    3    3    0    0  0.39972049612E+02  0.93377302918E+01 -0.13346915809E+02  0.43163620316E+02  0.00000000000E+00 0.  1.
         11    1    3    3    0    0 -0.10903534017E+02 -0.21053460842E+02 -0.11336426122E+03  0.11581705828E+03  0.00000000000E+00 0. -1.
</event>
<event>
 7    1  0.4274778E-006  0.7473057E+02  0.7561462E-02  0.1344707E+00
          2   -1    0    0  501    0  0.00000000000E+00  0.00000000000E+00  0.22733476045E+03  0.22733476045E+03  0.00000000000E+00 0.  1.
         -2   -1    0    0    0  501 -0.00000000000E+00 -0.00000000000E+00 -0.56972058891E+02  0.56972058891E+02  0.00000000000E+00 0. -1.
         23    2    1    2    0    0 -0.20611413865E+02 -0.25798886625E+02  0.78279033627E+02  0.12550220101E+03  0.92373061123E+02 0.  0.
          5    1    1    2  502    0  0.30554000678E+02  0.97481379168E+01  0.12031444195E+03  0.12458575557E+03  0.41800000000E+01 0.  1.
         -5    1    1    2    0  502 -0.99425868125E+01  0.16050748708E+02 -0.28230774016E+02  0.34218862754E+02  0.41800000000E+01 0.  1.
        -11    1    3    3    0    0  0.32982966696E+02 -0.29237346783E+02  0.30291933556E+02  0.53481770516E+02  0.00000000000E+00 0. -1.
         11    1    3    3    0    0 -0.53594380561E+02  0.34384601577E+01  0.47987100070E+02  0.72020430498E+02  0.00000000000E+00 0.  1.
</event>
<event>
 7    1  0.4274778E-006  0.1096338E+03  0.7561462E-02  0.1261249E+00
         -1   -1    0    0    0  501 -0.00000000000E+00  0.00000000000E+00  0.13705118881E+03  0.13705118881E+03  0.00000000000E+00 0.  1.
          1   -1    0    0  501    0  0.00000000000E+00 -0.00000000000E+00 -0.10744987936E+03  0.10744987936E+03  0.00000000000E+00 0. -1.
         23    2    1    2    0    0 -0.17909347436E+02 -0.13783010592E+02 -0.34545052363E+02  0.10211741981E+03  0.93401770218E+02 0.  0.
          5    1    1    2  502    0  0.37806077107E+02  0.61256542293E+02  0.53162835859E+02  0.89584725017E+02  0.41800000000E+01 0.  1.
         -5    1    1    2    0  502 -0.19896729671E+02 -0.47473531701E+02  0.10983525954E+02  0.52798923343E+02  0.41800000000E+01 0.  1.
        -11    1    3    3    0    0  0.53303914408E+01  0.38203826737E+02 -0.85013418954E+01  0.39499598280E+02  0.00000000000E+00 0. -1.
         11    1    3    3    0    0 -0.23239738877E+02 -0.51986837329E+02 -0.26043710468E+02  0.62617821532E+02  0.00000000000E+00 0.  1.
</event>
<event>
 7    1  0.4274778E-006  0.2501674E+03  0.7561462E-02  0.1113199E+00
         -2   -1    0    0    0  501 -0.00000000000E+00  0.00000000000E+00  0.71751503841E+02  0.71751503841E+02  0.00000000000E+00 0.  1.
          2   -1    0    0  501    0  0.00000000000E+00 -0.00000000000E+00 -0.93557477998E+03  0.93557477998E+03  0.00000000000E+00 0. -1.
         23    2    1    2    0    0 -0.74811203622E+02 -0.22198687964E+03 -0.45196197433E+03  0.51727282107E+03  0.91796809607E+02 0.  0.
          5    1    1    2  502    0  0.99757093835E+02  0.10677781654E+03 -0.20253018354E+03  0.24977775625E+03  0.41800000000E+01 0.  1.
         -5    1    1    2    0  502 -0.24945890213E+02  0.11520906310E+03 -0.20933111827E+03  0.24027570650E+03  0.41800000000E+01 0.  1.
        -11    1    3    3    0    0 -0.59325875866E+02 -0.12977328729E+03 -0.18007028237E+03  0.22975197983E+03  0.00000000000E+00 0.  1.
         11    1    3    3    0    0 -0.15485327755E+02 -0.92213592345E+02 -0.27189169196E+03  0.28752084124E+03  0.00000000000E+00 0. -1.
</event>
<event>
 7    1  0.4274778E-006  0.9176354E+02  0.7561462E-02  0.1298636E+00
          2   -1    0    0  501    0  0.00000000000E+00  0.00000000000E+00  0.87299013759E+03  0.87299013759E+03  0.00000000000E+00 0. -1.
         -2   -1    0    0    0  501 -0.00000000000E+00 -0.00000000000E+00 -0.13977322667E+02  0.13977322667E+02  0.00000000000E+00 0.  1.
         23    2    1    2    0    0  0.10360645182E+01 -0.13375106836E+02  0.29747086267E+03  0.31150657803E+03  0.91473860220E+02 0.  0.
          5    1    1    2  502    0 -0.31745638131E+02  0.43697518348E+02  0.11842371305E+03  0.13022636777E+03  0.41800000000E+01 0.  1.
         -5    1    1    2    0  502  0.30709573613E+02 -0.30322411512E+02  0.44311823921E+03  0.44523451447E+03  0.41800000000E+01 0.  1.
        -11    1    3    3    0    0 -0.36520443016E+02  0.14427823975E+02  0.80569924175E+02  0.89629334174E+02  0.00000000000E+00 0.  1.
         11    1    3    3    0    0  0.37556507535E+02 -0.27802930812E+02  0.21690093849E+03  0.22187724385E+03  0.00000000000E+00 0. -1.
</event>
<event>
 7    1  0.4274778E-006  0.9121147E+02  0.7561462E-02  0.1299944E+00
          1   -1    0    0  501    0  0.00000000000E+00  0.00000000000E+00  0.86279910029E+02  0.86279910029E+02  0.00000000000E+00 0. -1.
         -1   -1    0    0    0  501 -0.00000000000E+00 -0.00000000000E+00 -0.15618804223E+03  0.15618804223E+03  0.00000000000E+00 0.  1.
         23    2    1    2    0    0  0.25511926483E+02  0.93153902351E+01  0.35988418633E+01  0.94858165737E+02  0.90815665257E+02 0.  0.
          5    1    1    2  502    0 -0.45928554397E+02  0.22085284005E+02 -0.92284398019E+02  0.10550390702E+03  0.41800000000E+01 0.  1.
         -5    1    1    2    0  502  0.20416627914E+02 -0.31400674240E+02  0.18777423957E+02  0.42105879501E+02  0.41800000000E+01 0.  1.
        -11    1    3    3    0    0  0.12886862762E+02  0.49672174576E+02 -0.54820082702E+01  0.51608609491E+02  0.00000000000E+00 0.  1.
         11    1    3    3    0    0  0.12625063721E+02 -0.40356784341E+02  0.90808501335E+01  0.43249556246E+02  0.00000000000E+00 0. -1.
</event>
<event>
 7    1  0.4274778E-006  0.9528521E+02  0.7561462E-02  0.1290535E+00
          3   -1    0    0  501    0  0.00000000000E+00  0.00000000000E+00  0.10178749125E+03  0.10178749125E+03  0.00000000000E+00 0. -1.
         -3   -1    0    0    0  501 -0.00000000000E+00 -0.00000000000E+00 -0.14687562926E+03  0.14687562926E+03  0.00000000000E+00 0.  1.
         23    2    1    2    0    0 -0.21548560962E+01 -0.36926235975E+02  0.20482253148E+02  0.10266579668E+03  0.93555078991E+02 0.  0.
          5    1    1    2  502    0 -0.20906958400E+02  0.65475181059E+02 -0.80696848239E+02  0.10608276938E+03  0.41800000000E+01 0. -1.
         -5    1    1    2    0  502  0.23061814497E+02 -0.28548945084E+02  0.15126457085E+02  0.39914554454E+02  0.41800000000E+01 0. -1.
        -11    1    3    3    0    0  0.25312870578E+02  0.12497887585E+02 -0.18709758827E+02  0.33867295232E+02  0.00000000000E+00 0.  1.
         11    1    3    3    0    0 -0.27467726674E+02 -0.49424123560E+02  0.39192011974E+02  0.68798501444E+02  0.00000000000E+00 0. -1.
</event>
<event>
 7    1  0.4274778E-006  0.1211869E+03  0.7561462E-02  0.1241152E+00
         -1   -1    0    0    0  501 -0.00000000000E+00  0.00000000000E+00  0.12108610956E+03  0.12108610956E+03  0.00000000000E+00 0.  1.
          1   -1    0    0  501    0  0.00000000000E+00 -0.00000000000E+00 -0.15883624524E+03  0.15883624524E+03  0.00000000000E+00 0. -1.
         23    2    1    2    0    0 -0.46317040549E+02 -0.72026723406E+02 -0.15697460708E+02  0.12673696847E+03  0.92101746853E+02 0.  0.
          5    1    1    2  502    0 -0.21824468850E+02 -0.10364035797E+01  0.32418436000E+02  0.39316777152E+02  0.41800000000E+01 0. -1.
         -5    1    1    2    0  502  0.68141509399E+02  0.73063126986E+02 -0.54471110972E+02  0.11386860919E+03  0.41800000000E+01 0. -1.
        -11    1    3    3    0    0  0.24705783813E+02 -0.13833914642E+02 -0.20241276627E+02  0.34806065960E+02  0.00000000000E+00 0. -1.
         11    1    3    3    0    0 -0.71022824362E+02 -0.58192808764E+02  0.45438159192E+01  0.91930902505E+02  0.00000000000E+00 0.  1.
</event>
<event>
 7    1  0.4274778E-006  0.1198719E+03  0.7561462E-02  0.1243309E+00
          4   -1    0    0  501    0  0.00000000000E+00  0.00000000000E+00  0.67802907938E+02  0.67802907938E+02  0.00000000000E+00 0. -1.
         -4   -1    0    0    0  501 -0.00000000000E+00 -0.00000000000E+00 -0.26001729299E+03  0.26001729299E+03  0.00000000000E+00 0.  1.
         23    2    1    2    0    0  0.69376109399E+01 -0.62263732453E+02 -0.28916355881E+02  0.11278538266E+03  0.89215940724E+02 0.  0.
          5    1    1    2  502    0 -0.49658462130E+02 -0.13173661275E+02 -0.45786677999E+02  0.68944909128E+02  0.41800000000E+01 0. -1.
         -5    1    1    2    0  502  0.42720851190E+02  0.75437393727E+02 -0.11751135117E+03  0.14608990914E+03  0.41800000000E+01 0. -1.
        -11    1    3    3    0    0 -0.33308039900E+02 -0.48565574965E+02 -0.36946895680E+02  0.69520599063E+02  0.00000000000E+00 0.  1.
         11    1    3    3    0    0  0.40245650839E+02 -0.13698157488E+02  0.80305397998E+01  0.43264783595E+02  0.00000000000E+00 0. -1.
</event>
<event>
 7    1  0.4274778E-006  0.2701803E+03  0.7561462E-02  0.1101176E+00
          1   -1    0    0  501    0  0.00000000000E+00  0.00000000000E+00  0.11325580036E+04  0.11325580036E+04  0.00000000000E+00 0. -1.
         -1   -1    0    0    0  501 -0.00000000000E+00 -0.00000000000E+00 -0.83664070150E+02  0.83664070150E+02  0.00000000000E+00 0.  1.
         23    2    1    2    0    0 -0.20272487600E+03  0.15564710898E+03  0.77572371996E+03  0.82177041395E+03  0.90752000838E+02 0.  0.
          5    1    1    2  502    0  0.13956219087E+03 -0.15267096374E+03  0.14872095851E+03  0.25479682924E+03  0.41800000000E+01 0. -1.
         -5    1    1    2    0  502  0.63162685134E+02 -0.29761452405E+01  0.12444925499E+03  0.13965483057E+03  0.41800000000E+01 0. -1.
        -11    1    3    3    0    0 -0.11667021616E+03  0.34810565295E+02  0.31289054657E+03  0.33574426120E+03  0.00000000000E+00 0.  1.
         11    1    3    3    0    0 -0.86054659838E+02  0.12083654369E+03  0.46283317339E+03  0.48602615275E+03  0.00000000000E+00 0. -1.
</event>
<event>
 7    1  0.4274778E-006  0.8051851E+02  0.7561462E-02  0.1327586E+00
          1   -1    0    0  501    0  0.00000000000E+00  0.00000000000E+00  0.14632947689E+03  0.14632947689E+03  0.00000000000E+00 0. -1.
         -1   -1    0    0    0  501 -0.00000000000E+00 -0.00000000000E+00 -0.94957140904E+02  0.94957140904E+02  0.00000000000E+00 0.  1.
         23    2    1    2    0    0  0.27755165796E+02 -0.33098549481E+02  0.19015149434E+02  0.10505280110E+03  0.93854418671E+02 0.  0.
          5    1    1    2  502    0  0.40993278420E+02  0.28247249523E+01  0.43721298504E+02  0.60145259909E+02  0.41800000000E+01 0. -1.
         -5    1    1    2    0  502 -0.68748444216E+02  0.30273824528E+02 -0.11364111953E+02  0.76088556788E+02  0.41800000000E+01 0. -1.
        -11    1    3    3    0    0  0.16103766395E+02 -0.26769317552E+02  0.56901548701E+02  0.64913125783E+02  0.00000000000E+00 0. -1.
         11    1    3    3    0    0  0.11651399401E+02 -0.63292319283E+01 -0.37886399267E+02  0.40139675313E+02  0.00000000000E+00 0.  1.
</event>
<event>
 7    1  0.4274778E-006  0.1415408E+03  0.7561462E-02  0.1211271E+00
          1   -1    0    0  501    0  0.00000000000E+00  0.00000000000E+00  0.53283160221E+02  0.53283160221E+02  0.00000000000E+00 0. -1.
         -1   -1    0    0    0  501 -0.00000000000E+00 -0.00000000000E+00 -0.43147089255E+03  0.43147089255E+03  0.00000000000E+00 0.  1.
         23    2    1    2    0    0  0.96839906442E+02  0.38842294777E+02 -0.19131797511E+03  0.23684854514E+03  0.92779170027E+02 0.  0.
          5    1    1    2  502    0 -0.94374544160E+02 -0.67147315828E+02 -0.18602394245E+03  0.21917503547E+03  0.41800000000E+01 0. -1.
         -5    1    1    2    0  502 -0.24653622822E+01  0.28305021051E+02 -0.84581476419E+00  0.28730472159E+02  0.41800000000E+01 0. -1.
        -11    1    3    3    0    0  0.87889348038E+02  0.65972665153E+02 -0.13853460810E+03  0.17682977037E+03  0.00000000000E+00 0. -1.
         11    1    3    3    0    0  0.89505584043E+01 -0.27130370376E+02 -0.52783367008E+02  0.60018774773E+02  0.00000000000E+00 0.  1.
</event>
<event>
 7    1  0.4274778E-006  0.9930208E+02  0.7561462E-02  0.1281770E+00
         -1   -1    0    0    0  501 -0.00000000000E+00  0.00000000000E+00  0.22700689110E+03  0.22700689110E+03  0.00000000000E+00 0.  1.
          1   -1    0    0  501    0  0.00000000000E+00 -0.00000000000E+00 -0.14709760730E+03  0.14709760730E+03  0.00000000000E+00 0. -1.
         23    2    1    2    0    0 -0.10465876840E+02  0.65375700873E+02 -0.95908168554E+02  0.14839469869E+03  0.91864535936E+02 0.  0.
          5    1    1    2  502    0  0.38543710933E+02 -0.42296949773E+02  0.17996515059E+03  0.18889038472E+03  0.41800000000E+01 0.  1.
         -5    1    1    2    0  502 -0.28077834093E+02 -0.23078751100E+02 -0.41476982266E+01  0.36819414991E+02  0.41800000000E+01 0.  1.
        -11    1    3    3    0    0 -0.32477277316E+02  0.74146689626E+02 -0.45895938441E+02  0.93053437818E+02  0.00000000000E+00 0.  1.
         11    1    3    3    0    0  0.22011400475E+02 -0.87709887533E+01 -0.50012230112E+02  0.55341260876E+02  0.00000000000E+00 0. -1.
</event>
<event>
 7    1  0.4274778E-006  0.1098530E+03  0.7561462E-02  0.1260842E+00
         -2   -1    0    0    0  501 -0.00000000000E+00  0.00000000000E+00  0.23347415757E+03  0.23347415757E+03  0.00000000000E+00 0.  1.
          2   -1    0    0  501    0  0.00000000000E+00 -0.00000000000E+00 -0.89545062149E+02  0.89545062149E+02  0.00000000000E+00 0. -1.
         23    2    1    2    0    0  0.21702431947E+02 -0.89728525965E+02  0.36041059439E+02  0.13378582749E+03  0.89874833788E+02 0.  0.
          5    1    1    2  502    0 -0.12580950955E+02  0.95766102150E+02  0.13130131755E+03  0.16305500618E+03  0.41800000000E+01 0. -1.
         -5    1    1    2    0  502 -0.91214809925E+01 -0.60375761848E+01 -0.23413281576E+02  0.26178386044E+02  0.41800000000E+01 0. -1.
        -11    1    3    3    0    0  0.41681144593E+02 -0.40190487300E+02 -0.15097752023E+02  0.59837573481E+02  0.00000000000E+00 0. -1.
         11    1    3    3    0    0 -0.19978712646E+02 -0.49538038665E+02  0.51138811462E+02  0.73948254012E+02  0.00000000000E+00 0.  1.
</event>
<event>
 7    1  0.4274778E-006  0.1705824E+03  0.7561462E-02  0.1177242E+00
          1   -1    0    0  501    0  0.00000000000E+00  0.00000000000E+00  0.49257135273E+03  0.49257135273E+03  0.00000000000E+00 0. -1.
         -1   -1    0    0    0  501 -0.00000000000E+00 -0.00000000000E+00 -0.82046593098E+02  0.82046593098E+02  0.00000000000E+00 0.  1.
         23    2    1    2    0    0  0.53912405211E+02  0.16012438159E+03  0.21087548636E+03  0.28469970769E+03  0.89660960281E+02 0.  0.
          5    1    1    2  502    0 -0.45976356056E+02 -0.88396702022E+02  0.19310569870E+03  0.21733634191E+03  0.41800000000E+01 0.  1.
         -5    1    1    2    0  502 -0.79360491546E+01 -0.71727679568E+02  0.65435745831E+01  0.72581896233E+02  0.41800000000E+01 0.  1.
        -11    1    3    3    0    0  0.23152293219E+02  0.56519493407E+02  0.18111806362E+02  0.63706509448E+02  0.00000000000E+00 0.  1.
         11    1    3    3    0    0  0.30760111992E+02  0.10360488818E+03  0.19276367999E+03  0.22099319824E+03  0.00000000000E+00 0. -1.
</event>
<event>
 7    1  0.4274778E-006  0.1440514E+03  0.7561462E-02  0.1207979E+00
         -4   -1    0    0    0  501 -0.00000000000E+00  0.00000000000E+00  0.85696046114E+02  0.85696046114E+02  0.00000000000E+00 0.  1.
          4   -1    0    0  501    0  0.00000000000E+00 -0.00000000000E+00 -0.31300343744E+03  0.31300343744E+03  0.00000000000E+00 0. -1.
         23    2    1    2    0    0  0.44265997118E+02  0.10399118738E+03 -0.16252320077E+03  0.21811225754E+03  0.91572487935E+02 0.  0.
          5    1    1    2  502    0 -0.63651530898E+02 -0.34560299765E+02 -0.78714312374E+02  0.10704833991E+03  0.41800000000E+01 0. -1.
         -5    1    1    2    0  502  0.19385533780E+02 -0.69430887618E+02  0.13930121818E+02  0.73538886103E+02  0.41800000000E+01 0. -1.
        -11    1    3    3    0    0  0.60632691869E+01  0.10495619774E+03 -0.10164486229E+03  0.14623352798E+03  0.00000000000E+00 0. -1.
         11    1    3    3    0    0  0.38202727931E+02 -0.96501035487E+00 -0.60878338486E+02  0.71878729560E+02  0.00000000000E+00 0.  1.
</event>
<event>
 7    1  0.4274778E-006  0.1142357E+03  0.7561462E-02  0.1252921E+00
         -3   -1    0    0    0  501 -0.00000000000E+00  0.00000000000E+00  0.35585390406E+03  0.35585390406E+03  0.00000000000E+00 0.  1.
          3   -1    0    0  501    0  0.00000000000E+00 -0.00000000000E+00 -0.76243577390E+02  0.76243577390E+02  0.00000000000E+00 0. -1.
         23    2    1    2    0    0 -0.21339515651E+02 -0.59607961713E+02 -0.66086311042E+01  0.11338557689E+03  0.93830330989E+02 0.  0.
          5    1    1    2  502    0  0.14063020943E+02 -0.26015439495E+02  0.17786869796E+03  0.18035885830E+03  0.41800000000E+01 0.  1.
         -5    1    1    2    0  502  0.72764947076E+01  0.85623401209E+02  0.10835025981E+03  0.13835304626E+03  0.41800000000E+01 0.  1.
        -11    1    3    3    0    0 -0.35595010807E+02  0.13512522426E+02  0.33732956462E+01  0.38222665791E+02  0.00000000000E+00 0.  1.
         11    1    3    3    0    0  0.14255495157E+02 -0.73120484139E+02 -0.99819267504E+01  0.75162911097E+02  0.00000000000E+00 0. -1.
</event>
<event>
 7    1  0.4274778E-006  0.1166514E+03  0.7561462E-02  0.1248726E+00
         -2   -1    0    0    0  501 -0.00000000000E+00  0.00000000000E+00  0.36071014594E+02  0.36071014594E+02  0.00000000000E+00 0. -1.
          2   -1    0    0  501    0  0.00000000000E+00 -0.00000000000E+00 -0.64119455808E+03  0.64119455808E+03  0.00000000000E+00 0.  1.
         23    2    1    2    0    0  0.26630718202E+02  0.47186245098E+02 -0.46046947538E+03  0.47850068958E+03  0.11830061409E+03 0.  0.
          5    1    1    2  502    0 -0.29051413283E+02  0.20764000058E+02  0.30769134042E+01  0.36084180859E+02  0.41800000000E+01 0.  1.
         -5    1    1    2    0  502  0.24206950815E+01 -0.67950245157E+02 -0.14773098151E+03  0.16268070223E+03  0.41800000000E+01 0.  1.
        -11    1    3    3    0    0 -0.46736411771E+02  0.22029462666E+02 -0.21210910183E+03  0.21831138424E+03  0.00000000000E+00 0.  1.
         11    1    3    3    0    0  0.73367129973E+02  0.25156782433E+02 -0.24836037356E+03  0.26018930534E+03  0.00000000000E+00 0. -1.
</event>
<event>
 7    1  0.4274778E-006  0.1335264E+03  0.7561462E-02  0.1222315E+00
          1   -1    0    0  501    0  0.00000000000E+00  0.00000000000E+00  0.34505371499E+02  0.34505371499E+02  0.00000000000E+00 0. -1.
         -1   -1    0    0    0  501 -0.00000000000E+00 -0.00000000000E+00 -0.77985528780E+03  0.77985528780E+03  0.00000000000E+00 0.  1.
         23    2    1    2    0    0  0.74191302902E+02  0.61932706048E+02 -0.15712185937E+03  0.20525780008E+03  0.90019310691E+02 0.  0.
          5    1    1    2  502    0  0.34584489854E+02 -0.11066313428E+02 -0.10575830106E+03  0.11189656328E+03  0.41800000000E+01 0.  1.
         -5    1    1    2    0  502 -0.10877579276E+03 -0.50866392620E+02 -0.48246975587E+03  0.49720629594E+03  0.41800000000E+01 0.  1.
        -11    1    3    3    0    0  0.51295723026E+01  0.36332784705E+02 -0.60512263453E+01  0.37188722708E+02  0.00000000000E+00 0. -1.
         11    1    3    3    0    0  0.69061730600E+02  0.25599921343E+02 -0.15107063302E+03  0.16806907737E+03  0.00000000000E+00 0.  1.
</event>
<event>
 7    1  0.4274778E-006  0.1438689E+03  0.7561462E-02  0.1208216E+00
         -1   -1    0    0    0  501 -0.00000000000E+00  0.00000000000E+00  0.59377910725E+02  0.59377910725E+02  0.00000000000E+00 0.  1.
          1   -1    0    0  501    0  0.00000000000E+00 -0.00000000000E+00 -0.51446653432E+03  0.51446653432E+03  0.00000000000E+00 0. -1.
         23    2    1    2    0    0  0.11764558653E+03 -0.68492102263E+02 -0.25597426043E+03  0.30213089025E+03  0.85021178167E+02 0.  0.
          5    1    1    2  502    0 -0.60354856345E+02  0.42022293930E+02 -0.12554603615E+02  0.74723974356E+02  0.41800000000E+01 0.  1.
         -5    1    1    2    0  502 -0.57290730188E+02  0.26469808333E+02 -0.18655975956E+03  0.19698958045E+03  0.41800000000E+01 0.  1.
        -11    1    3    3    0    0  0.33027799211E+02 -0.56387961824E+02 -0.61660505179E+02  0.89846845567E+02  0.00000000000E+00 0.  1.
         11    1    3    3    0    0  0.84617787323E+02 -0.12104140439E+02 -0.19431375525E+03  0.21228404468E+03  0.00000000000E+00 0. -1.
</event>
<event>
 7    1  0.4274778E-006  0.1417977E+03  0.7561462E-02  0.1210930E+00
         -2   -1    0    0    0  501 -0.00000000000E+00  0.00000000000E+00  0.19266862985E+02  0.19266862985E+02  0.00000000000E+00 0.  1.
          2   -1    0    0  501    0  0.00000000000E+00 -0.00000000000E+00 -0.12353479791E+04  0.12353479791E+04  0.00000000000E+00 0. -1.
         23    2    1    2    0    0 -0.49189873891E+02 -0.89377002994E+02 -0.61368978890E+03  0.63097203676E+03  0.10536916915E+03 0.  0.
          5    1    1    2  502    0  0.73532778037E+02  0.84642758110E+02 -0.30146861357E+03  0.32167104830E+03  0.41800000000E+01 0.  1.
         -5    1    1    2    0  502 -0.24342904146E+02  0.47342448841E+01 -0.30092271364E+03  0.30197175703E+03  0.41800000000E+01 0.  1.
        -11    1    3    3    0    0  0.10677186529E+02 -0.85596553868E+02 -0.38508864073E+03  0.39463151619E+03  0.00000000000E+00 0. -1.
         11    1    3    3    0    0 -0.59867060420E+02 -0.37804491261E+01 -0.22860114817E+03  0.23634052057E+03  0.00000000000E+00 0.  1.
</event>
<event>
 7    1  0.4274778E-006  0.7549511E+02  0.7561462E-02  0.1342345E+00
         -2   -1    0    0    0  501 -0.00000000000E+00  0.00000000000E+00  0.55934612801E+02  0.55934612801E+02  0.00000000000E+00 0. -1.
          2   -1    0    0  501    0  0.00000000000E+00 -0.00000000000E+00 -0.24692397482E+03  0.24692397482E+03  0.00000000000E+00 0.  1.
         23    2    1    2    0    0 -0.70757811010E+01  0.33236438325E+02 -0.11955145207E+03  0.15484082910E+03  0.92349364657E+02 0.  0.
          5    1    1    2  502    0 -0.24602273375E+02 -0.36041516607E+02  0.22128535872E+02  0.49106081847E+02  0.41800000000E+01 0.  1.
         -5    1    1    2    0  502  0.31678054476E+02  0.28050782820E+01 -0.93566445812E+02  0.98911676669E+02  0.41800000000E+01 0.  1.
        -11    1    3    3    0    0  0.28733516878E+02  0.43328702115E+01 -0.26157332184E+01  0.29175860171E+02  0.00000000000E+00 0. -1.
         11    1    3    3    0    0 -0.35809297979E+02  0.28903568114E+02 -0.11693571886E+03  0.12566496893E+03  0.00000000000E+00 0.  1.
</event>
<event>
 7    1  0.4274778E-006  0.1848401E+03  0.7561462E-02  0.1163199E+00
         -2   -1    0    0    0  501 -0.00000000000E+00  0.00000000000E+00  0.16954961728E+03  0.16954961728E+03  0.00000000000E+00 0.  1.
          2   -1    0    0  501    0  0.00000000000E+00 -0.00000000000E+00 -0.22438079673E+03  0.22438079673E+03  0.00000000000E+00 0. -1.
         23    2    1    2    0    0 -0.28329713028E+02  0.15262174327E+03 -0.67633790023E+02  0.19416375358E+03  0.95022442043E+02 0.  0.
          5    1    1    2  502    0 -0.38579710819E+02 -0.14418825490E+02  0.20036768636E+02  0.45991750486E+02  0.41800000000E+01 0. -1.
         -5    1    1    2    0  502  0.66909423847E+02 -0.13820291778E+03 -0.72341580589E+01  0.15377490994E+03  0.41800000000E+01 0. -1.
        -11    1    3    3    0    0  0.28286194909E+02  0.54041202990E+02  0.16765690869E+01  0.61019434010E+02  0.00000000000E+00 0.  1.
         11    1    3    3    0    0 -0.56615907937E+02  0.98580540284E+02 -0.69310359110E+02  0.13314431957E+03  0.00000000000E+00 0. -1.
</event>
<event>
 7    1  0.4274778E-006  0.1459266E+03  0.7561462E-02  0.1205570E+00
          1   -1    0    0  501    0  0.00000000000E+00  0.00000000000E+00  0.21331343490E+03  0.21331343490E+03  0.00000000000E+00 0. -1.
         -1   -1    0    0    0  501 -0.00000000000E+00 -0.00000000000E+00 -0.12475422360E+03  0.12475422360E+03  0.00000000000E+00 0.  1.
         23    2    1    2    0    0  0.91368647682E+01 -0.11889655485E+03  0.66141796943E+02  0.16379869027E+03  0.90749107866E+02 0.  0.
          5    1    1    2  502    0  0.39018279469E+02  0.11726954342E+03  0.23590965191E+02  0.12589113545E+03  0.41800000000E+01 0.  1.
         -5    1    1    2    0  502 -0.48155144238E+02  0.16270114333E+01 -0.11735508326E+01  0.48377832778E+02  0.41800000000E+01 0.  1.
        -11    1    3    3    0    0  0.71300066065E+01 -0.27475984863E+02  0.66554512031E+02  0.72355164363E+02  0.00000000000E+00 0. -1.
         11    1    3    3    0    0  0.20068581617E+01 -0.91420569989E+02 -0.41271508788E+00  0.91443525909E+02  0.00000000000E+00 0.  1.
</event>
<event>
 7    1  0.4274778E-006  0.9980462E+02  0.7561462E-02  0.1280707E+00
          1   -1    0    0  501    0  0.00000000000E+00  0.00000000000E+00  0.72236858013E+02  0.72236858013E+02  0.00000000000E+00 0. -1.
         -1   -1    0    0    0  501 -0.00000000000E+00 -0.00000000000E+00 -0.29539807511E+03  0.29539807511E+03  0.00000000000E+00 0.  1.
         23    2    1    2    0    0  0.67259068093E+02 -0.24015736537E+02 -0.19745416703E+02  0.11838395759E+03  0.92327363723E+02 0.  0.
          5    1    1    2  502    0 -0.52618574804E+02  0.35857618914E+02 -0.23035603389E+02  0.67842425311E+02  0.41800000000E+01 0.  1.
         -5    1    1    2    0  502 -0.14640493289E+02 -0.11841882378E+02 -0.18038019701E+03  0.18140855022E+03  0.41800000000E+01 0.  1.
        -11    1    3    3    0    0  0.51339201583E+02 -0.58917823036E+02 -0.16621646318E+02  0.79895573199E+02  0.00000000000E+00 0.  1.
         11    1    3    3    0    0  0.15919866510E+02  0.34902086499E+02 -0.31237703852E+01  0.38488384392E+02  0.00000000000E+00 0. -1.
</event>
<event>
 7    1  0.4274778E-006  0.9615287E+02  0.7561462E-02  0.1288600E+00
          1   -1    0    0  501    0  0.00000000000E+00  0.00000000000E+00  0.26062001726E+03  0.26062001726E+03  0.00000000000E+00 0. -1.
         -1   -1    0    0    0  501 -0.00000000000E+00 -0.00000000000E+00 -0.51594694863E+02  0.51594694863E+02  0.00000000000E+00 0.  1.
         23    2    1    2    0    0  0.37347867364E+02 -0.58253649517E+01  0.76491617833E+02  0.12609043541E+03  0.92838743152E+02 0.  0.
          5    1    1    2  502    0  0.19361343920E+02 -0.22706132767E+02  0.11675058601E+03  0.12057612465E+03  0.41800000000E+01 0.  1.
         -5    1    1    2    0  502 -0.56709211284E+02  0.28531497719E+02  0.15783118555E+02  0.65548152055E+02  0.41800000000E+01 0.  1.
        -11    1    3    3    0    0 -0.16810649193E+02 -0.33687893327E+02  0.18327411714E+02  0.41873214627E+02  0.00000000000E+00 0. -1.
         11    1    3    3    0    0  0.54158516557E+02  0.27862528375E+02  0.58164206120E+02  0.84217220784E+02  0.00000000000E+00 0.  1.
</event>
<event>
 7    1  0.4274778E-006  0.2944906E+03  0.7561462E-02  0.1088028E+00
         -2   -1    0    0    0  501 -0.00000000000E+00  0.00000000000E+00  0.16647976791E+03  0.16647976791E+03  0.00000000000E+00 0.  1.
          2   -1    0    0  501    0  0.00000000000E+00 -0.00000000000E+00 -0.61238030802E+03  0.61238030802E+03  0.00000000000E+00 0. -1.
         23    2    1    2    0    0  0.12300519015E+03  0.26537670598E+03 -0.30072134347E+03  0.42917747711E+03  0.90580944807E+02 0.  0.
          5    1    1    2  502    0 -0.34400899545E+00 -0.34671897902E+02 -0.69245304687E+02  0.77554132498E+02  0.41800000000E+01 0.  1.
         -5    1    1    2    0  502 -0.12266118116E+03 -0.23070480808E+03 -0.75933891947E+02  0.27212846631E+03  0.41800000000E+01 0.  1.
        -11    1    3    3    0    0  0.52503669825E+02  0.12730868917E+03 -0.20506721667E+03  0.24701558865E+03  0.00000000000E+00 0. -1.
         11    1    3    3    0    0  0.70501520329E+02  0.13806801681E+03 -0.95654126797E+02  0.18216188846E+03  0.00000000000E+00 0.  1.
</event>
<event>
 7    1  0.4274778E-006  0.1742830E+03  0.7561462E-02  0.1173454E+00
         -1   -1    0    0    0  501 -0.00000000000E+00  0.00000000000E+00  0.38573053356E+02  0.38573053356E+02  0.00000000000E+00 0.  1.
          1   -1    0    0  501    0  0.00000000000E+00 -0.00000000000E+00 -0.94474033608E+03  0.94474033608E+03  0.00000000000E+00 0. -1.
         23    2    1    2    0    0  0.72717748123E+02 -0.13112618471E+03 -0.54650608657E+03  0.57407426401E+03  0.91708291494E+02 0.  0.
          5    1    1    2  502    0 -0.86818849044E+02  0.72158535797E+02 -0.13265703887E+03  0.17424043503E+03  0.41800000000E+01 0.  1.
         -5    1    1    2    0  502  0.14101100921E+02  0.58967648913E+02 -0.22700415728E+03  0.23499869040E+03  0.41800000000E+01 0.  1.
        -11    1    3    3    0    0  0.20486381946E+01 -0.95790756983E+02 -0.26974451856E+03  0.28625543023E+03  0.00000000000E+00 0.  1.
         11    1    3    3    0    0  0.70669109929E+02 -0.35335427727E+02 -0.27676156801E+03  0.28781883378E+03  0.00000000000E+00 0. -1.
</event>
<event>
 7    1  0.4274778E-006  0.7822319E+02  0.7561462E-02  0.1334171E+00
          1   -1    0    0  501    0  0.00000000000E+00  0.00000000000E+00  0.52682212122E+02  0.52682212122E+02  0.00000000000E+00 0. -1.
         -1   -1    0    0    0  501 -0.00000000000E+00 -0.00000000000E+00 -0.20428502574E+03  0.20428502574E+03  0.00000000000E+00 0.  1.
         23    2    1    2    0    0  0.13530308572E+02  0.73386385346E+01 -0.55999918323E+02  0.98778283309E+02  0.79901398835E+02 0.  0.
          5    1    1    2  502    0 -0.50971528786E+02 -0.35132877698E+02 -0.13231565410E+02  0.63442592675E+02  0.41800000000E+01 0.  1.
         -5    1    1    2    0  502  0.37441220215E+02  0.27794239164E+02 -0.82371329888E+02  0.94746361879E+02  0.41800000000E+01 0.  1.
        -11    1    3    3    0    0  0.14073369135E+02 -0.17657510209E+02  0.12534628266E+02  0.25825651809E+02  0.00000000000E+00 0. -1.
         11    1    3    3    0    0 -0.54306056291E+00  0.24996148744E+02 -0.68534546589E+02  0.72952631501E+02  0.00000000000E+00 0.  1.
</event>
<event>
 7    1  0.4274778E-006  0.9528773E+02  0.7561462E-02  0.1290529E+00
          3   -1    0    0  501    0  0.00000000000E+00  0.00000000000E+00  0.63924757514E+02  0.63924757514E+02  0.00000000000E+00 0. -1.
         -3   -1    0    0    0  501 -0.00000000000E+00 -0.00000000000E+00 -0.24518420755E+03  0.24518420755E+03  0.00000000000E+00 0.  1.
         23    2    1    2    0    0  0.15646002091E+02  0.52133846700E+02 -0.39003545764E+02  0.11189848909E+03  0.89650766451E+02 0.  0.
          5    1    1    2  502    0  0.38326022105E+02  0.18529261821E+02 -0.72258779461E+02  0.83970358599E+02  0.41800000000E+01 0.  1.
         -5    1    1    2    0  502 -0.53972024197E+02 -0.70663108521E+02 -0.69997124814E+02  0.11324011738E+03  0.41800000000E+01 0.  1.
        -11    1    3    3    0    0 -0.43127106550E+01  0.23435004602E+02 -0.64415215674E+02  0.68681285110E+02  0.00000000000E+00 0.  1.
         11    1    3    3    0    0  0.19958712746E+02  0.28698842098E+02  0.25411669911E+02  0.43217203980E+02  0.00000000000E+00 0. -1.
</event>
<event>
 7    1  0.4274778E-006  0.1130889E+03  0.7561462E-02  0.1254954E+00
          2   -1    0    0  501    0  0.00000000000E+00  0.00000000000E+00  0.15798916872E+03  0.15798916872E+03  0.00000000000E+00 0.  1.
         -2   -1    0    0    0  501 -0.00000000000E+00 -0.00000000000E+00 -0.14101853083E+03  0.14101853083E+03  0.00000000000E+00 0. -1.
         23    2    1    2    0    0  0.69288969519E+01  0.10215977932E+03  0.38695383008E-01  0.13647533925E+03  0.90226861868E+02 0.  0.
          5    1    1    2  502    0  0.21302417742E+01 -0.10099264807E+02 -0.48103955242E+02  0.49376066971E+02  0.41800000000E+01 0.  1.
         -5    1    1    2    0  502 -0.90591387261E+01 -0.92060514508E+02  0.65035897742E+02  0.11315629333E+03  0.41800000000E+01 0.  1.
        -11    1    3    3    0    0 -0.29447975711E+02  0.32502995477E+02  0.29161660957E+02  0.52669065477E+02  0.00000000000E+00 0.  1.
         11    1    3    3    0    0  0.36376872663E+02  0.69656783838E+02 -0.29122965574E+02  0.83806273770E+02  0.00000000000E+00 0. -1.
</event>
<event>
 7    1  0.4274778E-006  0.1159958E+03  0.7561462E-02  0.1249853E+00
         -1   -1    0    0    0  501 -0.00000000000E+00  0.00000000000E+00  0.25003381685E+03  0.25003381685E+03  0.00000000000E+00 0.  1.
          1   -1    0    0  501    0  0.00000000000E+00 -0.00000000000E+00 -0.70422996866E+02  0.70422996866E+02  0.00000000000E+00 0. -1.
         23    2    1    2    0    0 -0.84719018115E+02  0.65231419525E+01  0.82659513881E+02  0.14965426842E+03  0.91345177263E+02 0.  0.
          5    1    1    2  502    0  0.59276461813E+02  0.27008004248E+02  0.27054502997E+00  0.65273860106E+02  0.41800000000E+01 0. -1.
         -5    1    1    2    0  502  0.25442556302E+02 -0.33531146201E+02  0.96680761073E+02  0.10552868519E+03  0.41800000000E+01 0.  1.
        -11    1    3    3    0    0 -0.10429567438E+03  0.19376889753E+01  0.65109614623E+02  0.12296586619E+03  0.00000000000E+00 0. -1.
         11    1    3    3    0    0  0.19576656261E+02  0.45854529771E+01  0.17549899258E+02  0.26688402225E+02  0.00000000000E+00 0.  1.
</event>
<event>
 7    1  0.4274778E-006  0.9803889E+02  0.7561462E-02  0.1284475E+00
          1   -1    0    0  501    0  0.00000000000E+00  0.00000000000E+00  0.27907074298E+03  0.27907074298E+03  0.00000000000E+00 0. -1.
         -1   -1    0    0    0  501 -0.00000000000E+00 -0.00000000000E+00 -0.52721970076E+02  0.52721970076E+02  0.00000000000E+00 0.  1.
         23    2    1    2    0    0 -0.40823567816E+00  0.51357070743E+02  0.12462656562E+03  0.16258279299E+03  0.90904721241E+02 0.  0.
          5    1    1    2  502    0 -0.29808491294E+02 -0.57443757473E+02  0.21452666702E+01  0.64887641311E+02  0.41800000000E+01 0. -1.
         -5    1    1    2    0  502  0.30216726973E+02  0.60866867302E+01  0.99576940609E+02  0.10432227876E+03  0.41800000000E+01 0. -1.
        -11    1    3    3    0    0  0.36258621186E+02 -0.91454049496E+00  0.24286444265E+02  0.43650376513E+02  0.00000000000E+00 0. -1.
         11    1    3    3    0    0 -0.36666856864E+02  0.52271611238E+02  0.10034012136E+03  0.11893241647E+03  0.00000000000E+00 0.  1.
</event>
<event>
 7    1  0.4274778E-006  0.1376752E+03  0.7561462E-02  0.1216492E+00
          1   -1    0    0  501    0  0.00000000000E+00  0.00000000000E+00  0.43639501509E+03  0.43639501509E+03  0.00000000000E+00 0. -1.
         -1   -1    0    0    0  501 -0.00000000000E+00 -0.00000000000E+00 -0.49733332981E+02  0.49733332981E+02  0.00000000000E+00 0.  1.
         23    2    1    2    0    0 -0.91435489518E+02 -0.13010124188E+02  0.24376216838E+03  0.27494805899E+03  0.87445573556E+02 0.  0.
          5    1    1    2  502    0  0.11725439832E+03 -0.56684607990E+01  0.85122855874E+02  0.14506584148E+03  0.41800000000E+01 0. -1.
         -5    1    1    2    0  502 -0.25818908798E+02  0.18678584987E+02  0.57776657856E+02  0.66114447602E+02  0.41800000000E+01 0. -1.
        -11    1    3    3    0    0 -0.58959236613E+02 -0.49436910402E+02  0.16867325073E+03  0.18539381112E+03  0.00000000000E+00 0. -1.
         11    1    3    3    0    0 -0.32476252906E+02  0.36426786215E+02  0.75088917655E+02  0.89554247869E+02  0.00000000000E+00 0.  1.
</event>
<event>
 7    1  0.4274778E-006  0.1116371E+03  0.7561462E-02  0.1257568E+00
          1   -1    0    0  501    0  0.00000000000E+00  0.00000000000E+00  0.82619704018E+03  0.82619704018E+03  0.00000000000E+00 0.  1.
         -1   -1    0    0    0  501 -0.00000000000E+00 -0.00000000000E+00 -0.17099120477E+02  0.17099120477E+02  0.00000000000E+00 0. -1.
         23    2    1    2    0    0  0.47055126061E+02  0.44013712231E+01  0.39810655797E+03  0.41110022838E+03  0.91000051196E+02 0.  0.
          5    1    1    2  502    0  0.22868319612E+02 -0.36824994266E+02  0.68935628315E+02  0.81539153146E+02  0.41800000000E+01 0.  1.
         -5    1    1    2    0  502 -0.69923445674E+02  0.32423623043E+02  0.34205573341E+03  0.35065677913E+03  0.41800000000E+01 0.  1.
        -11    1    3    3    0    0  0.48206500901E+02 -0.37217685798E+02  0.23470758424E+03  0.24248025273E+03  0.00000000000E+00 0. -1.
         11    1    3    3    0    0 -0.11513748392E+01  0.41619057021E+02  0.16339897373E+03  0.16861997565E+03  0.00000000000E+00 0.  1.
</event>
<event>
 7    1  0.4274778E-006  0.1811171E+03  0.7561462E-02  0.1166726E+00
          1   -1    0    0  501    0  0.00000000000E+00  0.00000000000E+00  0.36751021854E+03  0.36751021854E+03  0.00000000000E+00 0. -1.
         -1   -1    0    0    0  501 -0.00000000000E+00 -0.00000000000E+00 -0.10906173246E+03  0.10906173246E+03  0.00000000000E+00 0.  1.
         23    2    1    2    0    0 -0.15312284368E+03  0.52510818287E+02  0.17799573991E+03  0.25674694612E+03  0.89624324946E+02 0.  0.
          5    1    1    2  502    0  0.31901353662E+02 -0.45474895459E+02  0.81024146139E+02  0.98326228139E+02  0.41800000000E+01 0.  1.
         -5    1    1    2    0  502  0.12122149002E+03 -0.70359228276E+01 -0.57139997251E+00  0.12149877675E+03  0.41800000000E+01 0.  1.
        -11    1    3    3    0    0 -0.65623196937E+02  0.69838405348E+02  0.92311508022E+02  0.13306096855E+03  0.00000000000E+00 0.  1.
         11    1    3    3    0    0 -0.87499646745E+02 -0.17327587061E+02  0.85684231892E+02  0.12368597758E+03  0.00000000000E+00 0. -1.
</event>
<event>
 7    1  0.4274778E-006  0.1364769E+03  0.7561462E-02  0.1218150E+00
         -2   -1    0    0    0  501 -0.00000000000E+00  0.00000000000E+00  0.33209550743E+03  0.33209550743E+03  0.00000000000E+00 0.  1.
          2   -1    0    0  501    0  0.00000000000E+00 -0.00000000000E+00 -0.65117039499E+02  0.65117039499E+02  0.00000000000E+00 0. -1.
         23    2    1    2    0    0 -0.10426791887E+03  0.14767198345E+02  0.10182323490E+03  0.17247443605E+03  0.91047190367E+02 0.  0.
          5    1    1    2  502    0 -0.28168657155E+01 -0.28440106617E+02  0.18641191460E+01  0.28943423035E+02  0.41800000000E+01 0. -1.
         -5    1    1    2    0  502  0.10708478459E+03  0.13672908272E+02  0.16329111389E+03  0.19579468784E+03  0.41800000000E+01 0.  1.
        -11    1    3    3    0    0 -0.10388755870E+03 -0.16133154787E+02  0.92931135240E+02  0.14031785144E+03  0.00000000000E+00 0. -1.
         11    1    3    3    0    0 -0.38036017350E+00  0.30900353132E+02  0.88920996553E+01  0.32156584611E+02  0.00000000000E+00 0.  1.
</event>
<event>
 7    1  0.4274778E-006  0.9875248E+02  0.7561462E-02  0.1282941E+00
         -2   -1    0    0    0  501 -0.00000000000E+00  0.00000000000E+00  0.28007680555E+03  0.28007680555E+03  0.00000000000E+00 0.  1.
          2   -1    0    0  501    0  0.00000000000E+00 -0.00000000000E+00 -0.59886099280E+02  0.59886099280E+02  0.00000000000E+00 0. -1.
         23    2    1    2    0    0  0.22505119552E+01  0.72114180258E+02  0.85229022761E+02  0.14230891940E+03  0.88217472315E+02 0.  0.
          5    1    1    2  502    0 -0.43591241933E+01  0.24391379429E+02 -0.68603930064E+01  0.26047624583E+02  0.41800000000E+01 0. -1.
         -5    1    1    2    0  502  0.21086122381E+01 -0.96505559687E+02  0.14182207651E+03  0.17160636085E+03  0.41800000000E+01 0. -1.
        -11    1    3    3    0    0 -0.78499730334E+01  0.57256645409E+02  0.27088549523E+01  0.57855712037E+02  0.00000000000E+00 0. -1.
         11    1    3    3    0    0  0.10100484989E+02  0.14857534849E+02  0.82520167809E+02  0.84453207364E+02  0.00000000000E+00 0.  1.
</event>
<event>
 7    1  0.4274778E-006  0.9795177E+02  0.7561462E-02  0.1284663E+00
          4   -1    0    0  501    0  0.00000000000E+00  0.00000000000E+00  0.35376867231E+03  0.35376867231E+03  0.00000000000E+00 0. -1.
         -4   -1    0    0    0  501 -0.00000000000E+00 -0.00000000000E+00 -0.48067812853E+02  0.48067812853E+02  0.00000000000E+00 0.  1.
         23    2    1    2    0    0  0.68862789441E+02 -0.13391135809E+02  0.15940415438E+03  0.19696734685E+03  0.92005679189E+02 0.  0.
          5    1    1    2  502    0 -0.87551245123E+02 -0.48387772720E+01  0.15405848954E+03  0.17731363424E+03  0.41800000000E+01 0. -1.
         -5    1    1    2    0  502  0.18688455681E+02  0.18229913081E+02 -0.77617844655E+01  0.27555504074E+02  0.41800000000E+01 0. -1.
        -11    1    3    3    0    0  0.41754175850E+02 -0.28586546989E+02  0.20446665776E+02  0.54577174817E+02  0.00000000000E+00 0.  1.
         11    1    3    3    0    0  0.27108613591E+02  0.15195411180E+02  0.13895748861E+03  0.14239017204E+03  0.00000000000E+00 0. -1.
</event>
<event>
 7    1  0.4274778E-006  0.1090706E+03  0.7561462E-02  0.1262301E+00
          1   -1    0    0  501    0  0.00000000000E+00  0.00000000000E+00  0.75326853775E+03  0.75326853775E+03  0.00000000000E+00 0. -1.
         -1   -1    0    0    0  501 -0.00000000000E+00 -0.00000000000E+00 -0.17496082671E+02  0.17496082671E+02  0.00000000000E+00 0.  1.
         23    2    1    2    0    0 -0.31639440014E+02  0.57447750308E+01  0.38692576655E+03  0.39877172484E+03  0.90957589593E+02 0.  0.
          5    1    1    2  502    0  0.76040518532E+02 -0.23650979160E+02  0.24293001226E+03  0.25568338337E+03  0.41800000000E+01 0. -1.
         -5    1    1    2    0  502 -0.44401078518E+02  0.17906204129E+02  0.10591667627E+03  0.11630951221E+03  0.41800000000E+01 0. -1.
        -11    1    3    3    0    0 -0.18045589842E+02  0.45167672962E+02  0.27627561028E+03  0.28052446387E+03  0.00000000000E+00 0.  1.
         11    1    3    3    0    0 -0.13593850173E+02 -0.39422897931E+02  0.11065015628E+03  0.11824726097E+03  0.00000000000E+00 0. -1.
</event>
<event>
 7    1  0.4274778E-006  0.2977751E+03  0.7561462E-02  0.1086358E+00
         -2   -1    0    0    0  501 -0.00000000000E+00  0.00000000000E+00  0.27308942027E+03  0.27308942027E+03  0.00000000000E+00 0.  1.
          2   -1    0    0  501    0  0.00000000000E+00 -0.00000000000E+00 -0.35155253008E+03  0.35155253008E+03  0.00000000000E+00 0. -1.
         23    2    1    2    0    0 -0.22207300509E+03 -0.18668357211E+03 -0.41663083719E+02  0.30657461545E+03  0.89916664801E+02 0.  0.
          5    1    1    2  502    0  0.57941800343E+02  0.10897844232E+03 -0.55636567050E+02  0.13544907940E+03  0.41800000000E+01 0.  1.
         -5    1    1    2    0  502  0.16413120474E+03  0.77705129783E+02  0.18836540964E+02  0.18261825550E+03  0.41800000000E+01 0.  1.
        -11    1    3    3    0    0 -0.67712167997E+02 -0.64917872820E+02  0.28156013585E+02  0.97938904463E+02  0.00000000000E+00 0.  1.
         11    1    3    3    0    0 -0.15436083709E+03 -0.12176569929E+03 -0.69819097303E+02  0.20863571098E+03  0.00000000000E+00 0. -1.
</event>
<event>
 7    1  0.4274778E-006  0.1972701E+03  0.7561462E-02  0.1152063E+00
         -1   -1    0    0    0  501 -0.00000000000E+00  0.00000000000E+00  0.30564819177E+03  0.30564819177E+03  0.00000000000E+00 0.  1.
          1   -1    0    0  501    0  0.00000000000E+00 -0.00000000000E+00 -0.14961018838E+03  0.14961018838E+03  0.00000000000E+00 0. -1.
         23    2    1    2    0    0 -0.20497541013E+02  0.17476956078E+03  0.20315147149E+02  0.20024238353E+03  0.93379646581E+02 0.  0.
          5    1    1    2  502    0  0.37761609285E+02 -0.72773249969E+00  0.41655904874E+02  0.56384000756E+02  0.41800000000E+01 0. -1.
         -5    1    1    2    0  502 -0.17264068272E+02 -0.17404182828E+03  0.94066951367E+02  0.19863199587E+03  0.41800000000E+01 0. -1.
        -11    1    3    3    0    0 -0.32745064687E+02  0.86694456173E+02 -0.30823131415E+02  0.97663879827E+02  0.00000000000E+00 0. -1.
         11    1    3    3    0    0  0.12247523673E+02  0.88075104605E+02  0.51138278565E+02  0.10257850370E+03  0.00000000000E+00 0.  1.
</event>
<event>
 7    1  0.4274778E-006  0.1059557E+03  0.7561462E-02  0.1268248E+00
         -2   -1    0    0    0  501 -0.00000000000E+00  0.00000000000E+00  0.69550258183E+02  0.69550258183E+02  0.00000000000E+00 0.  1.
          2   -1    0    0  501    0  0.00000000000E+00 -0.00000000000E+00 -0.19846920466E+03  0.19846920466E+03  0.00000000000E+00 0. -1.
         23    2    1    2    0    0  0.22307465945E+02 -0.38405765866E+02 -0.51950587136E+02  0.11458362932E+03  0.91966943608E+02 0.  0.
          5    1    1    2  502    0 -0.71562701919E+02  0.14851296184E+02 -0.23456803185E+02  0.76873111814E+02  0.41800000000E+01 0.  1.
         -5    1    1    2    0  502  0.49255235974E+02  0.23554469682E+02 -0.53511556160E+02  0.76562721710E+02  0.41800000000E+01 0.  1.
        -11    1    3    3    0    0  0.48472973842E+02 -0.24349948434E+02  0.56759652599E+00  0.54248238198E+02  0.00000000000E+00 0.  1.
         11    1    3    3    0    0 -0.26165507897E+02 -0.14055817433E+02 -0.52518183662E+02  0.60335391126E+02  0.00000000000E+00 0. -1.
</event>
<event>
 7    1  0.4274778E-006  0.1072976E+03  0.7561462E-02  0.1265658E+00
         -3   -1    0    0    0  501 -0.00000000000E+00  0.00000000000E+00  0.20270836487E+03  0.20270836487E+03  0.00000000000E+00 0.  1.
          3   -1    0    0  501    0  0.00000000000E+00 -0.00000000000E+00 -0.86623504613E+02  0.86623504613E+02  0.00000000000E+00 0. -1.
         23    2    1    2    0    0 -0.11265260858E+02  0.74305806903E+02  0.38106155992E+02  0.12387426216E+03  0.90799199661E+02 0.  0.
          5    1    1    2  502    0  0.30302974069E+02 -0.14262438712E+02 -0.26822916632E+02  0.43111815690E+02  0.41800000000E+01 0. -1.
         -5    1    1    2    0  502 -0.19037713210E+02 -0.60043368191E+02  0.10480162090E+03  0.12234579164E+03  0.41800000000E+01 0. -1.
        -11    1    3    3    0    0  0.39719469125E+02  0.25935763672E+02  0.12286338135E+02  0.49002593499E+02  0.00000000000E+00 0. -1.
         11    1    3    3    0    0 -0.50984729983E+02  0.48370043232E+02  0.25819817857E+02  0.74871668660E+02  0.00000000000E+00 0.  1.
</event>
<event>
 7    1  0.4274778E-006  0.1600529E+03  0.7561462E-02  0.1188637E+00
          1   -1    0    0  501    0  0.00000000000E+00  0.00000000000E+00  0.70950014992E+03  0.70950014992E+03  0.00000000000E+00 0. -1.
         -1   -1    0    0    0  501 -0.00000000000E+00 -0.00000000000E+00 -0.47690117754E+02  0.47690117754E+02  0.00000000000E+00 0.  1.
         23    2    1    2    0    0  0.14105616046E+03 -0.21783403019E+02  0.39105039691E+03  0.42653795345E+03  0.92966960602E+02 0.  0.
          5    1    1    2  502    0 -0.13100383874E+03  0.65724644165E+01  0.28041273157E+03  0.30960293196E+03  0.41800000000E+01 0. -1.
         -5    1    1    2    0  502 -0.10052321723E+02  0.15210938602E+02 -0.96530963103E+01  0.21049382261E+02  0.41800000000E+01 0. -1.
        -11    1    3    3    0    0  0.14351294858E+03  0.46786574564E+01  0.32277494389E+03  0.35327258689E+03  0.00000000000E+00 0.  1.
         11    1    3    3    0    0 -0.24567881237E+01 -0.26462060475E+02  0.68275453015E+02  0.73265366558E+02  0.00000000000E+00 0. -1.
</event>
<event>
 7    1  0.4274778E-006  0.9644501E+02  0.7561462E-02  0.1287954E+00
          2   -1    0    0  501    0  0.00000000000E+00  0.00000000000E+00  0.12440296576E+04  0.12440296576E+04  0.00000000000E+00 0. -1.
         -2   -1    0    0    0  501 -0.00000000000E+00 -0.00000000000E+00 -0.10319442865E+02  0.10319442865E+02  0.00000000000E+00 0.  1.
         23    2    1    2    0    0 -0.10870882525E+02 -0.23023004778E+02  0.40835678789E+03  0.41918228055E+03  0.91160755136E+02 0.  0.
          5    1    1    2  502    0  0.39127137727E+02 -0.21880841696E+02  0.65837218030E+03  0.65990992138E+03  0.41800000000E+01 0.  1.
         -5    1    1    2    0  502 -0.28256255202E+02  0.44903846473E+02  0.16698124653E+03  0.17525689852E+03  0.41800000000E+01 0.  1.
        -11    1    3    3    0    0 -0.50913656520E+02 -0.19233112168E+02  0.23333356338E+03  0.23959687983E+03  0.00000000000E+00 0.  1.
         11    1    3    3    0    0  0.40042773994E+02 -0.37898926091E+01  0.17502322451E+03  0.17958540072E+03  0.00000000000E+00 0. -1.
</event>
<event>
 7    1  0.4274778E-006  0.1305436E+03  0.7561462E-02  0.1226651E+00
         -1   -1    0    0    0  501 -0.00000000000E+00  0.00000000000E+00  0.23467698098E+03  0.23467698098E+03  0.00000000000E+00 0.  1.
          1   -1    0    0  501    0  0.00000000000E+00 -0.00000000000E+00 -0.10247730027E+03  0.10247730027E+03  0.00000000000E+00 0. -1.
         23    2    1    2    0    0  0.92560028208E+01 -0.73350845350E+02 -0.28540220627E+02  0.12047251008E+03  0.90736218727E+02 0.  0.
          5    1    1    2  502    0  0.16090056848E+02 -0.32246682657E+02  0.46925392592E+02  0.59314444629E+02  0.41800000000E+01 0. -1.
         -5    1    1    2    0  502 -0.25346059669E+02  0.10559752801E+03  0.11381450875E+03  0.15736732654E+03  0.41800000000E+01 0. -1.
        -11    1    3    3    0    0  0.39233450077E+02 -0.76514045342E+02 -0.27623990483E+02  0.90314714138E+02  0.00000000000E+00 0.  1.
         11    1    3    3    0    0 -0.29977447257E+02  0.31631999913E+01 -0.91623014364E+00  0.30157795939E+02  0.00000000000E+00 0. -1.
</event>
<event>
 7    1  0.4274778E-006  0.6326099E+02  0.7561462E-02  0.1384635E+00
         -2   -1    0    0    0  501 -0.00000000000E+00  0.00000000000E+00  0.77320043429E+02  0.77320043429E+02  0.00000000000E+00 0.  1.
          2   -1    0    0  501    0  0.00000000000E+00 -0.00000000000E+00 -0.15747818756E+03  0.15747818756E+03  0.00000000000E+00 0. -1.
         23    2    1    2    0    0  0.13782914397E+02  0.21590956840E+02 -0.77229697728E+02  0.11827340073E+03  0.85837246945E+02 0.  0.
          5    1    1    2  502    0  0.59567274396E+01 -0.13577744163E+02 -0.56583969903E+02  0.58643463305E+02  0.41800000000E+01 0. -1.
         -5    1    1    2    0  502 -0.19739641837E+02 -0.80132126771E+01  0.53655523505E+02  0.57881366949E+02  0.41800000000E+01 0.  1.
        -11    1    3    3    0    0 -0.32773704021E+01  0.53299442279E+02 -0.49680598255E+02  0.72936503529E+02  0.00000000000E+00 0.  1.
         11    1    3    3    0    0  0.17060284799E+02 -0.31708485439E+02 -0.27549099474E+02  0.45336897204E+02  0.00000000000E+00 0. -1.
</event>
<event>
 7    1  0.4274778E-006  0.2606960E+03  0.7561462E-02  0.1106726E+00
          2   -1    0    0  501    0  0.00000000000E+00  0.00000000000E+00  0.17048086087E+04  0.17048086087E+04  0.00000000000E+00 0. -1.
         -2   -1    0    0    0  501 -0.00000000000E+00 -0.00000000000E+00 -0.43068671490E+02  0.43068671490E+02  0.00000000000E+00 0.  1.
         23    2    1    2    0    0 -0.22768233041E+03 -0.40727196467E+02  0.69112796724E+03  0.73488510950E+03  0.94341448765E+02 0.  0.
          5    1    1    2  502    0 -0.14409024948E+02 -0.33419687387E+02  0.13085992894E+03  0.13589072414E+03  0.41800000000E+01 0. -1.
         -5    1    1    2    0  502  0.24209135535E+03  0.74146883855E+02  0.83975204100E+03  0.87710144652E+03  0.41800000000E+01 0.  1.
        -11    1    3    3    0    0 -0.19304890354E+02 -0.51927708334E+00  0.10590135049E+02  0.22024972205E+02  0.00000000000E+00 0.  1.
         11    1    3    3    0    0 -0.20837744005E+03 -0.40207919384E+02  0.68053783219E+03  0.71286013729E+03  0.00000000000E+00 0. -1.
</event>
<event>
 7    1  0.4274778E-006  0.1201424E+03  0.7561462E-02  0.1242862E+00
          1   -1    0    0  501    0  0.00000000000E+00  0.00000000000E+00  0.40851426816E+02  0.40851426816E+02  0.00000000000E+00 0. -1.
         -1   -1    0    0    0  501 -0.00000000000E+00 -0.00000000000E+00 -0.42437777492E+03  0.42437777492E+03  0.00000000000E+00 0.  1.
         23    2    1    2    0    0  0.40716820337E+02 -0.55244510992E+02 -0.12225487885E+03  0.16753817558E+03  0.91722240610E+02 0.  0.
          5    1    1    2  502    0 -0.74419828829E+02  0.16320318691E+02 -0.86021104527E+02  0.11498594066E+03  0.41800000000E+01 0. -1.
         -5    1    1    2    0  502  0.33703008492E+02  0.38924192300E+02 -0.17525036473E+03  0.18270508549E+03  0.41800000000E+01 0. -1.
        -11    1    3    3    0    0 -0.16456331111E+02 -0.52573950412E+02 -0.76449673906E+02  0.94230481989E+02  0.00000000000E+00 0.  1.
         11    1    3    3    0    0  0.57173151448E+02 -0.26705605799E+01 -0.45805204940E+02  0.73307693593E+02  0.00000000000E+00 0. -1.
</event>
<event>
 7    1  0.4274778E-006  0.1905368E+03  0.7561462E-02  0.1157978E+00
          1   -1    0    0  501    0  0.00000000000E+00  0.00000000000E+00  0.35021278425E+03  0.35021278425E+03  0.00000000000E+00 0. -1.
         -1   -1    0    0    0  501 -0.00000000000E+00 -0.00000000000E+00 -0.16613543034E+03  0.16613543034E+03  0.00000000000E+00 0.  1.
         23    2    1    2    0    0  0.61239676314E+02 -0.16649113087E+03  0.21669526364E+03  0.29684451946E+03  0.98439000595E+02 0.  0.
          5    1    1    2  502    0  0.33695975178E+01  0.12253901156E+03  0.21274412413E+02  0.12448789726E+03  0.41800000000E+01 0.  1.
         -5    1    1    2    0  502 -0.64609273832E+02  0.43952119314E+02 -0.53892322143E+02  0.95015797862E+02  0.41800000000E+01 0.  1.
        -11    1    3    3    0    0  0.16333759388E+02 -0.89957414183E+02  0.17785971550E+03  0.19998301542E+03  0.00000000000E+00 0. -1.
         11    1    3    3    0    0  0.44905916926E+02 -0.76533716689E+02  0.38835548145E+02  0.96861504040E+02  0.00000000000E+00 0.  1.
</event>
<event>
 7    1  0.4274778E-006  0.2397204E+03  0.7561462E-02  0.1119979E+00
         -1   -1    0    0    0  501 -0.00000000000E+00  0.00000000000E+00  0.12538096839E+03  0.12538096839E+03  0.00000000000E+00 0.  1.
          1   -1    0    0  501    0  0.00000000000E+00 -0.00000000000E+00 -0.57499006807E+03  0.57499006807E+03  0.00000000000E+00 0. -1.
         23    2    1    2    0    0  0.21675087508E+03 -0.53133936049E+02 -0.35365306152E+03  0.42715402192E+03  0.87097149867E+02 0.  0.
          5    1    1    2  502    0 -0.13774354938E+03  0.84945585501E+02 -0.28244743774E+02  0.16432977771E+03  0.41800000000E+01 0. -1.
         -5    1    1    2    0  502 -0.79007325704E+02 -0.31811649453E+02 -0.67711294393E+02  0.10888723683E+03  0.41800000000E+01 0. -1.
        -11    1    3    3    0    0  0.16894218879E+03 -0.12265451885E+02 -0.20623782922E+03  0.26688189647E+03  0.00000000000E+00 0.  1.
         11    1    3    3    0    0  0.47808686291E+02 -0.40868484164E+02 -0.14741523230E+03  0.16027212545E+03  0.00000000000E+00 0. -1.
</event>
<event>
 7    1  0.4274778E-006  0.9621582E+02  0.7561462E-02  0.1288461E+00
         -1   -1    0    0    0  501 -0.00000000000E+00  0.00000000000E+00  0.88921269167E+02  0.88921269167E+02  0.00000000000E+00 0.  1.
          1   -1    0    0  501    0  0.00000000000E+00 -0.00000000000E+00 -0.16562857733E+03  0.16562857733E+03  0.00000000000E+00 0. -1.
         23    2    1    2    0    0  0.33221659650E+02  0.31358448426E+02 -0.65737439288E+02  0.12092518156E+03  0.90633645267E+02 0.  0.
          5    1    1    2  502    0 -0.80526853560E+02 -0.28188441897E+02 -0.39205685606E+01  0.85510266393E+02  0.41800000000E+01 0.  1.
         -5    1    1    2    0  502  0.47305193910E+02 -0.31700065287E+01 -0.70493003169E+01  0.48114398544E+02  0.41800000000E+01 0.  1.
        -11    1    3    3    0    0  0.94243843289E+01  0.34176905133E+02  0.13657816974E+02  0.37992312761E+02  0.00000000000E+00 0.  1.
         11    1    3    3    0    0  0.23797275321E+02 -0.28184567071E+01 -0.79395256262E+02  0.82932868802E+02  0.00000000000E+00 0. -1.
</event>
<event>
 7    1  0.4274778E-006  0.1053111E+03  0.7561462E-02  0.1269508E+00
         -2   -1    0    0    0  501 -0.00000000000E+00  0.00000000000E+00  0.18101787212E+02  0.18101787212E+02  0.00000000000E+00 0.  1.
          2   -1    0    0  501    0  0.00000000000E+00 -0.00000000000E+00 -0.69202784428E+03  0.69202784428E+03  0.00000000000E+00 0. -1.
         23    2    1    2    0    0  0.10741379164E+02 -0.75348940559E+01 -0.20664075057E+03  0.22621306935E+03  0.91103244162E+02 0.  0.
          5    1    1    2  502    0 -0.45216136619E+02  0.49344531101E+02 -0.19354987210E+03  0.20483751402E+03  0.41800000000E+01 0.  1.
         -5    1    1    2    0  502  0.34474757455E+02 -0.41809637045E+02 -0.27373543441E+03  0.27907904812E+03  0.41800000000E+01 0.  1.
        -11    1    3    3    0    0 -0.33781710713E+02 -0.24325633647E+02 -0.12461715471E+03  0.13138636033E+03  0.00000000000E+00 0.  1.
         11    1    3    3    0    0  0.44523089877E+02  0.16790739591E+02 -0.82023595851E+02  0.94826709025E+02  0.00000000000E+00 0. -1.
</event>
<event>
 7    1  0.4274778E-006  0.8441488E+02  0.7561462E-02  0.1316970E+00
          2   -1    0    0  501    0  0.00000000000E+00  0.00000000000E+00  0.99713199033E+02  0.99713199033E+02  0.00000000000E+00 0. -1.
         -2   -1    0    0    0  501 -0.00000000000E+00 -0.00000000000E+00 -0.17602563668E+03  0.17602563668E+03  0.00000000000E+00 0.  1.
         23    2    1    2    0    0 -0.42708330283E+02 -0.16592900837E+02  0.29189181877E+02  0.10580353679E+03  0.90791267341E+02 0.  0.
          5    1    1    2  502    0  0.36566135149E+02  0.46295859017E+02 -0.12169018375E+03  0.13530100526E+03  0.41800000000E+01 0. -1.
         -5    1    1    2    0  502  0.61421951337E+01 -0.29702958180E+02  0.16188564230E+02  0.34634293663E+02  0.41800000000E+01 0. -1.
        -11    1    3    3    0    0  0.57474922778E+01 -0.28580252312E+02 -0.20290913773E+02  0.35518807292E+02  0.00000000000E+00 0.  1.
         11    1    3    3    0    0 -0.48455822561E+02  0.11987351475E+02  0.49480095650E+02  0.70284729500E+02  0.00000000000E+00 0. -1.
</event>
<event>
 7    1  0.4274778E-006  0.1229655E+03  0.7561462E-02  0.1238284E+00
          1   -1    0    0  501    0  0.00000000000E+00  0.00000000000E+00  0.11172801152E+04  0.11172801152E+04  0.00000000000E+00 0. -1.
         -1   -1    0    0    0  501 -0.00000000000E+00 -0.00000000000E+00 -0.19012438236E+02  0.19012438236E+02  0.00000000000E+00 0.  1.
         23    2    1    2    0    0 -0.22613915269E+01 -0.94955411361E+02  0.44071739135E+03  0.46024423917E+03  0.92581297340E+02 0.  0.
          5    1    1    2  502    0 -0.44150049618E+02  0.61861258080E+02  0.54001700557E+03  0.54535482104E+03  0.41800000000E+01 0.  1.
         -5    1    1    2    0  502  0.46411441145E+02  0.33094153280E+02  0.11753328003E+03  0.13069349320E+03  0.41800000000E+01 0.  1.
        -11    1    3    3    0    0 -0.30355501712E+02 -0.64142218515E+02  0.38011489651E+03  0.38668205962E+03  0.00000000000E+00 0. -1.
         11    1    3    3    0    0  0.28094110185E+02 -0.30813192846E+02  0.60602494832E+02  0.73562179551E+02  0.00000000000E+00 0.  1.
</event>
<event>
 7    1  0.4274778E-006  0.2126838E+03  0.7561462E-02  0.1139458E+00
          2   -1    0    0  501    0  0.00000000000E+00  0.00000000000E+00  0.72019497738E+03  0.72019497738E+03  0.00000000000E+00 0. -1.
         -2   -1    0    0    0  501 -0.00000000000E+00 -0.00000000000E+00 -0.77896030372E+02  0.77896030372E+02  0.00000000000E+00 0.  1.
         23    2    1    2    0    0 -0.12374077552E+03 -0.14037658497E+03  0.47301069441E+03  0.51644227487E+03  0.89197203477E+02 0.  0.
          5    1    1    2  502    0  0.14376873158E+03  0.87405216351E+02  0.12732395356E+03  0.21104023686E+03  0.41800000000E+01 0.  1.
         -5    1    1    2    0  502 -0.20027956056E+02  0.52971368616E+02  0.41964299036E+02  0.70608496021E+02  0.41800000000E+01 0.  1.
        -11    1    3    3    0    0 -0.52617316871E+02 -0.12701714269E+02  0.75359596362E+02  0.92784612646E+02  0.00000000000E+00 0.  1.
         11    1    3    3    0    0 -0.71123458651E+02 -0.12767487070E+03  0.39765109805E+03  0.42365766222E+03  0.00000000000E+00 0. -1.
</event>
<event>
 7    1  0.4274778E-006  0.1202160E+03  0.7561462E-02  0.1242741E+00
          1   -1    0    0  501    0  0.00000000000E+00  0.00000000000E+00  0.19475599106E+03  0.19475599106E+03  0.00000000000E+00 0. -1.
         -1   -1    0    0    0  501 -0.00000000000E+00 -0.00000000000E+00 -0.86456148447E+02  0.86456148447E+02  0.00000000000E+00 0.  1.
         23    2    1    2    0    0  0.19596411391E+01  0.70167846677E+02  0.60460227953E+02  0.13000540786E+03  0.91206359476E+02 0.  0.
          5    1    1    2  502    0  0.58078048131E+02 -0.47345386261E+02  0.43390109714E+02  0.86688057401E+02  0.41800000000E+01 0. -1.
         -5    1    1    2    0  502 -0.60037689270E+02 -0.22822460416E+02  0.44495049506E+01  0.64518674248E+02  0.41800000000E+01 0. -1.
        -11    1    3    3    0    0  0.37309245187E+02  0.37040091678E+02  0.55844551411E-01  0.52573294424E+02  0.00000000000E+00 0.  1.
         11    1    3    3    0    0 -0.35349604048E+02  0.33127754999E+02  0.60404383401E+02  0.77432113439E+02  0.00000000000E+00 0. -1.
</event>
<event>
 7    1  0.4274778E-006  0.3214206E+03  0.7561462E-02  0.1074997E+00
         -1   -1    0    0    0  501 -0.00000000000E+00  0.00000000000E+00  0.32207599613E+03  0.32207599613E+03  0.00000000000E+00 0.  1.
          1   -1    0    0  501    0  0.00000000000E+00 -0.00000000000E+00 -0.34667536480E+03  0.34667536480E+03  0.00000000000E+00 0. -1.
         23    2    1    2    0    0  0.30541943031E+03  0.54303761655E+02 -0.71014235732E+02  0.33106621766E+03  0.91279197276E+02 0.  0.
          5    1    1    2  502    0 -0.13912487994E+03  0.19758286736E+02 -0.23692916532E+02  0.14256559476E+03  0.41800000000E+01 0.  1.
         -5    1    1    2    0  502 -0.16629455037E+03 -0.74062048390E+02  0.70107783592E+02  0.19511954852E+03  0.41800000000E+01 0.  1.
        -11    1    3    3    0    0  0.21109524978E+03  0.74223717717E+02 -0.28029779739E+02  0.22551282292E+03  0.00000000000E+00 0.  1.
         11    1    3    3    0    0  0.94324180538E+02 -0.19919956062E+02 -0.42984455993E+02  0.10555339474E+03  0.00000000000E+00 0. -1.
</event>
<event>
 7    1  0.4274778E-006  0.1385882E+03  0.7561462E-02  0.1215241E+00
          3   -1    0    0  501    0  0.00000000000E+00  0.00000000000E+00  0.23515624139E+03  0.23515624139E+03  0.00000000000E+00 0. -1.
         -3   -1    0    0    0  501 -0.00000000000E+00 -0.00000000000E+00 -0.91562199057E+02  0.91562199057E+02  0.00000000000E+00 0.  1.
         23    2    1    2    0    0  0.84079757946E+02  0.16608196357E+02  0.73493857346E+02  0.15966637457E+03  0.11290157757E+03 0.  0.
          5    1    1    2  502    0  0.21404778127E+02 -0.28093597145E+02  0.46027947291E+02  0.58167508620E+02  0.41800000000E+01 0.  1.
         -5    1    1    2    0  502 -0.10548453607E+03  0.11485400788E+02  0.24072237696E+02  0.10888455726E+03  0.41800000000E+01 0.  1.
        -11    1    3    3    0    0  0.32798506644E+02 -0.44732290491E+02  0.74547820733E+01  0.55966897595E+02  0.00000000000E+00 0.  1.
         11    1    3    3    0    0  0.51281251301E+02  0.61340486848E+02  0.66039075273E+02  0.10369947697E+03  0.00000000000E+00 0. -1.
</event>
<event>
 7    1  0.4274778E-006  0.1616770E+03  0.7561462E-02  0.1186816E+00
         -2   -1    0    0    0  501 -0.00000000000E+00  0.00000000000E+00  0.41098537443E+02  0.41098537443E+02  0.00000000000E+00 0.  1.
          2   -1    0    0  501    0  0.00000000000E+00 -0.00000000000E+00 -0.83384139394E+03  0.83384139394E+03  0.00000000000E+00 0. -1.
         23    2    1    2    0    0  0.13728340659E+03 -0.41886201518E+02 -0.47071657485E+03  0.50084322883E+03  0.93105630474E+02 0.  0.
          5    1    1    2  502    0 -0.10302019260E+03  0.69457719551E+02 -0.29998853088E+03  0.32472777206E+03  0.41800000000E+01 0. -1.
         -5    1    1    2    0  502 -0.34263213986E+02 -0.27571518033E+02 -0.22037750778E+02  0.49368930499E+02  0.41800000000E+01 0. -1.
        -11    1    3    3    0    0  0.60779725676E+02 -0.48935023089E+02 -0.34330115649E+03  0.35205751744E+03  0.00000000000E+00 0. -1.
         11    1    3    3    0    0  0.76503680911E+02  0.70488215707E+01 -0.12741541835E+03  0.14878571139E+03  0.00000000000E+00 0.  1.
</event>
<event>
 7    1  0.4274778E-006  0.9691691E+02  0.7561462E-02  0.1286916E+00
          2   -1    0    0  501    0  0.00000000000E+00  0.00000000000E+00  0.34534873787E+03  0.34534873787E+03  0.00000000000E+00 0. -1.
         -2   -1    0    0    0  501 -0.00000000000E+00 -0.00000000000E+00 -0.39295860912E+02  0.39295860912E+02  0.00000000000E+00 0.  1.
         23    2    1    2    0    0 -0.27188695803E+02  0.22484003134E+02  0.15911438852E+03  0.18847174810E+03  0.94654400963E+02 0.  0.
          5    1    1    2  502    0  0.36876007773E+02 -0.59116335339E+02  0.35327253808E+02  0.78230865487E+02  0.41800000000E+01 0. -1.
         -5    1    1    2    0  502 -0.96873119701E+01  0.36632332205E+02  0.11161123463E+03  0.11794198519E+03  0.41800000000E+01 0. -1.
        -11    1    3    3    0    0  0.25045375135E+02  0.22515565762E+02  0.18403313489E+02  0.38378424467E+02  0.00000000000E+00 0.  1.
         11    1    3    3    0    0 -0.52234070938E+02 -0.31562627842E-01  0.14071107503E+03  0.15009332363E+03  0.00000000000E+00 0. -1.
</event>
<event>
 7    1  0.4274778E-006  0.9518755E+02  0.7561462E-02  0.1290754E+00
         -4   -1    0    0    0  501 -0.00000000000E+00  0.00000000000E+00  0.13940180173E+03  0.13940180173E+03  0.00000000000E+00 0.  1.
          4   -1    0    0  501    0  0.00000000000E+00 -0.00000000000E+00 -0.10306223792E+03  0.10306223792E+03  0.00000000000E+00 0. -1.
         23    2    1    2    0    0  0.15905726178E+02  0.95102981344E+01 -0.30598861901E+02  0.99383417496E+02  0.92721817431E+02 0.  0.
          5    1    1    2  502    0 -0.60105901925E+02 -0.10815099459E+02  0.76165661922E+02  0.97715742224E+02  0.41800000000E+01 0.  1.
         -5    1    1    2    0  502  0.44200175747E+02  0.13048013245E+01 -0.92272362083E+01  0.45364879925E+02  0.41800000000E+01 0.  1.
        -11    1    3    3    0    0 -0.25515374367E+02 -0.21205888441E+02  0.89882961071E+01  0.34373150867E+02  0.00000000000E+00 0.  1.
         11    1    3    3    0    0  0.41421100544E+02  0.30716186575E+02 -0.39587158008E+02  0.65010266629E+02  0.00000000000E+00 0. -1.
</event>
<event>
 7    1  0.4274778E-006  0.1279596E+03  0.7561462E-02  0.1230515E+00
         -1   -1    0    0    0  501 -0.00000000000E+00  0.00000000000E+00  0.86955230552E+02  0.86955230552E+02  0.00000000000E+00 0.  1.
          1   -1    0    0  501    0  0.00000000000E+00 -0.00000000000E+00 -0.22670319198E+03  0.22670319198E+03  0.00000000000E+00 0. -1.
         23    2    1    2    0    0  0.79682157399E+02 -0.50142346127E+01 -0.10935039217E+03  0.16216968085E+03  0.89258659871E+02 0.  0.
          5    1    1    2  502    0 -0.10779337505E+03 -0.21442578581E+00 -0.47544328894E+02  0.11788720581E+03  0.41800000000E+01 0.  1.
         -5    1    1    2    0  502  0.28111217650E+02  0.52286603985E+01  0.17146759637E+02  0.33601535878E+02  0.41800000000E+01 0.  1.
        -11    1    3    3    0    0  0.49167783386E+02  0.40942589176E+02 -0.50538183901E+02  0.81534499223E+02  0.00000000000E+00 0.  1.
         11    1    3    3    0    0  0.30514374013E+02 -0.45956823789E+02 -0.58812208273E+02  0.80635181627E+02  0.00000000000E+00 0. -1.
</event>
<event>
 7    1  0.4274778E-006  0.7468422E+02  0.7561462E-02  0.1344852E+00
          2   -1    0    0  501    0  0.00000000000E+00  0.00000000000E+00  0.10848056436E+03  0.10848056436E+03  0.00000000000E+00 0. -1.
         -2   -1    0    0    0  501 -0.00000000000E+00 -0.00000000000E+00 -0.14063414123E+03  0.14063414123E+03  0.00000000000E+00 0.  1.
         23    2    1    2    0    0  0.29683519359E+02 -0.24593740670E+02  0.16540486363E+02  0.10945656390E+03  0.10109989263E+03 0.  0.
          5    1    1    2  502    0 -0.37948563630E+02 -0.25893894858E+02  0.22949561342E+02  0.51524188866E+02  0.41800000000E+01 0. -1.
         -5    1    1    2    0  502  0.82650442718E+01  0.50487635528E+02 -0.71643624572E+02  0.88133952821E+02  0.41800000000E+01 0. -1.
        -11    1    3    3    0    0 -0.78024975501E+01 -0.70637756939E+01 -0.38886334819E+02  0.40285517630E+02  0.00000000000E+00 0.  1.
         11    1    3    3    0    0  0.37486016909E+02 -0.17529964976E+02  0.55426821183E+02  0.69171046270E+02  0.00000000000E+00 0. -1.
</event>
<event>
 7    1  0.4274778E-006  0.1090156E+03  0.7561462E-02  0.1262404E+00
         -2   -1    0    0    0  501 -0.00000000000E+00  0.00000000000E+00  0.91453502915E+02  0.91453502915E+02  0.00000000000E+00 0.  1.
          2   -1    0    0  501    0  0.00000000000E+00 -0.00000000000E+00 -0.16634392082E+03  0.16634392082E+03  0.00000000000E+00 0. -1.
         23    2    1    2    0    0 -0.58192596948E+02 -0.41495617177E+00 -0.35454578499E+02  0.11430843262E+03  0.91776032298E+02 0.  0.
          5    1    1    2  502    0  0.13826369666E+02 -0.57559077966E+02 -0.37778099463E+02  0.70348227792E+02  0.41800000000E+01 0. -1.
         -5    1    1    2    0  502  0.44366227282E+02  0.57974034137E+02 -0.16577399445E+01  0.73140763321E+02  0.41800000000E+01 0. -1.
        -11    1    3    3    0    0 -0.83711601707E+01 -0.27577804764E+02 -0.48191187957E+02  0.56151600466E+02  0.00000000000E+00 0. -1.
         11    1    3    3    0    0 -0.49821436778E+02  0.27162848592E+02  0.12736609458E+02  0.58156832159E+02  0.00000000000E+00 0.  1.
</event>
<event>
 7    1  0.4274778E-006  0.1257478E+03  0.7561462E-02  0.1233905E+00
          3   -1    0    0  501    0  0.00000000000E+00  0.00000000000E+00  0.63425974430E+02  0.63425974430E+02  0.00000000000E+00 0. -1.
         -3   -1    0    0    0  501 -0.00000000000E+00 -0.00000000000E+00 -0.30842833992E+03  0.30842833992E+03  0.00000000000E+00 0.  1.
         23    2    1    2    0    0  0.10131777069E+02  0.78290399147E+02 -0.78735960570E+02  0.14931446163E+03  0.99314739394E+02 0.  0.
          5    1    1    2  502    0  0.32330177742E+02 -0.95285262029E+02 -0.12723448013E+03  0.16226708504E+03  0.41800000000E+01 0. -1.
         -5    1    1    2    0  502 -0.42461954811E+02  0.16994862882E+02 -0.39031924788E+02  0.60272767677E+02  0.41800000000E+01 0. -1.
        -11    1    3    3    0    0 -0.17837657146E+02 -0.37118692979E+01  0.13568889849E+02  0.22717278840E+02  0.00000000000E+00 0. -1.
         11    1    3    3    0    0  0.27969434215E+02  0.82002268445E+02 -0.92304850419E+02  0.12659718279E+03  0.00000000000E+00 0.  1.
</event>
<event>
 7    1  0.4274778E-006  0.1221502E+03  0.7561462E-02  0.1239591E+00
          1   -1    0    0  501    0  0.00000000000E+00  0.00000000000E+00  0.98173527293E+02  0.98173527293E+02  0.00000000000E+00 0. -1.
         -1   -1    0    0    0  501 -0.00000000000E+00 -0.00000000000E+00 -0.22733829128E+03  0.22733829128E+03  0.00000000000E+00 0.  1.
         23    2    1    2    0    0  0.98542950091E+02  0.13100165348E+02 -0.21886814746E+02  0.13305302242E+03  0.85683993662E+02 0.  0.
          5    1    1    2  502    0 -0.95019960158E+01 -0.21628572363E+02  0.23748040928E+02  0.33756849951E+02  0.41800000000E+01 0.  1.
         -5    1    1    2    0  502 -0.89040954076E+02  0.85284070148E+01 -0.13102599016E+03  0.15870194620E+03  0.41800000000E+01 0.  1.
        -11    1    3    3    0    0  0.52415158178E+02  0.49430637125E+02 -0.64143185927E+01  0.72331736993E+02  0.00000000000E+00 0.  1.
         11    1    3    3    0    0  0.46127791914E+02 -0.36330471777E+02 -0.15472496154E+02  0.60721285425E+02  0.00000000000E+00 0. -1.
</event>
<event>
 7    1  0.4274778E-006  0.1168823E+03  0.7561462E-02  0.1248331E+00
          3   -1    0    0  501    0  0.00000000000E+00  0.00000000000E+00  0.24739266779E+03  0.24739266779E+03  0.00000000000E+00 0. -1.
         -3   -1    0    0    0  501 -0.00000000000E+00 -0.00000000000E+00 -0.60672458047E+02  0.60672458047E+02  0.00000000000E+00 0.  1.
         23    2    1    2    0    0 -0.51103408988E+02 -0.26980447797E+02  0.67878807327E+02  0.12619566725E+03  0.89321391479E+02 0.  0.
          5    1    1    2  502    0  0.70263635493E+02  0.57716928822E+02  0.11274436297E+03  0.14490336824E+03  0.41800000000E+01 0. -1.
         -5    1    1    2    0  502 -0.19160226505E+02 -0.30736481025E+02  0.60970394474E+01  0.36966090347E+02  0.41800000000E+01 0. -1.
        -11    1    3    3    0    0 -0.27299835747E+02  0.32362921676E+02  0.29816014290E+02  0.51784499991E+02  0.00000000000E+00 0.  1.
         11    1    3    3    0    0 -0.23803573241E+02 -0.59343369473E+02  0.38062793037E+02  0.74411167261E+02  0.00000000000E+00 0. -1.
</event>
<event>
 7    1  0.4274778E-006  0.1473935E+03  0.7561462E-02  0.1203713E+00
         -1   -1    0    0    0  501 -0.00000000000E+00  0.00000000000E+00  0.37641154591E+03  0.37641154591E+03  0.00000000000E+00 0.  1.
          1   -1    0    0  501    0  0.00000000000E+00 -0.00000000000E+00 -0.58722650522E+02  0.58722650522E+02  0.00000000000E+00 0. -1.
         23    2    1    2    0    0  0.90121494157E+02  0.16621107903E+01  0.15673017282E+03  0.21597568452E+03  0.11813764391E+03 0.  0.
          5    1    1    2  502    0 -0.59436846918E+02  0.55341362714E+02  0.10928786437E+03  0.13622303365E+03  0.41800000000E+01 0. -1.
         -5    1    1    2    0  502 -0.30684647238E+02 -0.57003473505E+02  0.51670858196E+02  0.82935478262E+02  0.41800000000E+01 0.  1.
        -11    1    3    3    0    0  0.90144361911E+02 -0.45814446296E+02  0.10719135459E+03  0.14735995376E+03  0.00000000000E+00 0.  1.
         11    1    3    3    0    0 -0.22867753937E-01  0.47476557087E+02  0.49538818236E+02  0.68615730761E+02  0.00000000000E+00 0. -1.
</event>
<event>
 7    1  0.4274778E-006  0.1579332E+03  0.7561462E-02  0.1191050E+00
         -2   -1    0    0    0  501 -0.00000000000E+00  0.00000000000E+00  0.16025385231E+03  0.16025385231E+03  0.00000000000E+00 0.  1.
          2   -1    0    0  501    0  0.00000000000E+00 -0.00000000000E+00 -0.22126429602E+03  0.22126429602E+03  0.00000000000E+00 0. -1.
         23    2    1    2    0    0  0.44199977146E+02 -0.50353068727E+02 -0.68682516744E+02  0.12855787103E+03  0.85561490089E+02 0.  0.
          5    1    1    2  502    0  0.18202459587E+02 -0.69538541896E+02 -0.67116071577E+02  0.98432605411E+02  0.41800000000E+01 0. -1.
         -5    1    1    2    0  502 -0.62402436733E+02  0.11989161062E+03  0.74788144605E+02  0.15452767190E+03  0.41800000000E+01 0.  1.
        -11    1    3    3    0    0 -0.24663507438E+02 -0.25374460468E+02 -0.20880758483E+02  0.41087198955E+02  0.00000000000E+00 0. -1.
         11    1    3    3    0    0  0.68863484583E+02 -0.24978608259E+02 -0.47801758262E+02  0.87470672070E+02  0.00000000000E+00 0.  1.
</event>
<event>
 7    1  0.4274778E-006  0.1247041E+03  0.7561462E-02  0.1235533E+00
          2   -1    0    0  501    0  0.00000000000E+00  0.00000000000E+00  0.27334728303E+03  0.27334728303E+03  0.00000000000E+00 0. -1.
         -2   -1    0    0    0  501 -0.00000000000E+00 -0.00000000000E+00 -0.11585569208E+03  0.11585569208E+03  0.00000000000E+00 0.  1.
         23    2    1    2    0    0 -0.11470871390E+03  0.19893317267E+02  0.16067887746E+03  0.21827608830E+03  0.90955571260E+02 0.  0.
          5    1    1    2  502    0  0.87798585545E+02  0.90287539364E+01  0.52304936211E+02  0.10268100493E+03  0.41800000000E+01 0.  1.
         -5    1    1    2    0  502  0.26910128352E+02 -0.28922071204E+02 -0.55492222722E+02  0.68245881878E+02  0.41800000000E+01 0.  1.
        -11    1    3    3    0    0 -0.82319772944E+02 -0.18001130393E+01  0.15923819544E+03  0.17926680762E+03  0.00000000000E+00 0. -1.
         11    1    3    3    0    0 -0.32388940953E+02  0.21693430307E+02  0.14406820198E+01  0.39009280681E+02  0.00000000000E+00 0.  1.
</event>
<event>
 7    1  0.4274778E-006  0.8079431E+02  0.7561462E-02  0.1326812E+00
         -1   -1    0    0    0  501 -0.00000000000E+00  0.00000000000E+00  0.44481026115E+02  0.44481026115E+02  0.00000000000E+00 0. -1.
          1   -1    0    0  501    0  0.00000000000E+00 -0.00000000000E+00 -0.26138132710E+03  0.26138132710E+03  0.00000000000E+00 0.  1.
         23    2    1    2    0    0  0.10436265370E+02  0.11528691737E+02 -0.10532448584E+03  0.13752173436E+03  0.87046847944E+02 0.  0.
          5    1    1    2  502    0  0.36118337742E+02 -0.61556544788E+01 -0.11538728706E+03  0.12113680208E+03  0.41800000000E+01 0.  1.
         -5    1    1    2    0  502 -0.46554603112E+02 -0.53730372578E+01  0.38114719078E+01  0.47203816778E+02  0.41800000000E+01 0.  1.
        -11    1    3    3    0    0  0.26924629451E+02  0.37942203087E+02 -0.93086694542E+02  0.10406574435E+03  0.00000000000E+00 0.  1.
         11    1    3    3    0    0 -0.16488364081E+02 -0.26413511350E+02 -0.12237791295E+02  0.33455990012E+02  0.00000000000E+00 0. -1.
</event>
<event>
 7    1  0.4274778E-006  0.9940950E+02  0.7561462E-02  0.1281543E+00
          1   -1    0    0  501    0  0.00000000000E+00  0.00000000000E+00  0.46702704581E+02  0.46702704581E+02  0.00000000000E+00 0. -1.
         -1   -1    0    0    0  501 -0.00000000000E+00 -0.00000000000E+00 -0.26931443034E+03  0.26931443034E+03  0.00000000000E+00 0.  1.
         23    2    1    2    0    0 -0.29983787453E+02  0.14640311731E+01 -0.84457521386E+02  0.12724409892E+03  0.90315097818E+02 0.  0.
          5    1    1    2  502    0  0.67841241194E+02 -0.26706452465E+02 -0.11813984407E+03  0.13888903401E+03  0.41800000000E+01 0.  1.
         -5    1    1    2    0  502 -0.37857453741E+02  0.25242421291E+02 -0.20014360295E+02  0.49884001989E+02  0.41800000000E+01 0.  1.
        -11    1    3    3    0    0 -0.48437698407E+02 -0.19458253656E+02 -0.84527095993E+02  0.99346183718E+02  0.00000000000E+00 0.  1.
         11    1    3    3    0    0  0.18453910954E+02  0.20922284829E+02  0.69574606967E-01  0.27897915202E+02  0.00000000000E+00 0. -1.
</event>
<event>
 7    1  0.4274778E-006  0.8043824E+02  0.7561462E-02  0.1327812E+00
          4   -1    0    0  501    0  0.00000000000E+00  0.00000000000E+00  0.72427708045E+02  0.72427708045E+02  0.00000000000E+00 0. -1.
         -4   -1    0    0    0  501 -0.00000000000E+00 -0.00000000000E+00 -0.17039718366E+03  0.17039718366E+03  0.00000000000E+00 0.  1.
         23    2    1    2    0    0 -0.20537035575E+02 -0.19832961575E+02 -0.12261042996E+02  0.98145588153E+02  0.93097299120E+02 0.  0.
          5    1    1    2  502    0  0.26082083258E+02  0.48654486798E+02 -0.98023345577E+02  0.11257700845E+03  0.41800000000E+01 0. -1.
         -5    1    1    2    0  502 -0.55450476825E+01 -0.28821525224E+02  0.12314912957E+02  0.32102295107E+02  0.41800000000E+01 0.  1.
        -11    1    3    3    0    0  0.25499062386E+02 -0.14987141496E+02 -0.35616992052E+02  0.46296724675E+02  0.00000000000E+00 0.  1.
         11    1    3    3    0    0 -0.46036097961E+02 -0.48458200788E+01  0.23355949055E+02  0.51848863478E+02  0.00000000000E+00 0. -1.
</event>
<event>
 7    1  0.4274778E-006  0.9657486E+02  0.7561462E-02  0.1287668E+00
          1   -1    0    0  501    0  0.00000000000E+00  0.00000000000E+00  0.23097465005E+03  0.23097465005E+03  0.00000000000E+00 0. -1.
         -1   -1    0    0    0  501 -0.00000000000E+00 -0.00000000000E+00 -0.56063985153E+02  0.56063985153E+02  0.00000000000E+00 0.  1.
         23    2    1    2    0    0 -0.13500627930E+02 -0.29186188270E+00  0.96770426091E+02  0.13893501757E+03  0.98772828265E+02 0.  0.
          5    1    1    2  502    0  0.11149268873E+02  0.45991886666E+02 -0.10141804066E+02  0.48578682828E+02  0.41800000000E+01 0. -1.
         -5    1    1    2    0  502  0.23513590563E+01 -0.45700024784E+02  0.88282042876E+02  0.99524934810E+02  0.41800000000E+01 0. -1.
        -11    1    3    3    0    0 -0.56455319131E+02 -0.38648533174E+01  0.55260518627E+02  0.79094026755E+02  0.00000000000E+00 0. -1.
         11    1    3    3    0    0  0.42954691202E+02  0.35729914347E+01  0.41509907464E+02  0.59840990814E+02  0.00000000000E+00 0.  1.
</event>
<event>
 7    1  0.4274778E-006  0.8640622E+02  0.7561462E-02  0.1311796E+00
          3   -1    0    0  501    0  0.00000000000E+00  0.00000000000E+00  0.19866873816E+03  0.19866873816E+03  0.00000000000E+00 0. -1.
         -3   -1    0    0    0  501 -0.00000000000E+00 -0.00000000000E+00 -0.78055416135E+02  0.78055416135E+02  0.00000000000E+00 0.  1.
         23    2    1    2    0    0  0.15091769547E+02 -0.55692971277E+02  0.77098809971E+02  0.13225757209E+03  0.90655227756E+02 0.  0.
          5    1    1    2  502    0  0.35599412710E+01 -0.27175627276E+01 -0.40172313381E+02  0.40636750503E+02  0.41800000000E+01 0. -1.
         -5    1    1    2    0  502 -0.18651710818E+02  0.58410534004E+02  0.83686825438E+02  0.10382983170E+03  0.41800000000E+01 0. -1.
        -11    1    3    3    0    0 -0.14507618446E+02 -0.70607867595E+02  0.39727344639E+02  0.82305551887E+02  0.00000000000E+00 0.  1.
         11    1    3    3    0    0  0.29599387993E+02  0.14914896318E+02  0.37371465331E+02  0.49952020207E+02  0.00000000000E+00 0. -1.
</event>
<event>
 7    1  0.4274778E-006  0.9820846E+02  0.7561462E-02  0.1284109E+00
          4   -1    0    0  501    0  0.00000000000E+00  0.00000000000E+00  0.34356169478E+03  0.34356169478E+03  0.00000000000E+00 0. -1.
         -4   -1    0    0    0  501 -0.00000000000E+00 -0.00000000000E+00 -0.52368001515E+02  0.52368001515E+02  0.00000000000E+00 0.  1.
         23    2    1    2    0    0 -0.16351128487E+02 -0.75694973287E+02  0.16099465239E+03  0.19946983371E+03  0.88723435899E+02 0.  0.
          5    1    1    2  502    0 -0.11062378734E+01  0.41732492070E+02 -0.16297807539E+02  0.45010172042E+02  0.41800000000E+01 0.  1.
         -5    1    1    2    0  502  0.17457366361E+02  0.33962481217E+02  0.14649684841E+03  0.15144969054E+03  0.41800000000E+01 0.  1.
        -11    1    3    3    0    0  0.31603700955E+02 -0.55800362753E+02  0.71829839587E+02  0.96291226249E+02  0.00000000000E+00 0.  1.
         11    1    3    3    0    0 -0.47954829442E+02 -0.19894610535E+02  0.89164812804E+02  0.10317860746E+03  0.00000000000E+00 0. -1.
</event>
<event>
 7    1  0.4274778E-006  0.1616417E+03  0.7561462E-02  0.1186856E+00
          3   -1    0    0  501    0  0.00000000000E+00  0.00000000000E+00  0.32545724491E+03  0.32545724491E+03  0.00000000000E+00 0. -1.
         -3   -1    0    0    0  501 -0.00000000000E+00 -0.00000000000E+00 -0.18652863297E+03  0.18652863297E+03  0.00000000000E+00 0.  1.
         23    2    1    2    0    0 -0.84849158783E+02 -0.84370449556E+02  0.26006319736E+03  0.30070647552E+03  0.92053056943E+02 0.  0.
          5    1    1    2  502    0 -0.29613899226E+02  0.40698694263E+02 -0.36687619938E+02  0.62424519212E+02  0.41800000000E+01 0. -1.
         -5    1    1    2    0  502  0.11446305801E+03  0.43671755292E+02 -0.84446965481E+02  0.14885488315E+03  0.41800000000E+01 0. -1.
        -11    1    3    3    0    0 -0.84598751395E+02 -0.21452119494E+02  0.13590188835E+03  0.16151305033E+03  0.00000000000E+00 0.  1.
         11    1    3    3    0    0 -0.25040738839E+00 -0.62918330062E+02  0.12416130901E+03  0.13919342519E+03  0.00000000000E+00 0. -1.
</event>
<event>
 7    1  0.4274778E-006  0.1057792E+03  0.7561462E-02  0.1268592E+00
         -2   -1    0    0    0  501 -0.00000000000E+00  0.00000000000E+00  0.24259100255E+02  0.24259100255E+02  0.00000000000E+00 0.  1.
          2   -1    0    0  501    0  0.00000000000E+00 -0.00000000000E+00 -0.59754612223E+03  0.59754612223E+03  0.00000000000E+00 0. -1.
         23    2    1    2    0    0 -0.42796682790E+02  0.18788894027E+02 -0.31284983821E+03  0.32912362667E+03  0.90899734683E+02 0.  0.
          5    1    1    2  502    0 -0.15882445706E+02 -0.43711230231E+02 -0.19769967747E+03  0.20313925913E+03  0.41800000000E+01 0. -1.
         -5    1    1    2    0  502  0.58679128497E+02  0.24922336205E+02 -0.62737506299E+02  0.89542336688E+02  0.41800000000E+01 0. -1.
        -11    1    3    3    0    0 -0.65786681582E+02 -0.73126482112E+01 -0.17961435628E+03  0.19142277628E+03  0.00000000000E+00 0.  1.
         11    1    3    3    0    0  0.22989998792E+02  0.26101542238E+02 -0.13323548193E+03  0.13770085039E+03  0.00000000000E+00 0. -1.
</event>
<event>
 7    1  0.4274778E-006  0.9599791E+02  0.7561462E-02  0.1288944E+00
          2   -1    0    0  501    0  0.00000000000E+00  0.00000000000E+00  0.32964989495E+02  0.32964989495E+02  0.00000000000E+00 0. -1.
         -2   -1    0    0    0  501 -0.00000000000E+00 -0.00000000000E+00 -0.72761663935E+03  0.72761663935E+03  0.00000000000E+00 0.  1.
         23    2    1    2    0    0 -0.37021852431E+02 -0.57749511289E+02 -0.10934086990E+03  0.15813536117E+03  0.91355038241E+02 0.  0.
          5    1    1    2  502    0 -0.14305797460E+02 -0.59167990277E+01 -0.39426317011E+03  0.39458913322E+03  0.41800000000E+01 0.  1.
         -5    1    1    2    0  502  0.51327649891E+02  0.63666310316E+02 -0.19104760984E+03  0.20785713445E+03  0.41800000000E+01 0.  1.
        -11    1    3    3    0    0 -0.37397260739E+01  0.14261459799E+02 -0.66223331690E+02  0.67844708319E+02  0.00000000000E+00 0.  1.
         11    1    3    3    0    0 -0.33282126357E+02 -0.72010971088E+02 -0.43117538206E+02  0.90290652854E+02  0.00000000000E+00 0. -1.
</event>
<event>
 7    1  0.4274778E-006  0.1331169E+03  0.7561462E-02  0.1222903E+00
         -4   -1    0    0    0  501 -0.00000000000E+00  0.00000000000E+00  0.15678020943E+03  0.15678020943E+03  0.00000000000E+00 0.  1.
          4   -1    0    0  501    0  0.00000000000E+00 -0.00000000000E+00 -0.27202454455E+03  0.27202454455E+03  0.00000000000E+00 0. -1.
         23    2    1    2    0    0  0.82905612939E+02 -0.48164630015E+02 -0.17612730950E+03  0.22091957575E+03  0.92690115734E+02 0.  0.
          5    1    1    2  502    0  0.18246135865E+02  0.24397515309E+02 -0.48201530402E+02  0.57175345738E+02  0.41800000000E+01 0. -1.
         -5    1    1    2    0  502 -0.10115174880E+03  0.23767114706E+02  0.10908450478E+03  0.15070983249E+03  0.41800000000E+01 0.  1.
        -11    1    3    3    0    0  0.33220370613E+02  0.26025953634E+02 -0.40171689802E+02  0.58264122303E+02  0.00000000000E+00 0. -1.
         11    1    3    3    0    0  0.49685242326E+02 -0.74190583649E+02 -0.13595561970E+03  0.16265545344E+03  0.00000000000E+00 0.  1.
</event>
<event>
 7    1  0.4958163E-006  0.3307209E+03  0.7561462E-02  0.1070818E+00
         -2   -1    0    0    0  501 -0.00000000000E+00  0.00000000000E+00  0.48234756895E+02  0.48234756895E+02  0.00000000000E+00 0.  1.
          2   -1    0    0  501    0  0.00000000000E+00 -0.00000000000E+00 -0.24203302537E+04  0.24203302537E+04  0.00000000000E+00 0. -1.
         23    2    1    2    0    0 -0.28413640489E+03  0.13548491385E+03 -0.89708809097E+03  0.95516355584E+03  0.92090808308E+02 0.  0.
          5    1    1    2  502    0 -0.25423044639E+01 -0.32973329460E+02 -0.18194235866E+03  0.18497080322E+03  0.41800000000E+01 0.  1.
         -5    1    1    2    0  502  0.28667870936E+03 -0.10251158439E+03 -0.12930650472E+04  0.13284306516E+04  0.41800000000E+01 0.  1.
        -11    1    3    3    0    0 -0.15954199315E+03  0.11659262959E+03 -0.46943482721E+03  0.50932950617E+03  0.00000000000E+00 0.  1.
         11    1    3    3    0    0 -0.12459441174E+03  0.18892284251E+02 -0.42765326376E+03  0.44583404967E+03  0.00000000000E+00 0. -1.
</event>
<event>
 7    1  0.4274778E-006  0.1147287E+03  0.7561462E-02  0.1252055E+00
          2   -1    0    0  501    0  0.00000000000E+00  0.00000000000E+00  0.43605796149E+03  0.43605796149E+03  0.00000000000E+00 0. -1.
         -2   -1    0    0    0  501 -0.00000000000E+00 -0.00000000000E+00 -0.43559126678E+02  0.43559126678E+02  0.00000000000E+00 0.  1.
         23    2    1    2    0    0 -0.46127159868E+01  0.85081103854E+02  0.17602579263E+03  0.21547964819E+03  0.90478327431E+02 0.  0.
          5    1    1    2  502    0  0.38475735638E+02 -0.43738320209E+02  0.19955686630E+03  0.20792748298E+03  0.41800000000E+01 0.  1.
         -5    1    1    2    0  502 -0.33863019652E+02 -0.41342783644E+02  0.16916175883E+02  0.56209957000E+02  0.41800000000E+01 0.  1.
        -11    1    3    3    0    0 -0.32841184422E+02  0.82864460036E+02  0.15944046994E+03  0.18266451649E+03  0.00000000000E+00 0. -1.
         11    1    3    3    0    0  0.28228468436E+02  0.22166438179E+01  0.16585322690E+02  0.32815131704E+02  0.00000000000E+00 0.  1.
</event>
<event>
 7    1  0.4274778E-006  0.1098652E+03  0.7561462E-02  0.1260820E+00
         -2   -1    0    0    0  501 -0.00000000000E+00  0.00000000000E+00  0.33908417476E+02  0.33908417476E+02  0.00000000000E+00 0.  1.
          2   -1    0    0  501    0  0.00000000000E+00 -0.00000000000E+00 -0.52705514031E+03  0.52705514031E+03  0.00000000000E+00 0. -1.
         23    2    1    2    0    0  0.62720816802E+02  0.14484644062E+02 -0.31380863910E+03  0.33302989472E+03  0.91045829310E+02 0.  0.
          5    1    1    2  502    0  0.10142084331E+02 -0.35608438678E+02 -0.47901757894E+01  0.37566487242E+02  0.41800000000E+01 0. -1.
         -5    1    1    2    0  502 -0.72862901133E+02  0.21123794615E+02 -0.17454790795E+03  0.19036717582E+03  0.41800000000E+01 0. -1.
        -11    1    3    3    0    0  0.23859907503E+02 -0.35750113641E+02 -0.80798725964E+02  0.91519396462E+02  0.00000000000E+00 0. -1.
         11    1    3    3    0    0  0.38860909299E+02  0.50234757703E+02 -0.23300991313E+03  0.24151049826E+03  0.00000000000E+00 0.  1.
</event>
<event>
 7    1  0.4274778E-006  0.1173152E+03  0.7561462E-02  0.1247593E+00
          2   -1    0    0  501    0  0.00000000000E+00  0.00000000000E+00  0.55542196797E+03  0.55542196797E+03  0.00000000000E+00 0. -1.
         -2   -1    0    0    0  501 -0.00000000000E+00 -0.00000000000E+00 -0.33855548021E+02  0.33855548021E+02  0.00000000000E+00 0.  1.
         23    2    1    2    0    0  0.18836095295E+02 -0.47077274179E+02  0.36000058565E+03  0.37874304347E+03  0.10618287563E+03 0.  0.
          5    1    1    2  502    0 -0.83467723359E+01 -0.36258070992E+02  0.12661529488E+02  0.39523449362E+02  0.41800000000E+01 0.  1.
         -5    1    1    2    0  502 -0.10489322959E+02  0.83335345172E+02  0.14890430481E+03  0.17101102316E+03  0.41800000000E+01 0.  1.
        -11    1    3    3    0    0  0.41907051858E+02 -0.69347888241E+02  0.29953616940E+03  0.31030186492E+03  0.00000000000E+00 0.  1.
         11    1    3    3    0    0 -0.23070956564E+02  0.22270614062E+02  0.60464416256E+02  0.68441178545E+02  0.00000000000E+00 0. -1.
</event>
<event>
 7    1  0.4274778E-006  0.9750807E+02  0.7561462E-02  0.1285625E+00
         -2   -1    0    0    0  501 -0.00000000000E+00  0.00000000000E+00  0.29640378224E+03  0.29640378224E+03  0.00000000000E+00 0.  1.
          2   -1    0    0  501    0  0.00000000000E+00 -0.00000000000E+00 -0.82161330826E+02  0.82161330826E+02  0.00000000000E+00 0. -1.
         23    2    1    2    0    0  0.32929949589E+02 -0.69683567405E+02  0.71181796308E+00  0.11936818045E+03  0.91148640540E+02 0.  0.
          5    1    1    2  502    0 -0.12386541752E+02  0.84358477569E+01 -0.15037785268E+02  0.21637867957E+02  0.41800000000E+01 0. -1.
         -5    1    1    2    0  502 -0.20543407836E+02  0.61247719648E+02  0.22856841872E+03  0.23755906466E+03  0.41800000000E+01 0. -1.
        -11    1    3    3    0    0  0.54041007377E+02 -0.75477936640E+02  0.13818826892E+02  0.93852593861E+02  0.00000000000E+00 0.  1.
         11    1    3    3    0    0 -0.21111057788E+02  0.57943692356E+01 -0.13107008929E+02  0.25515586586E+02  0.00000000000E+00 0. -1.
</event>
<event>
 7    1  0.4274778E-006  0.9057934E+02  0.7561462E-02  0.1301455E+00
          2   -1    0    0  501    0  0.00000000000E+00  0.00000000000E+00  0.14302774879E+03  0.14302774879E+03  0.00000000000E+00 0. -1.
         -2   -1    0    0    0  501 -0.00000000000E+00 -0.00000000000E+00 -0.10744346845E+03  0.10744346845E+03  0.00000000000E+00 0.  1.
         23    2    1    2    0    0 -0.41539703808E+02 -0.40736845700E+02  0.23045481389E+02  0.11194547666E+03  0.92820568527E+02 0.  0.
          5    1    1    2  502    0  0.32171386642E+02  0.48989881820E+02  0.63133670253E+02  0.86245807775E+02  0.41800000000E+01 0.  1.
         -5    1    1    2    0  502  0.93683171652E+01 -0.82530361197E+01 -0.50594871303E+02  0.52279932803E+02  0.41800000000E+01 0.  1.
        -11    1    3    3    0    0 -0.33254971220E+02  0.25858781712E+02  0.13019587156E+02  0.44091715233E+02  0.00000000000E+00 0.  1.
         11    1    3    3    0    0 -0.82847325877E+01 -0.66595627411E+02  0.10025894233E+02  0.67853761425E+02  0.00000000000E+00 0. -1.
</event>
<event>
 7    1  0.4274778E-006  0.1695787E+03  0.7561462E-02  0.1178288E+00
         -1   -1    0    0    0  501 -0.00000000000E+00  0.00000000000E+00  0.13014850985E+04  0.13014850985E+04  0.00000000000E+00 0.  1.
          1   -1    0    0  501    0  0.00000000000E+00 -0.00000000000E+00 -0.26373934069E+02  0.26373934069E+02  0.00000000000E+00 0. -1.
         23    2    1    2    0    0  0.11393465916E+03  0.95018708470E+02  0.52442364102E+03  0.55249570437E+03  0.90673516385E+02 0.  0.
          5    1    1    2  502    0  0.23736746786E+02 -0.27665016721E+02  0.21734901915E+03  0.22042426097E+03  0.41800000000E+01 0. -1.
         -5    1    1    2    0  502 -0.13767140594E+03 -0.67353691749E+02  0.53333850426E+03  0.55493906722E+03  0.41800000000E+01 0. -1.
        -11    1    3    3    0    0  0.56268778970E+02  0.37003915753E+02  0.38501664131E+03  0.39086222554E+03  0.00000000000E+00 0.  1.
         11    1    3    3    0    0  0.57665880187E+02  0.58014792717E+02  0.13940699971E+03  0.16163347883E+03  0.00000000000E+00 0. -1.
</event>
<event>
 7    1  0.4274778E-006  0.1054592E+03  0.7561462E-02  0.1269217E+00
         -1   -1    0    0    0  501 -0.00000000000E+00  0.00000000000E+00  0.21489271376E+03  0.21489271376E+03  0.00000000000E+00 0.  1.
          1   -1    0    0  501    0  0.00000000000E+00 -0.00000000000E+00 -0.81202424608E+02  0.81202424608E+02  0.00000000000E+00 0. -1.
         23    2    1    2    0    0  0.39801214780E+01  0.55541739947E+02  0.50265984988E+01  0.10820499143E+03  0.92640850790E+02 0.  0.
          5    1    1    2  502    0  0.58467627012E+02 -0.39915127229E+02  0.81158815576E+02  0.10777711508E+03  0.41800000000E+01 0.  1.
         -5    1    1    2    0  502 -0.62447748490E+02 -0.15626612717E+02  0.47504875079E+02  0.80113031854E+02  0.41800000000E+01 0.  1.
        -11    1    3    3    0    0 -0.14108232341E+02 -0.28245285724E+01 -0.33161570786E+02  0.36148443375E+02  0.00000000000E+00 0. -1.
         11    1    3    3    0    0  0.18088353819E+02  0.58366268519E+02  0.38188169285E+02  0.72056548058E+02  0.00000000000E+00 0.  1.
</event>
<event>
 7    1  0.4274778E-006  0.8708158E+02  0.7561462E-02  0.1310077E+00
          1   -1    0    0  501    0  0.00000000000E+00  0.00000000000E+00  0.18772078547E+03  0.18772078547E+03  0.00000000000E+00 0. -1.
         -1   -1    0    0    0  501 -0.00000000000E+00 -0.00000000000E+00 -0.93903625966E+02  0.93903625966E+02  0.00000000000E+00 0.  1.
         23    2    1    2    0    0  0.46510442299E+01 -0.68501558115E+00  0.12235814672E+03  0.15323187828E+03  0.92121609805E+02 0.  0.
          5    1    1    2  502    0  0.51101022587E+02  0.20774840576E+02 -0.39508519310E+02  0.67980173642E+02  0.41800000000E+01 0. -1.
         -5    1    1    2    0  502 -0.55752066816E+02 -0.20089824994E+02  0.10967532099E+02  0.60412359522E+02  0.41800000000E+01 0. -1.
        -11    1    3    3    0    0 -0.10745529768E+02 -0.26936391505E+02  0.19820116203E+01  0.29068263921E+02  0.00000000000E+00 0.  1.
         11    1    3    3    0    0  0.15396573998E+02  0.26251375924E+02  0.12037613510E+03  0.12416361436E+03  0.00000000000E+00 0. -1.
</event>
<event>
 7    1  0.4274778E-006  0.1064442E+03  0.7561462E-02  0.1267300E+00
          2   -1    0    0  501    0  0.00000000000E+00  0.00000000000E+00  0.88688030227E+02  0.88688030227E+02  0.00000000000E+00 0.  1.
         -2   -1    0    0    0  501 -0.00000000000E+00 -0.00000000000E+00 -0.21206279346E+03  0.21206279346E+03  0.00000000000E+00 0. -1.
         23    2    1    2    0    0  0.56067881568E+01  0.83228587788E+02 -0.38639042178E+02  0.12816534749E+03  0.89302557738E+02 0.  0.
          5    1    1    2  502    0  0.49996812259E+01  0.17193267054E+01  0.29224422497E+02  0.29991534922E+02  0.41800000000E+01 0.  1.
         -5    1    1    2    0  502 -0.10606469383E+02 -0.84947914494E+02 -0.11396014356E+03  0.14259394128E+03  0.41800000000E+01 0.  1.
        -11    1    3    3    0    0 -0.40090913443E+02  0.49186531834E+02 -0.94969641564E+01  0.64162205252E+02  0.00000000000E+00 0. -1.
         11    1    3    3    0    0  0.45697701600E+02  0.34042055954E+02 -0.29142078021E+02  0.64003142239E+02  0.00000000000E+00 0.  1.
</event>
<event>
 7    1  0.4274778E-006  0.2233073E+03  0.7561462E-02  0.1131441E+00
          1   -1    0    0  501    0  0.00000000000E+00  0.00000000000E+00  0.40408507909E+03  0.40408507909E+03  0.00000000000E+00 0. -1.
         -1   -1    0    0    0  501 -0.00000000000E+00 -0.00000000000E+00 -0.18862102198E+03  0.18862102198E+03  0.00000000000E+00 0.  1.
         23    2    1    2    0    0  0.19970032784E+03  0.47861935945E+02  0.26503940681E+03  0.34719045414E+03  0.90135112092E+02 0.  0.
          5    1    1    2  502    0 -0.46045614540E+02 -0.66642328453E+02  0.51549808285E+01  0.81273887488E+02  0.41800000000E+01 0.  1.
         -5    1    1    2    0  502 -0.15365471330E+03  0.18780392508E+02 -0.54730330524E+02  0.16424175944E+03  0.41800000000E+01 0.  1.
        -11    1    3    3    0    0  0.44158927072E+02 -0.89518951873E+01  0.11585135931E+03  0.12430480570E+03  0.00000000000E+00 0.  1.
         11    1    3    3    0    0  0.15554140077E+03  0.56813831133E+02  0.14918804750E+03  0.22288564844E+03  0.00000000000E+00 0. -1.
</event>
<event>
 7    1  0.4274778E-006  0.1603307E+03  0.7561462E-02  0.1188324E+00
          2   -1    0    0  501    0  0.00000000000E+00  0.00000000000E+00  0.22744498038E+03  0.22744498038E+03  0.00000000000E+00 0. -1.
         -2   -1    0    0    0  501 -0.00000000000E+00 -0.00000000000E+00 -0.12363371155E+03  0.12363371155E+03  0.00000000000E+00 0.  1.
         23    2    1    2    0    0  0.10935020467E+03 -0.59121653611E+02  0.83642172574E+02  0.17357576083E+03  0.87633866322E+02 0.  0.
          5    1    1    2  502    0 -0.44060162440E+02  0.92520382233E+02  0.17150566939E+02  0.10398525563E+03  0.41800000000E+01 0. -1.
         -5    1    1    2    0  502 -0.65290042230E+02 -0.33398728622E+02  0.30185293124E+01  0.73517675474E+02  0.41800000000E+01 0. -1.
        -11    1    3    3    0    0  0.10502123855E+03 -0.22037348809E+02  0.36298584699E+02  0.11328147484E+03  0.00000000000E+00 0.  1.
         11    1    3    3    0    0  0.43289661171E+01 -0.37084304802E+02  0.47343587875E+02  0.60294285991E+02  0.00000000000E+00 0. -1.
</event>
<event>
 7    1  0.4274778E-006  0.1560825E+03  0.7561462E-02  0.1193192E+00
          1   -1    0    0  501    0  0.00000000000E+00  0.00000000000E+00  0.57030794201E+03  0.57030794201E+03  0.00000000000E+00 0. -1.
         -1   -1    0    0    0  501 -0.00000000000E+00 -0.00000000000E+00 -0.50103337925E+02  0.50103337925E+02  0.00000000000E+00 0.  1.
         23    2    1    2    0    0  0.11720002041E+03 -0.21215018468E+02  0.33475250525E+03  0.36698811834E+03  0.91842895441E+02 0.  0.
          5    1    1    2  502    0 -0.87068063383E+02 -0.41002730632E+02  0.14224517326E+03  0.17179415967E+03  0.41800000000E+01 0.  1.
         -5    1    1    2    0  502 -0.30131957028E+02  0.62217749100E+02  0.43206925582E+02  0.81629001927E+02  0.41800000000E+01 0.  1.
        -11    1    3    3    0    0  0.12187640565E+03 -0.39176348837E+02  0.25788982797E+03  0.28791632106E+03  0.00000000000E+00 0.  1.
         11    1    3    3    0    0 -0.46763852377E+01  0.17961330369E+02  0.76862677277E+02  0.79071797284E+02  0.00000000000E+00 0. -1.
</event>
<event>
 6    1  0.4274778E-006  0.1914971E+03  0.7561462E-02  0.1157118E+00
          2   -1    0    0  501    0  0.00000000000E+00  0.00000000000E+00  0.30259170576E+03  0.30259170576E+03  0.00000000000E+00 0. -1.
         -2   -1    0    0    0  501 -0.00000000000E+00 -0.00000000000E+00 -0.17693362758E+03  0.17693362758E+03  0.00000000000E+00 0.  1.
          5    1    1    2  502    0 -0.73323992791E+02 -0.11889664134E+03  0.21178716581E+02  0.14134648803E+03  0.41800000000E+01 0.  1.
         -5    1    1    2    0  502 -0.41881075239E+02 -0.18109720939E+01 -0.56013559683E+02  0.70087768915E+02  0.41800000000E+01 0.  1.
        -11    1    1    2    0    0  0.64294465511E+02  0.13388866544E+03  0.71779065318E+02  0.16496116890E+03  0.00000000000E+00 0.  1.
         11    1    1    2    0    0  0.50910602520E+02 -0.13181052000E+02  0.88713855967E+02  0.10312990750E+03  0.00000000000E+00 0. -1.
</event>
<event>
 6    1  0.4274778E-006  0.1470958E+03  0.7561462E-02  0.1204088E+00
          1   -1    0    0  501    0  0.00000000000E+00  0.00000000000E+00  0.69184067452E+03  0.69184067452E+03  0.00000000000E+00 0. -1.
         -1   -1    0    0    0  501 -0.00000000000E+00 -0.00000000000E+00 -0.40365772103E+02  0.40365772103E+02  0.00000000000E+00 0.  1.
          5    1    1    2  502    0  0.36623811403E+02  0.51046134080E+00  0.26545671757E+02  0.45428066451E+02  0.41800000000E+01 0. -1.
         -5    1    1    2    0  502 -0.98790956039E+02  0.10789035582E+02  0.15108504309E+03  0.18088731003E+03  0.41800000000E+01 0. -1.
        -11    1    1    2    0    0  0.36577701226E+02  0.66535329770E+02  0.34459245186E+03  0.35285809643E+03  0.00000000000E+00 0. -1.
         11    1    1    2    0    0  0.25589443411E+02 -0.77834826693E+02  0.12925173570E+03  0.15303297371E+03  0.00000000000E+00 0.  1.
</event>
<event>
 7    1  0.4274778E-006  0.1189953E+03  0.7561462E-02  0.1244764E+00
          2   -1    0    0  501    0  0.00000000000E+00  0.00000000000E+00  0.37893717999E+02  0.37893717999E+02  0.00000000000E+00 0. -1.
         -2   -1    0    0    0  501 -0.00000000000E+00 -0.00000000000E+00 -0.60829561076E+03  0.60829561076E+03  0.00000000000E+00 0.  1.
         23    2    1    2    0    0 -0.61139449426E+02  0.35480801548E+02 -0.96674049088E+02  0.15115475875E+03  0.92222393002E+02 0.  0.
          5    1    1    2  502    0  0.94769627887E+02 -0.50366988449E+01 -0.26843860739E+03  0.28475148646E+03  0.41800000000E+01 0. -1.
         -5    1    1    2    0  502 -0.33630178461E+02 -0.30444102703E+02 -0.20528923628E+03  0.21028308354E+03  0.41800000000E+01 0. -1.
        -11    1    3    3    0    0 -0.15147740093E+02  0.47538652065E+02 -0.90321748903E+02  0.10318621902E+03  0.00000000000E+00 0.  1.
         11    1    3    3    0    0 -0.45991709333E+02 -0.12057850517E+02 -0.63523001852E+01  0.47968539733E+02  0.00000000000E+00 0. -1.
</event>
<event>
 7    1  0.4274778E-006  0.1181443E+03  0.7561462E-02  0.1246190E+00
          2   -1    0    0  501    0  0.00000000000E+00  0.00000000000E+00  0.13744307002E+03  0.13744307002E+03  0.00000000000E+00 0. -1.
         -2   -1    0    0    0  501 -0.00000000000E+00 -0.00000000000E+00 -0.13117498187E+03  0.13117498187E+03  0.00000000000E+00 0.  1.
         23    2    1    2    0    0  0.19388136182E+02 -0.48818708400E+02  0.61358346418E+02  0.12219758858E+03  0.91696444125E+02 0.  0.
          5    1    1    2  502    0  0.23429779867E+02 -0.31519645643E+02  0.82015209283E+00  0.39504274396E+02  0.41800000000E+01 0. -1.
         -5    1    1    2    0  502 -0.42817916049E+02  0.80338354043E+02 -0.55910410355E+02  0.10691618891E+03  0.41800000000E+01 0. -1.
        -11    1    3    3    0    0 -0.22538956430E+02 -0.58446846573E+02  0.35350492754E+02  0.71928407248E+02  0.00000000000E+00 0.  1.
         11    1    3    3    0    0  0.41927092612E+02  0.96281381731E+01  0.26007853664E+02  0.50269181331E+02  0.00000000000E+00 0. -1.
</event>
<event>
 7    1  0.4274778E-006  0.1098275E+03  0.7561462E-02  0.1260890E+00
          3   -1    0    0  501    0  0.00000000000E+00  0.00000000000E+00  0.28073571748E+02  0.28073571748E+02  0.00000000000E+00 0. -1.
         -3   -1    0    0    0  501 -0.00000000000E+00 -0.00000000000E+00 -0.18717717251E+04  0.18717717251E+04  0.00000000000E+00 0.  1.
         23    2    1    2    0    0  0.34348307132E+02 -0.28645489688E+01 -0.65043772369E+02  0.11687046167E+03  0.90774449284E+02 0.  0.
          5    1    1    2  502    0 -0.45471546218E+02 -0.50842007494E+02 -0.89002722536E+03  0.89264690977E+03  0.41800000000E+01 0. -1.
         -5    1    1    2    0  502  0.11123239086E+02  0.53706556463E+02 -0.88862715560E+03  0.89032792539E+03  0.41800000000E+01 0.  1.
        -11    1    3    3    0    0  0.41338855597E+01 -0.44598008918E+02 -0.22882377708E+02  0.50295870793E+02  0.00000000000E+00 0. -1.
         11    1    3    3    0    0  0.30214421572E+02  0.41733459949E+02 -0.42161394661E+02  0.66574590874E+02  0.00000000000E+00 0.  1.
</event>
<event>
 7    1  0.4274778E-006  0.1307167E+03  0.7561462E-02  0.1226396E+00
         -2   -1    0    0    0  501 -0.00000000000E+00  0.00000000000E+00  0.25947611648E+03  0.25947611648E+03  0.00000000000E+00 0.  1.
          2   -1    0    0  501    0  0.00000000000E+00 -0.00000000000E+00 -0.11983603219E+03  0.11983603219E+03  0.00000000000E+00 0. -1.
         23    2    1    2    0    0 -0.13247609165E+02 -0.10722408184E+03 -0.25832383029E+02  0.14542987809E+03  0.93861784299E+02 0.  0.
          5    1    1    2  502    0 -0.31002264205E+02  0.58464154280E+02  0.12756168766E+02  0.67523254980E+02  0.41800000000E+01 0. -1.
         -5    1    1    2    0  502  0.44249873371E+02  0.48759927565E+02  0.15271629855E+03  0.16635901560E+03  0.41800000000E+01 0. -1.
        -11    1    3    3    0    0 -0.89195333417E+01  0.91007496125E+01  0.17129556877E+02  0.21349553563E+02  0.00000000000E+00 0.  1.
         11    1    3    3    0    0 -0.43280758236E+01 -0.11632483146E+03 -0.42961939906E+02  0.12408032453E+03  0.00000000000E+00 0. -1.
</event>
<event>
 7    1  0.4274778E-006  0.1071321E+03  0.7561462E-02  0.1265975E+00
          2   -1    0    0  501    0  0.00000000000E+00  0.00000000000E+00  0.84645171367E+03  0.84645171367E+03  0.00000000000E+00 0.  1.
         -2   -1    0    0    0  501 -0.00000000000E+00 -0.00000000000E+00 -0.23945566035E+02  0.23945566035E+02  0.00000000000E+00 0. -1.
         23    2    1    2    0    0 -0.73225896453E+02 -0.51367142971E+02  0.45243690079E+03  0.46964946639E+03  0.88717849338E+02 0.  0.
          5    1    1    2  502    0  0.44543929471E+02  0.31143956301E+02  0.37172268920E+02  0.65979979111E+02  0.41800000000E+01 0.  1.
         -5    1    1    2    0  502  0.28681966982E+02  0.20223186670E+02  0.33289697793E+03  0.33476783421E+03  0.41800000000E+01 0.  1.
        -11    1    3    3    0    0 -0.90104645640E+02 -0.25715033009E+02  0.30589029195E+03  0.31992027256E+03  0.00000000000E+00 0.  1.
         11    1    3    3    0    0  0.16878749187E+02 -0.25652109961E+02  0.14654660885E+03  0.14972919383E+03  0.00000000000E+00 0. -1.
</event>
<event>
 7    1  0.4274778E-006  0.1111867E+03  0.7561462E-02  0.1258388E+00
          1   -1    0    0  501    0  0.00000000000E+00  0.00000000000E+00  0.30694788111E+03  0.30694788111E+03  0.00000000000E+00 0. -1.
         -1   -1    0    0    0  501 -0.00000000000E+00 -0.00000000000E+00 -0.63123056552E+02  0.63123056552E+02  0.00000000000E+00 0.  1.
         23    2    1    2    0    0  0.44637057131E+01  0.30761929861E+02  0.21837464014E+03  0.23866788604E+03  0.91151825951E+02 0.  0.
          5    1    1    2  502    0 -0.56127641318E+02 -0.46796072066E+02  0.48111956120E+01  0.73353967064E+02  0.41800000000E+01 0. -1.
         -5    1    1    2    0  502  0.51663935605E+02  0.16034142204E+02  0.20638988801E+02  0.58049084551E+02  0.41800000000E+01 0. -1.
        -11    1    3    3    0    0 -0.13224734332E+02  0.59622364146E+02  0.15894916897E+03  0.17027788530E+03  0.00000000000E+00 0. -1.
         11    1    3    3    0    0  0.17688440045E+02 -0.28860434285E+02  0.59425471168E+02  0.68390000745E+02  0.00000000000E+00 0.  1.
</event>
<event>
 7    1  0.4274778E-006  0.1073869E+03  0.7561462E-02  0.1265487E+00
          1   -1    0    0  501    0  0.00000000000E+00  0.00000000000E+00  0.18263749226E+03  0.18263749226E+03  0.00000000000E+00 0. -1.
         -1   -1    0    0    0  501 -0.00000000000E+00 -0.00000000000E+00 -0.79032884042E+02  0.79032884042E+02  0.00000000000E+00 0.  1.
         23    2    1    2    0    0 -0.26464019141E+02 -0.34705615321E+02  0.76160850184E+02  0.12637219535E+03  0.90910024828E+02 0.  0.
          5    1    1    2  502    0  0.60474014925E+02 -0.61653898876E+01 -0.19780221493E+02  0.64061283752E+02  0.41800000000E+01 0. -1.
         -5    1    1    2    0  502 -0.34009995785E+02  0.40871005208E+02  0.47223979530E+02  0.71236897200E+02  0.41800000000E+01 0. -1.
        -11    1    3    3    0    0  0.23476018704E+02  0.16721907142E+02  0.17285905444E+02  0.33608751236E+02  0.00000000000E+00 0. -1.
         11    1    3    3    0    0 -0.49940037844E+02 -0.51427522463E+02  0.58874944740E+02  0.92763444119E+02  0.00000000000E+00 0.  1.
</event>
<event>
 7    1  0.4274778E-006  0.9653537E+02  0.7561462E-02  0.1287755E+00
         -4   -1    0    0    0  501 -0.00000000000E+00  0.00000000000E+00  0.14787955931E+03  0.14787955931E+03  0.00000000000E+00 0.  1.
          4   -1    0    0  501    0  0.00000000000E+00 -0.00000000000E+00 -0.92453940568E+02  0.92453940568E+02  0.00000000000E+00 0. -1.
         23    2    1    2    0    0 -0.37843740341E+02  0.25528934566E+02  0.13102487612E+02  0.10061136599E+03  0.88696654961E+02 0.  0.
          5    1    1    2  502    0  0.42504572749E+02  0.20725814973E+02  0.70653327071E+02  0.85120873686E+02  0.41800000000E+01 0. -1.
         -5    1    1    2    0  502 -0.46608324083E+01 -0.46254749539E+02 -0.28330195942E+02  0.54601260203E+02  0.41800000000E+01 0. -1.
        -11    1    3    3    0    0 -0.65521497234E+02  0.27747848963E+02  0.35345895677E+01  0.71242564842E+02  0.00000000000E+00 0.  1.
         11    1    3    3    0    0  0.27677756893E+02 -0.22189143969E+01  0.95678980442E+01  0.29368801146E+02  0.00000000000E+00 0. -1.
</event>
<event>
 7    1  0.4274778E-006  0.1234270E+03  0.7561462E-02  0.1237548E+00
         -2   -1    0    0    0  501 -0.00000000000E+00  0.00000000000E+00  0.59481941151E+02  0.59481941151E+02  0.00000000000E+00 0.  1.
          2   -1    0    0  501    0  0.00000000000E+00 -0.00000000000E+00 -0.29819437870E+03  0.29819437870E+03  0.00000000000E+00 0. -1.
         23    2    1    2    0    0 -0.45567167212E+02 -0.57117157887E+02 -0.14061050251E+03  0.18271291617E+03  0.90961309729E+02 0.  0.
          5    1    1    2  502    0 -0.39373655967E+02  0.43258140403E+02 -0.42297237806E+02  0.72305464672E+02  0.41800000000E+01 0.  1.
         -5    1    1    2    0  502  0.84940823179E+02  0.13859017484E+02 -0.55804697237E+02  0.10265793901E+03  0.41800000000E+01 0.  1.
        -11    1    3    3    0    0 -0.61398174633E+02 -0.60121001103E+02 -0.14258647137E+03  0.16647874471E+03  0.00000000000E+00 0. -1.
         11    1    3    3    0    0  0.15831007421E+02  0.30038432159E+01  0.19759688660E+01  0.16234171460E+02  0.00000000000E+00 0.  1.
</event>
<event>
 7    1  0.4274778E-006  0.1196520E+03  0.7561462E-02  0.1243672E+00
         -1   -1    0    0    0  501 -0.00000000000E+00  0.00000000000E+00  0.19277419676E+03  0.19277419676E+03  0.00000000000E+00 0.  1.
          1   -1    0    0  501    0  0.00000000000E+00 -0.00000000000E+00 -0.10854646018E+03  0.10854646018E+03  0.00000000000E+00 0. -1.
         23    2    1    2    0    0  0.59855792358E+01 -0.84960989165E+02 -0.67600695776E+01  0.12473781870E+03  0.90882495756E+02 0.  0.
          5    1    1    2  502    0  0.21918496956E+01  0.11318503528E+03  0.93375428266E+02  0.14680633304E+03  0.41800000000E+01 0. -1.
         -5    1    1    2    0  502 -0.81774289314E+01 -0.28224046111E+02 -0.23876221058E+01  0.29776505204E+02  0.41800000000E+01 0. -1.
        -11    1    3    3    0    0  0.22302930800E+02 -0.72372214849E+02  0.30912153008E+02  0.81796817835E+02  0.00000000000E+00 0.  1.
         11    1    3    3    0    0 -0.16317351564E+02 -0.12588774316E+02 -0.37672222585E+02  0.42941000865E+02  0.00000000000E+00 0. -1.
</event>
<event>
 7    1  0.4274778E-006  0.2745891E+03  0.7561462E-02  0.1098681E+00
         -1   -1    0    0    0  501 -0.00000000000E+00  0.00000000000E+00  0.96228789832E+02  0.96228789832E+02  0.00000000000E+00 0.  1.
          1   -1    0    0  501    0  0.00000000000E+00 -0.00000000000E+00 -0.90976662074E+03  0.90976662074E+03  0.00000000000E+00 0. -1.
         23    2    1    2    0    0 -0.24550526653E+03 -0.96075433479E+02 -0.53052279300E+03  0.59948676840E+03  0.91796659972E+02 0.  0.
          5    1    1    2  502    0  0.25145592362E+03  0.10592268741E+03 -0.24556766411E+03  0.36711121923E+03  0.41800000000E+01 0.  1.
         -5    1    1    2    0  502 -0.59506570836E+01 -0.98472539286E+01 -0.37447373800E+02  0.39397422938E+02  0.41800000000E+01 0.  1.
        -11    1    3    3    0    0 -0.17340892926E+03 -0.75031077443E+02 -0.45639868889E+03  0.49396364497E+03  0.00000000000E+00 0.  1.
         11    1    3    3    0    0 -0.72096337270E+02 -0.21044356036E+02 -0.74124104107E+02  0.10552312343E+03  0.00000000000E+00 0. -1.
</event>
<event>
 7    1  0.4274778E-006  0.1016195E+03  0.7561462E-02  0.1276927E+00
         -4   -1    0    0    0  501 -0.00000000000E+00  0.00000000000E+00  0.10876642474E+03  0.10876642474E+03  0.00000000000E+00 0.  1.
          4   -1    0    0  501    0  0.00000000000E+00 -0.00000000000E+00 -0.14573659797E+03  0.14573659797E+03  0.00000000000E+00 0. -1.
         23    2    1    2    0    0  0.63561205404E+02 -0.14513935084E+01 -0.24026132588E+02  0.11358762504E+03  0.91009670587E+02 0.  0.
          5    1    1    2  502    0  0.12285189387E+01  0.24225036613E+02 -0.55014480103E+02  0.60269619866E+02  0.41800000000E+01 0.  1.
         -5    1    1    2    0  502 -0.64789724343E+02 -0.22773643105E+02  0.42070439461E+02  0.80645777801E+02  0.41800000000E+01 0.  1.
        -11    1    3    3    0    0  0.77411332056E+02  0.23829685899E+02 -0.10261455974E+02  0.81643528460E+02  0.00000000000E+00 0. -1.
         11    1    3    3    0    0 -0.13850126652E+02 -0.25281079407E+02 -0.13764676614E+02  0.31944096583E+02  0.00000000000E+00 0.  1.
</event>
<event>
 7    1  0.4274778E-006  0.1016860E+03  0.7561462E-02  0.1276790E+00
         -2   -1    0    0    0  501 -0.00000000000E+00  0.00000000000E+00  0.58158287290E+02  0.58158287290E+02  0.00000000000E+00 0.  1.
          2   -1    0    0  501    0  0.00000000000E+00 -0.00000000000E+00 -0.31822766433E+03  0.31822766433E+03  0.00000000000E+00 0. -1.
         23    2    1    2    0    0  0.41988490621E+02 -0.37824759215E+02 -0.19928088184E+03  0.22626981562E+03  0.91057200916E+02 0.  0.
          5    1    1    2  502    0  0.17662020549E+02 -0.97191979066E+01 -0.70188434889E+02  0.73145735146E+02  0.41800000000E+01 0.  1.
         -5    1    1    2    0  502 -0.59650511170E+02  0.47543957121E+02  0.93999396909E+01  0.76970400855E+02  0.41800000000E+01 0.  1.
        -11    1    3    3    0    0 -0.25160673073E+02 -0.29427210502E+02 -0.86028692358E+02  0.94339578631E+02  0.00000000000E+00 0. -1.
         11    1    3    3    0    0  0.67149163693E+02 -0.83975487130E+01 -0.11325218948E+03  0.13193023699E+03  0.00000000000E+00 0.  1.
</event>
<event>
 7    1  0.4274778E-006  0.6920571E+02  0.7561462E-02  0.1362815E+00
         -2   -1    0    0    0  501 -0.00000000000E+00  0.00000000000E+00  0.68424855528E+02  0.68424855528E+02  0.00000000000E+00 0.  1.
          2   -1    0    0  501    0  0.00000000000E+00 -0.00000000000E+00 -0.28643296397E+03  0.28643296397E+03  0.00000000000E+00 0. -1.
         23    2    1    2    0    0 -0.10070274641E-01  0.37932187743E+02 -0.19691779686E+03  0.22245153996E+03  0.96276777786E+02 0.  0.
          5    1    1    2  502    0 -0.69957830672E+01 -0.32606465380E+02 -0.72590005975E+02  0.79993149286E+02  0.41800000000E+01 0.  1.
         -5    1    1    2    0  502  0.70058533418E+01 -0.53257223635E+01  0.51499694397E+02  0.52413130251E+02  0.41800000000E+01 0.  1.
        -11    1    3    3    0    0  0.23306374425E+02 -0.21193942575E+02 -0.28654367002E+02  0.42584539906E+02  0.00000000000E+00 0.  1.
         11    1    3    3    0    0 -0.23316444700E+02  0.59126130319E+02 -0.16826342986E+03  0.17986700005E+03  0.00000000000E+00 0. -1.
</event>
<event>
 7    1  0.4274778E-006  0.1598135E+03  0.7561462E-02  0.1188907E+00
          1   -1    0    0  501    0  0.00000000000E+00  0.00000000000E+00  0.27668136393E+03  0.27668136393E+03  0.00000000000E+00 0. -1.
         -1   -1    0    0    0  501 -0.00000000000E+00 -0.00000000000E+00 -0.11649796007E+03  0.11649796007E+03  0.00000000000E+00 0.  1.
         23    2    1    2    0    0 -0.13603455438E+03  0.14715687747E+02  0.11690070865E+03  0.20280473427E+03  0.93498840143E+02 0.  0.
          5    1    1    2  502    0  0.58427075256E+02 -0.41637168995E+02  0.73455260146E+02  0.10276441314E+03  0.41800000000E+01 0. -1.
         -5    1    1    2    0  502  0.77607479120E+02  0.26921481248E+02 -0.30172564929E+02  0.87610176591E+02  0.41800000000E+01 0. -1.
        -11    1    3    3    0    0 -0.81632608905E+02  0.54464096235E+02  0.74335590860E+02  0.12310970995E+03  0.00000000000E+00 0.  1.
         11    1    3    3    0    0 -0.54401945470E+02 -0.39748408489E+02  0.42565117790E+02  0.79695024316E+02  0.00000000000E+00 0. -1.
</event>
<event>
 7    1  0.4274778E-006  0.1204026E+03  0.7561462E-02  0.1242434E+00
         -3   -1    0    0    0  501 -0.00000000000E+00  0.00000000000E+00  0.22823291923E+03  0.22823291923E+03  0.00000000000E+00 0.  1.
          3   -1    0    0  501    0  0.00000000000E+00 -0.00000000000E+00 -0.79495630202E+02  0.79495630202E+02  0.00000000000E+00 0. -1.
         23    2    1    2    0    0 -0.61713927454E+02  0.44158326618E+02  0.46925058779E+02  0.12948124281E+03  0.93834239207E+02 0.  0.
          5    1    1    2  502    0  0.93851060950E+02 -0.13637774849E+02  0.42298886009E+02  0.10392631381E+03  0.41800000000E+01 0.  1.
         -5    1    1    2    0  502 -0.32137133496E+02 -0.30520551769E+02  0.59513344241E+02  0.74320992810E+02  0.41800000000E+01 0.  1.
        -11    1    3    3    0    0 -0.70205487335E+02  0.16077994806E+02  0.63298221980E+02  0.95885229701E+02  0.00000000000E+00 0.  1.
         11    1    3    3    0    0  0.84915598811E+01  0.28080331812E+02 -0.16373163200E+02  0.33596013113E+02  0.00000000000E+00 0. -1.
</event>
<event>
 7    1  0.4274778E-006  0.9661704E+02  0.7561462E-02  0.1287575E+00
         -3   -1    0    0    0  501 -0.00000000000E+00  0.00000000000E+00  0.46922699330E+03  0.46922699330E+03  0.00000000000E+00 0.  1.
          3   -1    0    0  501    0  0.00000000000E+00 -0.00000000000E+00 -0.44218111127E+02  0.44218111127E+02  0.00000000000E+00 0. -1.
         23    2    1    2    0    0  0.22854611242E+02  0.34128147688E+02  0.41822601790E+02  0.10827256020E+03  0.91031607436E+02 0.  0.
          5    1    1    2  502    0  0.33961406074E+02 -0.32097293546E+01  0.28602803532E+02  0.44713222149E+02  0.41800000000E+01 0.  1.
         -5    1    1    2    0  502 -0.56816017316E+02 -0.30918418334E+02  0.35458347685E+03  0.36045932207E+03  0.41800000000E+01 0.  1.
        -11    1    3    3    0    0 -0.83288114737E+01  0.55578227089E+02  0.42432792550E+02  0.70419104727E+02  0.00000000000E+00 0.  1.
         11    1    3    3    0    0  0.31183422716E+02 -0.21450079401E+02 -0.61019075997E+00  0.37853455475E+02  0.00000000000E+00 0. -1.
</event>
<event>
 6    1  0.4274778E-006  0.9608325E+02  0.7561462E-02  0.1288755E+00
          4   -1    0    0  501    0  0.00000000000E+00  0.00000000000E+00  0.63909909063E+02  0.63909909063E+02  0.00000000000E+00 0. -1.
         -4   -1    0    0    0  501 -0.00000000000E+00 -0.00000000000E+00 -0.34528236110E+03  0.34528236110E+03  0.00000000000E+00 0.  1.
          5    1    1    2  502    0 -0.73354374866E+02  0.54338113603E+01 -0.48266489024E+02  0.88076767541E+02  0.41800000000E+01 0. -1.
         -5    1    1    2    0  502  0.24377558029E+02  0.25030923839E+02 -0.14588669263E+03  0.15007068991E+03  0.41800000000E+01 0. -1.
        -11    1    1    2    0    0  0.17098914166E+02  0.18298864117E+02  0.30639800074E+02  0.39572953418E+02  0.00000000000E+00 0. -1.
         11    1    1    2    0    0  0.31877902671E+02 -0.48763599316E+02 -0.11785907046E+03  0.13147185929E+03  0.00000000000E+00 0.  1.
</event>
<event>
 7    1  0.4274778E-006  0.1613744E+03  0.7561462E-02  0.1187154E+00
         -1   -1    0    0    0  501 -0.00000000000E+00  0.00000000000E+00  0.45983188506E+02  0.45983188506E+02  0.00000000000E+00 0.  1.
          1   -1    0    0  501    0  0.00000000000E+00 -0.00000000000E+00 -0.81556934982E+03  0.81556934982E+03  0.00000000000E+00 0. -1.
         23    2    1    2    0    0  0.15145752206E+03 -0.43010665508E+02 -0.26767802104E+03  0.32085906424E+03  0.80682822329E+02 0.  0.
          5    1    1    2  502    0 -0.12063848555E+03  0.52843369847E+02 -0.48757056350E+03  0.50506295916E+03  0.41800000000E+01 0. -1.
         -5    1    1    2    0  502 -0.30819036510E+02 -0.98327043393E+01 -0.14337576775E+02  0.35630514925E+02  0.41800000000E+01 0. -1.
        -11    1    3    3    0    0  0.80249947307E+02 -0.13965057945E+02 -0.65420396174E+02  0.10447442329E+03  0.00000000000E+00 0.  1.
         11    1    3    3    0    0  0.71207574749E+02 -0.29045607563E+02 -0.20225762487E+03  0.21638464095E+03  0.00000000000E+00 0. -1.
</event>
<event>
 7    1  0.4274778E-006  0.9386523E+02  0.7561462E-02  0.1293753E+00
         -1   -1    0    0    0  501 -0.00000000000E+00  0.00000000000E+00  0.45919621679E+02  0.45919621679E+02  0.00000000000E+00 0.  1.
          1   -1    0    0  501    0  0.00000000000E+00 -0.00000000000E+00 -0.40735501273E+03  0.40735501273E+03  0.00000000000E+00 0. -1.
         23    2    1    2    0    0  0.55204773802E+02  0.54091223110E+02 -0.21113940483E+03  0.24301263886E+03  0.92205568731E+02 0.  0.
          5    1    1    2  502    0 -0.17633088071E+02 -0.14067329858E+02  0.20528539603E+02  0.30784881070E+02  0.41800000000E+01 0.  1.
         -5    1    1    2    0  502 -0.37571685731E+02 -0.40023893252E+02 -0.17082452582E+03  0.17947711448E+03  0.41800000000E+01 0.  1.
        -11    1    3    3    0    0  0.34257336845E+02 -0.15103386093E+02 -0.29989902799E+02  0.47969486854E+02  0.00000000000E+00 0.  1.
         11    1    3    3    0    0  0.20947436958E+02  0.69194609203E+02 -0.18114950203E+03  0.19504315200E+03  0.00000000000E+00 0. -1.
</event>
<event>
 7    1  0.4274778E-006  0.8849798E+02  0.7561462E-02  0.1306530E+00
         -1   -1    0    0    0  501 -0.00000000000E+00  0.00000000000E+00  0.42865892099E+03  0.42865892099E+03  0.00000000000E+00 0.  1.
          1   -1    0    0  501    0  0.00000000000E+00 -0.00000000000E+00 -0.29599758871E+02  0.29599758871E+02  0.00000000000E+00 0. -1.
         23    2    1    2    0    0  0.26374748267E+02 -0.43435926174E+01  0.13094325521E+03  0.16119115549E+03  0.90121908436E+02 0.  0.
          5    1    1    2  502    0  0.28739702612E+02 -0.18765075623E+02  0.21259114781E+03  0.21538469560E+03  0.41800000000E+01 0.  1.
         -5    1    1    2    0  502 -0.55114450879E+02  0.23108668241E+02  0.55524759095E+02  0.81682828772E+02  0.41800000000E+01 0.  1.
        -11    1    3    3    0    0 -0.23540193786E+02 -0.19258502236E+02  0.14642287367E+02  0.33755402696E+02  0.00000000000E+00 0. -1.
         11    1    3    3    0    0  0.49914942053E+02  0.14914909618E+02  0.11630096784E+03  0.12743575279E+03  0.00000000000E+00 0.  1.
</event>
<event>
 7    1  0.4274778E-006  0.8546488E+02  0.7561462E-02  0.1314221E+00
          2   -1    0    0  501    0  0.00000000000E+00  0.00000000000E+00  0.51738491057E+03  0.51738491057E+03  0.00000000000E+00 0. -1.
         -2   -1    0    0    0  501 -0.00000000000E+00 -0.00000000000E+00 -0.29885982578E+02  0.29885982578E+02  0.00000000000E+00 0.  1.
         23    2    1    2    0    0 -0.30890415663E+02 -0.43341033282E+01  0.32127431143E+03  0.33332030055E+03  0.83139866113E+02 0.  0.
          5    1    1    2  502    0 -0.31255426549E+02  0.57695797606E+01 -0.43527894621E+01  0.32351335606E+02  0.41800000000E+01 0. -1.
         -5    1    1    2    0  502  0.62145842213E+02 -0.14354764323E+01  0.17057740603E+03  0.18159925700E+03  0.41800000000E+01 0.  1.
        -11    1    3    3    0    0 -0.24882632210E+02 -0.36319222563E+02  0.26223848594E+03  0.26590835793E+03  0.00000000000E+00 0. -1.
         11    1    3    3    0    0 -0.60077834531E+01  0.31985119235E+02  0.59035825497E+02  0.67411942611E+02  0.00000000000E+00 0.  1.
</event>
<event>
 7    1  0.4274778E-006  0.3997014E+03  0.7561462E-02  0.1043883E+00
          2   -1    0    0  501    0  0.00000000000E+00  0.00000000000E+00  0.78242847798E+03  0.78242847798E+03  0.00000000000E+00 0. -1.
         -2   -1    0    0    0  501 -0.00000000000E+00 -0.00000000000E+00 -0.23818146769E+03  0.23818146769E+03  0.00000000000E+00 0.  1.
         23    2    1    2    0    0  0.34162825307E+03  0.20650673642E+03  0.12493899929E+03  0.42830824350E+03  0.92104844752E+02 0.  0.
          5    1    1    2  502    0 -0.14049102389E+03 -0.72443355683E+02  0.84361493655E+02  0.17922081796E+03  0.41800000000E+01 0. -1.
         -5    1    1    2    0  502 -0.20113722918E+03 -0.13406338074E+03  0.33494651734E+03  0.41308088421E+03  0.41800000000E+01 0. -1.
        -11    1    3    3    0    0  0.15924754900E+03  0.10571701958E+03  0.12552810493E+02  0.19155532658E+03  0.00000000000E+00 0.  1.
         11    1    3    3    0    0  0.18238070407E+03  0.10078971685E+03  0.11238618880E+03  0.23675291692E+03  0.00000000000E+00 0. -1.
</event>
<event>
 7    1  0.4274778E-006  0.1033962E+03  0.7561462E-02  0.1273312E+00
          2   -1    0    0  501    0  0.00000000000E+00  0.00000000000E+00  0.86856504407E+02  0.86856504407E+02  0.00000000000E+00 0. -1.
         -2   -1    0    0    0  501 -0.00000000000E+00 -0.00000000000E+00 -0.22244103795E+03  0.22244103795E+03  0.00000000000E+00 0.  1.
         23    2    1    2    0    0  0.11726857076E+02 -0.31651855863E+02  0.26610761300E+02  0.10170552617E+03  0.92176582055E+02 0.  0.
          5    1    1    2  502    0  0.27947328878E+02 -0.30750940564E+02 -0.17978679290E+02  0.45468437910E+02  0.41800000000E+01 0. -1.
         -5    1    1    2    0  502 -0.39674185954E+02  0.62402796426E+02 -0.14421661555E+03  0.16212357828E+03  0.41800000000E+01 0. -1.
        -11    1    3    3    0    0  0.48362706007E+02 -0.21652464262E+02  0.34080273686E+02  0.63001949140E+02  0.00000000000E+00 0. -1.
         11    1    3    3    0    0 -0.36635848932E+02 -0.99993916007E+01 -0.74695123856E+01  0.38703577026E+02  0.00000000000E+00 0.  1.
</event>
<event>
 7    1  0.4274778E-006  0.7815708E+02  0.7561462E-02  0.1334364E+00
          2   -1    0    0  501    0  0.00000000000E+00  0.00000000000E+00  0.21991619546E+03  0.21991619546E+03  0.00000000000E+00 0.  1.
         -2   -1    0    0    0  501 -0.00000000000E+00 -0.00000000000E+00 -0.78420925115E+02  0.78420925115E+02  0.00000000000E+00 0. -1.
         23    2    1    2    0    0  0.14316729927E+02 -0.34533501947E+02  0.13454838881E+03  0.16759446909E+03  0.92666637066E+02 0.  0.
          5    1    1    2  502    0 -0.32609832489E+02  0.20008530589E+02 -0.53442574630E+02  0.65858360551E+02  0.41800000000E+01 0.  1.
         -5    1    1    2    0  502  0.18293102562E+02  0.14524971357E+02  0.60389456170E+02  0.64884290940E+02  0.41800000000E+01 0.  1.
        -11    1    3    3    0    0 -0.26920606565E+02  0.14055514934E+02  0.72698393109E+02  0.78786629059E+02  0.00000000000E+00 0. -1.
         11    1    3    3    0    0  0.41237336491E+02 -0.48589016881E+02  0.61849995698E+02  0.88807840027E+02  0.00000000000E+00 0.  1.
</event>
<event>
 7    1  0.4274778E-006  0.1518008E+03  0.7561462E-02  0.1198278E+00
         -1   -1    0    0    0  501 -0.00000000000E+00  0.00000000000E+00  0.45698339795E+02  0.45698339795E+02  0.00000000000E+00 0.  1.
          1   -1    0    0  501    0  0.00000000000E+00 -0.00000000000E+00 -0.77105226194E+03  0.77105226194E+03  0.00000000000E+00 0. -1.
         23    2    1    2    0    0  0.11838449981E+03  0.53021962694E+02 -0.51870773206E+03  0.54256813483E+03  0.92175112199E+02 0.  0.
          5    1    1    2  502    0 -0.13210547955E+03 -0.68926866167E+02 -0.20391783564E+03  0.25259201630E+03  0.41800000000E+01 0.  1.
         -5    1    1    2    0  502  0.13720979735E+02  0.15904903474E+02 -0.27283544426E+01  0.21590450606E+02  0.41800000000E+01 0.  1.
        -11    1    3    3    0    0  0.68376250967E+02  0.14258800412E+02 -0.41682717686E+03  0.42263875882E+03  0.00000000000E+00 0. -1.
         11    1    3    3    0    0  0.50008248844E+02  0.38763162281E+02 -0.10188055520E+03  0.11992937601E+03  0.00000000000E+00 0.  1.
</event>
<event>
 7    1  0.4274778E-006  0.2119903E+03  0.7561462E-02  0.1140000E+00
          2   -1    0    0  501    0  0.00000000000E+00  0.00000000000E+00  0.38275070672E+03  0.38275070672E+03  0.00000000000E+00 0. -1.
         -2   -1    0    0    0  501 -0.00000000000E+00 -0.00000000000E+00 -0.12666058069E+03  0.12666058069E+03  0.00000000000E+00 0.  1.
         23    2    1    2    0    0  0.18787539720E+03 -0.95975883553E+01  0.16245251870E+03  0.26486056454E+03  0.91493274284E+02 0.  0.
          5    1    1    2  502    0  0.10957019893E+00  0.35128985332E+02  0.22347019769E+02  0.41843987724E+02  0.41800000000E+01 0.  1.
         -5    1    1    2    0  502 -0.18798496739E+03 -0.25531396976E+02  0.71290587558E+02  0.20270673514E+03  0.41800000000E+01 0.  1.
        -11    1    3    3    0    0  0.12186950999E+03  0.24873141724E+02  0.13958840926E+03  0.18696463474E+03  0.00000000000E+00 0. -1.
         11    1    3    3    0    0  0.66005887210E+02 -0.34470730079E+02  0.22864109448E+02  0.77895929800E+02  0.00000000000E+00 0.  1.
</event>
<event>
 7    1  0.4274778E-006  0.1256200E+03  0.7561462E-02  0.1234103E+00
         -2   -1    0    0    0  501 -0.00000000000E+00  0.00000000000E+00  0.15356634919E+03  0.15356634919E+03  0.00000000000E+00 0.  1.
          2   -1    0    0  501    0  0.00000000000E+00 -0.00000000000E+00 -0.18937293981E+03  0.18937293981E+03  0.00000000000E+00 0. -1.
         23    2    1    2    0    0 -0.62993448230E+02  0.31401357314E+02 -0.12816038445E+03  0.17226017524E+03  0.91072850341E+02 0.  0.
          5    1    1    2  502    0  0.97619053087E+02 -0.38664499531E+02  0.53327239675E+02  0.11783755743E+03  0.41800000000E+01 0. -1.
         -5    1    1    2    0  502 -0.34625604856E+02  0.72631422176E+01  0.39026554158E+02  0.52841556336E+02  0.41800000000E+01 0. -1.
        -11    1    3    3    0    0 -0.25852137320E+02  0.58898353892E+02 -0.50038778491E+02  0.81493732570E+02  0.00000000000E+00 0. -1.
         11    1    3    3    0    0 -0.37141310910E+02 -0.27496996579E+02 -0.78121605957E+02  0.90766442666E+02  0.00000000000E+00 0.  1.
</event>
<event>
 7    1  0.4274778E-006  0.1061029E+03  0.7561462E-02  0.1267962E+00
          3   -1    0    0  501    0  0.00000000000E+00  0.00000000000E+00  0.30242259272E+02  0.30242259272E+02  0.00000000000E+00 0. -1.
         -3   -1    0    0    0  501 -0.00000000000E+00 -0.00000000000E+00 -0.44550113207E+03  0.44550113207E+03  0.00000000000E+00 0.  1.
         23    2    1    2    0    0  0.89182880952E+01  0.34031412910E+02 -0.13456940257E+03  0.16643668375E+03  0.91403351490E+02 0.  0.
          5    1    1    2  502    0  0.47512052873E+02  0.63050183637E+01 -0.54566279433E+02  0.72746819009E+02  0.41800000000E+01 0. -1.
         -5    1    1    2    0  502 -0.56430340969E+02 -0.40336431274E+02 -0.22612319080E+03  0.23655988858E+03  0.41800000000E+01 0. -1.
        -11    1    3    3    0    0 -0.38312922253E+02  0.37404708072E+01 -0.34415138747E+02  0.51635965261E+02  0.00000000000E+00 0.  1.
         11    1    3    3    0    0  0.47231210349E+02  0.30290942103E+02 -0.10015426382E+03  0.11480071849E+03  0.00000000000E+00 0. -1.
</event>
<event>
 7    1  0.4274778E-006  0.8924662E+02  0.7561462E-02  0.1304686E+00
          2   -1    0    0  501    0  0.00000000000E+00  0.00000000000E+00  0.45696019861E+02  0.45696019861E+02  0.00000000000E+00 0. -1.
         -2   -1    0    0    0  501 -0.00000000000E+00 -0.00000000000E+00 -0.35083888735E+03  0.35083888735E+03  0.00000000000E+00 0.  1.
         23    2    1    2    0    0  0.24635932698E+02 -0.58148332295E+01 -0.36768958441E+02  0.99378070647E+02  0.88787967402E+02 0.  0.
          5    1    1    2  502    0 -0.20633936555E+02 -0.38592481588E+02 -0.24033040707E+03  0.24431806305E+03  0.41800000000E+01 0. -1.
         -5    1    1    2    0  502 -0.40019961435E+01  0.44407314818E+02 -0.28043501977E+02  0.52838773506E+02  0.41800000000E+01 0. -1.
        -11    1    3    3    0    0  0.50716121902E+02  0.18604761520E+02 -0.33351669053E+02  0.63486975047E+02  0.00000000000E+00 0.  1.
         11    1    3    3    0    0 -0.26080189204E+02 -0.24419594750E+02 -0.34172893878E+01  0.35891095601E+02  0.00000000000E+00 0. -1.
</event>
<event>
 7    1  0.4274778E-006  0.1318476E+03  0.7561462E-02  0.1224740E+00
         -2   -1    0    0    0  501 -0.00000000000E+00  0.00000000000E+00  0.23372159160E+02  0.23372159160E+02  0.00000000000E+00 0. -1.
          2   -1    0    0  501    0  0.00000000000E+00 -0.00000000000E+00 -0.87648442407E+03  0.87648442407E+03  0.00000000000E+00 0.  1.
         23    2    1    2    0    0  0.76323787652E+02  0.17795455757E+02 -0.54836539307E+03  0.56123958153E+03  0.90240039626E+02 0.  0.
          5    1    1    2  502    0 -0.78553745816E+02 -0.62206172013E+02 -0.23842530599E+03  0.25865884434E+03  0.41800000000E+01 0.  1.
         -5    1    1    2    0  502  0.22299581634E+01  0.44410716256E+02 -0.66321565843E+02  0.79958157356E+02  0.41800000000E+01 0.  1.
        -11    1    3    3    0    0  0.33893267467E+00 -0.29330038822E+02 -0.10963864722E+03  0.11349448893E+03  0.00000000000E+00 0. -1.
         11    1    3    3    0    0  0.75984854978E+02  0.47125494579E+02 -0.43872674585E+03  0.44774509260E+03  0.00000000000E+00 0.  1.
</event>
<event>
 7    1  0.4274778E-006  0.9560002E+02  0.7561462E-02  0.1289830E+00
          1   -1    0    0  501    0  0.00000000000E+00  0.00000000000E+00  0.69485143975E+03  0.69485143975E+03  0.00000000000E+00 0. -1.
         -1   -1    0    0    0  501 -0.00000000000E+00 -0.00000000000E+00 -0.28706327382E+02  0.28706327382E+02  0.00000000000E+00 0.  1.
         23    2    1    2    0    0 -0.81277530463E+02  0.71881104834E+01  0.39842673241E+03  0.41700174459E+03  0.92135161621E+02 0.  0.
          5    1    1    2  502    0 -0.53328822305E+01 -0.74570166518E+01  0.18953249143E+03  0.18980011706E+03  0.41800000000E+01 0. -1.
         -5    1    1    2    0  502  0.86610412694E+02  0.26890616835E+00  0.78185888530E+02  0.11675590547E+03  0.41800000000E+01 0. -1.
        -11    1    3    3    0    0 -0.19381351011E+02  0.23443456019E+02  0.28842920667E+02  0.41918330951E+02  0.00000000000E+00 0. -1.
         11    1    3    3    0    0 -0.61896179453E+02 -0.16255345536E+02  0.36958381174E+03  0.37508341364E+03  0.00000000000E+00 0.  1.
</event>
<event>
 7    1  0.4274778E-006  0.9036360E+02  0.7561462E-02  0.1301974E+00
          1   -1    0    0  501    0  0.00000000000E+00  0.00000000000E+00  0.45162915052E+02  0.45162915052E+02  0.00000000000E+00 0. -1.
         -1   -1    0    0    0  501 -0.00000000000E+00 -0.00000000000E+00 -0.74868675035E+03  0.74868675035E+03  0.00000000000E+00 0.  1.
         23    2    1    2    0    0  0.62237988077E+01  0.46874560008E+02 -0.30977616500E+02  0.10994337103E+03  0.94297253734E+02 0.  0.
          5    1    1    2  502    0  0.36148702424E+02  0.16843654694E+02 -0.13204428050E+03  0.13799855725E+03  0.41800000000E+01 0. -1.
         -5    1    1    2    0  502 -0.42372501232E+02 -0.63718214702E+02 -0.54050193830E+03  0.54590773712E+03  0.41800000000E+01 0.  1.
        -11    1    3    3    0    0 -0.17192764363E+02  0.31782845617E+02  0.27340612883E+02  0.45312796590E+02  0.00000000000E+00 0. -1.
         11    1    3    3    0    0  0.23416563171E+02  0.15091714391E+02 -0.58318229383E+02  0.64630574439E+02  0.00000000000E+00 0.  1.
</event>
<event>
 7    1  0.4274778E-006  0.2332883E+03  0.7561462E-02  0.1124347E+00
         -2   -1    0    0    0  501 -0.00000000000E+00  0.00000000000E+00  0.73422283414E+03  0.73422283414E+03  0.00000000000E+00 0. -1.
          2   -1    0    0  501    0  0.00000000000E+00 -0.00000000000E+00 -0.94441983028E+02  0.94441983028E+02  0.00000000000E+00 0.  1.
         23    2    1    2    0    0  0.16264975805E+03  0.13314859042E+03  0.13144849743E+03  0.26454122795E+03  0.92303103317E+02 0.  0.
          5    1    1    2  502    0  0.16993628318E+02 -0.19187824451E+02  0.25094990753E+02  0.36113528925E+02  0.41800000000E+01 0. -1.
         -5    1    1    2    0  502 -0.17964338637E+03 -0.11396076597E+03  0.48323736293E+03  0.52801006030E+03  0.41800000000E+01 0. -1.
        -11    1    3    3    0    0  0.30007262916E+02  0.79086450591E+02  0.33312405849E+02  0.90911049264E+02  0.00000000000E+00 0.  1.
         11    1    3    3    0    0  0.13264249513E+03  0.54062139828E+02  0.98136091585E+02  0.17363017868E+03  0.00000000000E+00 0. -1.
</event>
<event>
 7    1  0.4274778E-006  0.1940437E+03  0.7561462E-02  0.1154864E+00
          2   -1    0    0  501    0  0.00000000000E+00  0.00000000000E+00  0.24565701474E+03  0.24565701474E+03  0.00000000000E+00 0. -1.
         -2   -1    0    0    0  501 -0.00000000000E+00 -0.00000000000E+00 -0.22514165258E+03  0.22514165258E+03  0.00000000000E+00 0.  1.
         23    2    1    2    0    0 -0.12464774889E+03 -0.13878091004E+03  0.10257220910E+03  0.23167941208E+03  0.91417118779E+02 0.  0.
          5    1    1    2  502    0  0.75514102150E+02  0.13056391455E+03 -0.97337203475E+01  0.15120030793E+03  0.41800000000E+01 0.  1.
         -5    1    1    2    0  502  0.49133646744E+02  0.82169954828E+01 -0.72323126595E+02  0.87918947319E+02  0.41800000000E+01 0.  1.
        -11    1    3    3    0    0 -0.59582711053E+02 -0.78160524629E+02  0.32099915501E+01  0.98333468934E+02  0.00000000000E+00 0.  1.
         11    1    3    3    0    0 -0.65065037840E+02 -0.60620385406E+02  0.99362217553E+02  0.13334594314E+03  0.00000000000E+00 0. -1.
</event>
<event>
 7    1  0.4274778E-006  0.1282279E+03  0.7561462E-02  0.1230109E+00
         -2   -1    0    0    0  501 -0.00000000000E+00  0.00000000000E+00  0.35081562879E+03  0.35081562879E+03  0.00000000000E+00 0.  1.
          2   -1    0    0  501    0  0.00000000000E+00 -0.00000000000E+00 -0.64590540655E+02  0.64590540655E+02  0.00000000000E+00 0. -1.
         23    2    1    2    0    0  0.81322001902E+02  0.56376090457E+02  0.10444296197E+03  0.17357235744E+03  0.97095310882E+02 0.  0.
          5    1    1    2  502    0 -0.65158757307E+02  0.26247237682E+02  0.11262137029E+03  0.13279919648E+03  0.41800000000E+01 0. -1.
         -5    1    1    2    0  502 -0.16163244595E+02 -0.82623328139E+02  0.69160755873E+02  0.10903461552E+03  0.41800000000E+01 0. -1.
        -11    1    3    3    0    0  0.28351327173E+02  0.34050653987E+02  0.10722779904E+03  0.11602174657E+03  0.00000000000E+00 0.  1.
         11    1    3    3    0    0  0.52970674729E+02  0.22325436470E+02 -0.27848370705E+01  0.57550610877E+02  0.00000000000E+00 0. -1.
</event>
<event>
 7    1  0.4274778E-006  0.8975770E+02  0.7561462E-02  0.1303440E+00
         -2   -1    0    0    0  501 -0.00000000000E+00  0.00000000000E+00  0.27733595221E+02  0.27733595221E+02  0.00000000000E+00 0.  1.
          2   -1    0    0  501    0  0.00000000000E+00 -0.00000000000E+00 -0.59220989605E+03  0.59220989605E+03  0.00000000000E+00 0. -1.
         23    2    1    2    0    0  0.83189312554E+00  0.62377996976E+02 -0.31260882142E+03  0.33188668102E+03  0.92373087307E+02 0.  0.
          5    1    1    2  502    0 -0.10458537130E+02 -0.69025803803E+02 -0.50399814978E+02  0.86206475043E+02  0.41800000000E+01 0. -1.
         -5    1    1    2    0  502  0.96266440045E+01  0.66478068267E+01 -0.20146766443E+03  0.20185033521E+03  0.41800000000E+01 0. -1.
        -11    1    3    3    0    0  0.25797985084E+02  0.66971335939E+02 -0.28696491948E+03  0.29580324691E+03  0.00000000000E+00 0.  1.
         11    1    3    3    0    0 -0.24966091958E+02 -0.45933389629E+01 -0.25643901936E+02  0.36083434108E+02  0.00000000000E+00 0. -1.
</event>
<event>
 7    1  0.5707923E-006  0.2025836E+03  0.7561462E-02  0.1147577E+00
         -2   -1    0    0    0  501 -0.00000000000E+00  0.00000000000E+00  0.86906996370E+02  0.86906996370E+02  0.00000000000E+00 0.  1.
          2   -1    0    0  501    0  0.00000000000E+00 -0.00000000000E+00 -0.62932409544E+03  0.62932409544E+03  0.00000000000E+00 0. -1.
         23    2    1    2    0    0  0.18924248954E+03 -0.25931453610E+02 -0.38396882563E+03  0.43831335971E+03  0.90561482498E+02 0.  0.
          5    1    1    2  502    0 -0.25370738610E+02 -0.76116131179E+01  0.19880973708E+02  0.33381679818E+02  0.41800000000E+01 0.  1.
         -5    1    1    2    0  502 -0.16387175093E+03  0.33543066728E+02 -0.17832924715E+03  0.24453605229E+03  0.41800000000E+01 0.  1.
        -11    1    3    3    0    0  0.76522196843E+02 -0.55459561208E+02 -0.18477429418E+03  0.20754023545E+03  0.00000000000E+00 0.  1.
         11    1    3    3    0    0  0.11272029269E+03  0.29528107597E+02 -0.19919453145E+03  0.23077312426E+03  0.00000000000E+00 0. -1.
</event>
<event>
 7    1  0.4274778E-006  0.9969263E+02  0.7561462E-02  0.1280944E+00
          1   -1    0    0  501    0  0.00000000000E+00  0.00000000000E+00  0.31468395920E+03  0.31468395920E+03  0.00000000000E+00 0. -1.
         -1   -1    0    0    0  501 -0.00000000000E+00 -0.00000000000E+00 -0.58244836024E+02  0.58244836024E+02  0.00000000000E+00 0.  1.
         23    2    1    2    0    0 -0.52689840209E+02 -0.55891326259E+02  0.14924865663E+03  0.19117134724E+03  0.91494605775E+02 0.  0.
          5    1    1    2  502    0  0.13224483122E+02  0.67882014772E+02  0.26933090741E+01  0.69336723294E+02  0.41800000000E+01 0. -1.
         -5    1    1    2    0  502  0.39465357087E+02 -0.11990688513E+02  0.10449715747E+03  0.11242072470E+03  0.41800000000E+01 0. -1.
        -11    1    3    3    0    0 -0.14609309528E+02 -0.47436305533E+02  0.15724980290E+02  0.52066400035E+02  0.00000000000E+00 0.  1.
         11    1    3    3    0    0 -0.38080530681E+02 -0.84550207256E+01  0.13352367634E+03  0.13910494720E+03  0.00000000000E+00 0. -1.
</event>
<event>
 7    1  0.4274778E-006  0.1152730E+03  0.7561462E-02  0.1251105E+00
         -2   -1    0    0    0  501 -0.00000000000E+00  0.00000000000E+00  0.14343339285E+03  0.14343339285E+03  0.00000000000E+00 0. -1.
          2   -1    0    0  501    0  0.00000000000E+00 -0.00000000000E+00 -0.16398498139E+03  0.16398498139E+03  0.00000000000E+00 0.  1.
         23    2    1    2    0    0  0.44988051225E+02  0.18331106130E+02 -0.10665006762E+03  0.14798489411E+03  0.90362258463E+02 0.  0.
          5    1    1    2  502    0  0.11665814293E+02 -0.58931400889E+02  0.20460855177E+02  0.63601259645E+02  0.41800000000E+01 0. -1.
         -5    1    1    2    0  502 -0.56653865518E+02  0.40600294759E+02  0.65637623901E+02  0.95832220490E+02  0.41800000000E+01 0. -1.
        -11    1    3    3    0    0  0.71847990233E+02  0.11251649396E+02 -0.62847297496E+02  0.96117199903E+02  0.00000000000E+00 0. -1.
         11    1    3    3    0    0 -0.26859939007E+02  0.70794567343E+01 -0.43802770128E+02  0.51867694204E+02  0.00000000000E+00 0.  1.
</event>
<event>
 7    1  0.4274778E-006  0.9975266E+02  0.7561462E-02  0.1280817E+00
          4   -1    0    0  501    0  0.00000000000E+00  0.00000000000E+00  0.11877960826E+03  0.11877960826E+03  0.00000000000E+00 0. -1.
         -4   -1    0    0    0  501 -0.00000000000E+00 -0.00000000000E+00 -0.12933505464E+03  0.12933505464E+03  0.00000000000E+00 0.  1.
         23    2    1    2    0    0  0.70994634025E+01 -0.25869081320E+02  0.50424262023E+02  0.10639070818E+03  0.89759483277E+02 0.  0.
          5    1    1    2  502    0  0.12956593285E+02  0.67731227212E+02 -0.65113107671E+02  0.94934617710E+02  0.41800000000E+01 0. -1.
         -5    1    1    2    0  502 -0.20056056687E+02 -0.41862145892E+02  0.41333992696E+01  0.46789337012E+02  0.41800000000E+01 0. -1.
        -11    1    3    3    0    0  0.10976793283E+02 -0.54158199160E+02  0.88623934298E+01  0.55965547834E+02  0.00000000000E+00 0.  1.
         11    1    3    3    0    0 -0.38773298800E+01  0.28289117840E+02  0.41561868594E+02  0.50425160349E+02  0.00000000000E+00 0. -1.
</event>
<event>
 7    1  0.4274778E-006  0.1611011E+03  0.7561462E-02  0.1187459E+00
         -1   -1    0    0    0  501 -0.00000000000E+00  0.00000000000E+00  0.10809375448E+03  0.10809375448E+03  0.00000000000E+00 0.  1.
          1   -1    0    0  501    0  0.00000000000E+00 -0.00000000000E+00 -0.43447083049E+03  0.43447083049E+03  0.00000000000E+00 0. -1.
         23    2    1    2    0    0  0.12463222936E+03  0.39715542389E+02 -0.32490168400E+03  0.36156341469E+03  0.89757905929E+02 0.  0.
          5    1    1    2  502    0 -0.10523544479E+02  0.29193606028E+02 -0.31371575606E+02  0.44324482821E+02  0.41800000000E+01 0. -1.
         -5    1    1    2    0  502 -0.11410868488E+03 -0.68909148418E+02  0.29896183583E+02  0.13667668746E+03  0.41800000000E+01 0. -1.
        -11    1    3    3    0    0  0.13584598041E+02 -0.25390793115E+02 -0.77487040124E+02  0.82664835729E+02  0.00000000000E+00 0.  1.
         11    1    3    3    0    0  0.11104763132E+03  0.65106335504E+02 -0.24741464387E+03  0.27889857896E+03  0.00000000000E+00 0. -1.
</event>
<event>
 7    1  0.4274778E-006  0.8179704E+02  0.7561462E-02  0.1324028E+00
         -1   -1    0    0    0  501 -0.00000000000E+00  0.00000000000E+00  0.24322008015E+03  0.24322008015E+03  0.00000000000E+00 0.  1.
          1   -1    0    0  501    0  0.00000000000E+00 -0.00000000000E+00 -0.65837887669E+02  0.65837887669E+02  0.00000000000E+00 0. -1.
         23    2    1    2    0    0 -0.15808018318E+02 -0.63900512461E+02  0.78911278238E+02  0.13679538197E+03  0.90292955207E+02 0.  0.
          5    1    1    2  502    0  0.19081911758E+02  0.39909943750E+02 -0.21809595038E+02  0.49498018164E+02  0.41800000000E+01 0. -1.
         -5    1    1    2    0  502 -0.32738934398E+01  0.23990568712E+02  0.12028050929E+03  0.12276456769E+03  0.41800000000E+01 0. -1.
        -11    1    3    3    0    0 -0.12540701632E+02 -0.78567635910E+02  0.29018617373E+02  0.84688976639E+02  0.00000000000E+00 0. -1.
         11    1    3    3    0    0 -0.32673166862E+01  0.14667123449E+02  0.49892660864E+02  0.52106405333E+02  0.00000000000E+00 0.  1.
</event>
<event>
 7    1  0.4274778E-006  0.1708558E+03  0.7561462E-02  0.1176958E+00
          2   -1    0    0  501    0  0.00000000000E+00  0.00000000000E+00  0.37241678476E+03  0.37241678476E+03  0.00000000000E+00 0. -1.
         -2   -1    0    0    0  501 -0.00000000000E+00 -0.00000000000E+00 -0.96360938923E+02  0.96360938923E+02  0.00000000000E+00 0.  1.
         23    2    1    2    0    0  0.91791817760E+02 -0.11594418978E+03  0.18736466532E+03  0.25574782885E+03  0.91829413577E+02 0.  0.
          5    1    1    2  502    0  0.26106543162E+02  0.61233699267E+01 -0.34768244089E+01  0.27360701071E+02  0.41800000000E+01 0. -1.
         -5    1    1    2    0  502 -0.11789836092E+03  0.10982081985E+03  0.92168004927E+02  0.18566919377E+03  0.41800000000E+01 0. -1.
        -11    1    3    3    0    0  0.35928481360E+02 -0.77962735253E+02  0.16247076097E+03  0.18375470615E+03  0.00000000000E+00 0. -1.
         11    1    3    3    0    0  0.55863336400E+02 -0.37981454528E+02  0.24893904343E+02  0.71993122694E+02  0.00000000000E+00 0.  1.
</event>
<event>
 7    1  0.4274778E-006  0.1402132E+03  0.7561462E-02  0.1213042E+00
          2   -1    0    0  501    0  0.00000000000E+00  0.00000000000E+00  0.95264647284E+03  0.95264647284E+03  0.00000000000E+00 0. -1.
         -2   -1    0    0    0  501 -0.00000000000E+00 -0.00000000000E+00 -0.26065573050E+02  0.26065573050E+02  0.00000000000E+00 0.  1.
         23    2    1    2    0    0 -0.91218292917E+02 -0.54076049604E+02  0.55770527693E+03  0.57502707680E+03  0.91520309413E+02 0.  0.
          5    1    1    2  502    0  0.26948773988E+02  0.72507253322E+02  0.29015569909E+03  0.30031873122E+03  0.41800000000E+01 0.  1.
         -5    1    1    2    0  502  0.64269518929E+02 -0.18431203717E+02  0.78719923762E+02  0.10336623787E+03  0.41800000000E+01 0.  1.
        -11    1    3    3    0    0 -0.81119826756E+02 -0.76421560454E+02  0.50101181356E+03  0.51325775057E+03  0.00000000000E+00 0. -1.
         11    1    3    3    0    0 -0.10098466161E+02  0.22345510850E+02  0.56693463370E+02  0.61769326229E+02  0.00000000000E+00 0.  1.
</event>
<event>
 7    1  0.4274778E-006  0.1843248E+03  0.7561462E-02  0.1163682E+00
         -1   -1    0    0    0  501 -0.00000000000E+00  0.00000000000E+00  0.58304734373E+02  0.58304734373E+02  0.00000000000E+00 0.  1.
          1   -1    0    0  501    0  0.00000000000E+00 -0.00000000000E+00 -0.87292345568E+03  0.87292345568E+03  0.00000000000E+00 0. -1.
         23    2    1    2    0    0  0.87945814174E+02  0.76749591796E+02 -0.51887491505E+03  0.53959738564E+03  0.91154786265E+02 0.  0.
          5    1    1    2  502    0  0.58892178056E+02 -0.34626779319E+02 -0.19978257881E+03  0.21118203919E+03  0.41800000000E+01 0. -1.
         -5    1    1    2    0  502 -0.14683799223E+03 -0.42122812477E+02 -0.95961227446E+02  0.18044876521E+03  0.41800000000E+01 0.  1.
        -11    1    3    3    0    0  0.34389188491E+02  0.86377539515E+02 -0.35222234017E+03  0.36428597630E+03  0.00000000000E+00 0. -1.
         11    1    3    3    0    0  0.53556625683E+02 -0.96279477195E+01 -0.16665257488E+03  0.17531140934E+03  0.00000000000E+00 0.  1.
</event>
<event>
 7    1  0.4274778E-006  0.8509720E+02  0.7561462E-02  0.1315179E+00
          2   -1    0    0  501    0  0.00000000000E+00  0.00000000000E+00  0.18103036808E+03  0.18103036808E+03  0.00000000000E+00 0. -1.
         -2   -1    0    0    0  501 -0.00000000000E+00 -0.00000000000E+00 -0.71274882396E+02  0.71274882396E+02  0.00000000000E+00 0.  1.
         23    2    1    2    0    0  0.47784545494E+01 -0.35921243044E+02  0.38147096236E+02  0.10368416544E+03  0.89342240185E+02 0.  0.
          5    1    1    2  502    0 -0.21208841284E+02  0.71646374303E+02  0.78527956307E+02  0.10847640398E+03  0.41800000000E+01 0.  1.
         -5    1    1    2    0  502  0.16430386734E+02 -0.35725131259E+02 -0.69195668591E+01  0.40144681057E+02  0.41800000000E+01 0.  1.
        -11    1    3    3    0    0 -0.18927359271E+02 -0.14202154594E+02 -0.24005829363E+02  0.33707951102E+02  0.00000000000E+00 0.  1.
         11    1    3    3    0    0  0.23705813821E+02 -0.21719088450E+02  0.62152925599E+02  0.69976214334E+02  0.00000000000E+00 0. -1.
</event>
<event>
 7    1  0.4274778E-006  0.1036998E+03  0.7561462E-02  0.1272703E+00
         -2   -1    0    0    0  501 -0.00000000000E+00  0.00000000000E+00  0.69193720704E+02  0.69193720704E+02  0.00000000000E+00 0.  1.
          2   -1    0    0  501    0  0.00000000000E+00 -0.00000000000E+00 -0.25268308655E+03  0.25268308655E+03  0.00000000000E+00 0. -1.
         23    2    1    2    0    0  0.49033177443E+02  0.19699240026E+02 -0.14746231595E+03  0.18138329361E+03  0.91446443495E+02 0.  0.
          5    1    1    2  502    0 -0.58004452233E+02 -0.62834358662E+02 -0.42806637775E+02  0.95721229332E+02  0.41800000000E+01 0.  1.
         -5    1    1    2    0  502  0.89712747901E+01  0.43135118636E+02  0.67795878755E+01  0.44772284316E+02  0.41800000000E+01 0.  1.
        -11    1    3    3    0    0  0.60530091295E+02  0.78836062607E+01 -0.15240303638E+03  0.16417286225E+03  0.00000000000E+00 0. -1.
         11    1    3    3    0    0 -0.11496913852E+02  0.11815633765E+02  0.49407204303E+01  0.17210431365E+02  0.00000000000E+00 0.  1.
</event>
<event>
 7    1  0.4274778E-006  0.3449733E+03  0.7561462E-02  0.1064697E+00
         -2   -1    0    0    0  501 -0.00000000000E+00  0.00000000000E+00  0.68860529594E+02  0.68860529594E+02  0.00000000000E+00 0.  1.
          2   -1    0    0  501    0  0.00000000000E+00 -0.00000000000E+00 -0.18929218392E+04  0.18929218392E+04  0.00000000000E+00 0. -1.
         23    2    1    2    0    0  0.34194121950E+03 -0.31950088746E+02 -0.95780064661E+03  0.10215703377E+04  0.90990496133E+02 0.  0.
          5    1    1    2  502    0 -0.23085936533E+03  0.26545658045E+01 -0.41901298498E+03  0.47842705532E+03  0.41800000000E+01 0. -1.
         -5    1    1    2    0  502 -0.11108185417E+03  0.29295522941E+02 -0.44724767804E+03  0.46178497583E+03  0.41800000000E+01 0. -1.
        -11    1    3    3    0    0  0.15641136164E+03 -0.40623703642E+01 -0.31147463628E+03  0.34856486620E+03  0.00000000000E+00 0. -1.
         11    1    3    3    0    0  0.18552985787E+03 -0.27887718381E+02 -0.64632601033E+03  0.67300547147E+03  0.00000000000E+00 0.  1.
</event>
<event>
 7    1  0.4274778E-006  0.1253361E+03  0.7561462E-02  0.1234545E+00
          1   -1    0    0  501    0  0.00000000000E+00  0.00000000000E+00  0.27083225696E+03  0.27083225696E+03  0.00000000000E+00 0. -1.
         -1   -1    0    0    0  501 -0.00000000000E+00 -0.00000000000E+00 -0.74424732257E+02  0.74424732257E+02  0.00000000000E+00 0.  1.
         23    2    1    2    0    0 -0.76901031793E+02 -0.33012835167E+02  0.13446104485E+03  0.18250366697E+03  0.90687374521E+02 0.  0.
          5    1    1    2  502    0 -0.25499193108E+02  0.35494294924E+02  0.18956839281E+01  0.43944508632E+02  0.41800000000E+01 0. -1.
         -5    1    1    2    0  502  0.10240022490E+03 -0.24814597574E+01  0.60050795924E+02  0.11880881362E+03  0.41800000000E+01 0. -1.
        -11    1    3    3    0    0 -0.65398920621E+01  0.16810601601E+02 -0.48445827375E+01  0.18677165102E+02  0.00000000000E+00 0.  1.
         11    1    3    3    0    0 -0.70361139731E+02 -0.49823436767E+02  0.13930562759E+03  0.16382650187E+03  0.00000000000E+00 0. -1.
</event>
<event>
 7    1  0.4274778E-006  0.1160425E+03  0.7561462E-02  0.1249772E+00
          2   -1    0    0  501    0  0.00000000000E+00  0.00000000000E+00  0.19126092492E+03  0.19126092492E+03  0.00000000000E+00 0. -1.
         -2   -1    0    0    0  501 -0.00000000000E+00 -0.00000000000E+00 -0.77949276113E+02  0.77949276113E+02  0.00000000000E+00 0.  1.
         23    2    1    2    0    0 -0.32960827361E+02  0.28793142257E+02  0.83274928986E+02  0.13066738269E+03  0.90685114102E+02 0.  0.
          5    1    1    2  502    0 -0.43961986515E+02  0.14824588509E+02  0.73907225541E+01  0.47164815940E+02  0.41800000000E+01 0. -1.
         -5    1    1    2    0  502  0.76922813876E+02 -0.43617730765E+02  0.22645997270E+02  0.91378002408E+02  0.41800000000E+01 0.  1.
        -11    1    3    3    0    0  0.29567210571E+02  0.45651080274E+01  0.43197373934E+02  0.52545915798E+02  0.00000000000E+00 0.  1.
         11    1    3    3    0    0 -0.62528037932E+02  0.24228034229E+02  0.40077555052E+02  0.78121466891E+02  0.00000000000E+00 0. -1.
</event>
<event>
 7    1  0.4274778E-006  0.1026918E+03  0.7561462E-02  0.1274735E+00
         -2   -1    0    0    0  501 -0.00000000000E+00  0.00000000000E+00  0.49977490897E+02  0.49977490897E+02  0.00000000000E+00 0.  1.
          2   -1    0    0  501    0  0.00000000000E+00 -0.00000000000E+00 -0.27963224461E+03  0.27963224461E+03  0.00000000000E+00 0. -1.
         23    2    1    2    0    0  0.30127063975E+02  0.10047140376E+02 -0.17940688125E+03  0.20422739537E+03  0.92268168769E+02 0.  0.
          5    1    1    2  502    0  0.41315888842E+02 -0.27922044109E+01 -0.27714294479E+02  0.50003535823E+02  0.41800000000E+01 0. -1.
         -5    1    1    2    0  502 -0.71442952817E+02 -0.72549359646E+01 -0.22533577989E+02  0.75378804316E+02  0.41800000000E+01 0.  1.
        -11    1    3    3    0    0  0.58733880051E+02 -0.59852586878E+01 -0.14566927801E+03  0.15717833993E+03  0.00000000000E+00 0. -1.
         11    1    3    3    0    0 -0.28606816076E+02  0.16032399063E+02 -0.33737603238E+02  0.47049055442E+02  0.00000000000E+00 0.  1.
</event>
<event>
 7    1  0.4274778E-006  0.1048411E+03  0.7561462E-02  0.1270433E+00
         -1   -1    0    0    0  501 -0.00000000000E+00  0.00000000000E+00  0.20843050573E+03  0.20843050573E+03  0.00000000000E+00 0.  1.
          1   -1    0    0  501    0  0.00000000000E+00 -0.00000000000E+00 -0.66380802268E+02  0.66380802268E+02  0.00000000000E+00 0. -1.
         23    2    1    2    0    0  0.54459481471E+01 -0.42656449301E+02  0.34421655900E+02  0.10428016518E+03  0.88545307250E+02 0.  0.
          5    1    1    2  502    0  0.40210437845E+02  0.67888256665E+02  0.54701977315E+02  0.96101370578E+02  0.41800000000E+01 0.  1.
         -5    1    1    2    0  502 -0.45656385992E+02 -0.25231807364E+02  0.52926070250E+02  0.74429772247E+02  0.41800000000E+01 0.  1.
        -11    1    3    3    0    0  0.27994026863E+02  0.22530445695E+01  0.44887910600E+02  0.52949657863E+02  0.00000000000E+00 0.  1.
         11    1    3    3    0    0 -0.22548078716E+02 -0.44909493871E+02 -0.10466254700E+02  0.51330507312E+02  0.00000000000E+00 0. -1.
</event>
<event>
 7    1  0.4274778E-006  0.2363072E+03  0.7561462E-02  0.1122278E+00
          2   -1    0    0  501    0  0.00000000000E+00  0.00000000000E+00  0.57668909955E+02  0.57668909955E+02  0.00000000000E+00 0. -1.
         -2   -1    0    0    0  501 -0.00000000000E+00 -0.00000000000E+00 -0.14843218195E+04  0.14843218195E+04  0.00000000000E+00 0.  1.
         23    2    1    2    0    0  0.21998575364E+03 -0.43537298444E+02 -0.34620953454E+03  0.42244075025E+03  0.91136806513E+02 0.  0.
          5    1    1    2  502    0 -0.17341964754E+03  0.10325556359E+02 -0.39284902067E+03  0.42956817470E+03  0.41800000000E+01 0. -1.
         -5    1    1    2    0  502 -0.46566106105E+02  0.33211742085E+02 -0.68759435437E+03  0.68998180455E+03  0.41800000000E+01 0.  1.
        -11    1    3    3    0    0  0.11016388715E+03  0.23746463183E+02 -0.17614861978E+03  0.20911315788E+03  0.00000000000E+00 0. -1.
         11    1    3    3    0    0  0.10982186649E+03 -0.67283761627E+02 -0.17006091476E+03  0.21332759237E+03  0.00000000000E+00 0.  1.
</event>
<event>
 7    1  0.4274778E-006  0.1163671E+03  0.7561462E-02  0.1249214E+00
          2   -1    0    0  501    0  0.00000000000E+00  0.00000000000E+00  0.66786025270E+02  0.66786025270E+02  0.00000000000E+00 0. -1.
         -2   -1    0    0    0  501 -0.00000000000E+00 -0.00000000000E+00 -0.31796563557E+03  0.31796563557E+03  0.00000000000E+00 0.  1.
         23    2    1    2    0    0 -0.22596238930E+02 -0.81264469588E+02 -0.50141186976E+02  0.13339889994E+03  0.90369374471E+02 0.  0.
          5    1    1    2  502    0 -0.27657407599E+02  0.91895443083E+02 -0.10465040977E+03  0.14205240343E+03  0.41800000000E+01 0.  1.
         -5    1    1    2    0  502  0.50253646529E+02 -0.10630973495E+02 -0.96388013560E+02  0.10930035748E+03  0.41800000000E+01 0.  1.
        -11    1    3    3    0    0 -0.16248337363E+02 -0.72619350474E+02  0.74782665175E+01  0.74789725233E+02  0.00000000000E+00 0. -1.
         11    1    3    3    0    0 -0.63479015673E+01 -0.86451191147E+01 -0.57619453494E+02  0.58609174706E+02  0.00000000000E+00 0.  1.
</event>
<event>
 7    1  0.4274778E-006  0.1376337E+03  0.7561462E-02  0.1216549E+00
          1   -1    0    0  501    0  0.00000000000E+00  0.00000000000E+00  0.18557043345E+03  0.18557043345E+03  0.00000000000E+00 0. -1.
         -1   -1    0    0    0  501 -0.00000000000E+00 -0.00000000000E+00 -0.13048269033E+03  0.13048269033E+03  0.00000000000E+00 0.  1.
         23    2    1    2    0    0 -0.15637687393E+02 -0.10979132489E+03  0.37356306202E+02  0.14795125126E+03  0.90528486387E+02 0.  0.
          5    1    1    2  502    0 -0.45692189706E+02  0.34751124058E+02  0.38042809613E+02  0.68993801075E+02  0.41800000000E+01 0. -1.
         -5    1    1    2    0  502  0.61329877099E+02  0.75040200832E+02 -0.20311372700E+02  0.99108071452E+02  0.41800000000E+01 0. -1.
        -11    1    3    3    0    0  0.16651608311E+02 -0.25649718458E+02 -0.24042146000E+02  0.38899985869E+02  0.00000000000E+00 0.  1.
         11    1    3    3    0    0 -0.32289295704E+02 -0.84141606432E+02  0.61398452202E+02  0.10905126539E+03  0.00000000000E+00 0. -1.
</event>
<event>
 7    1  0.4274778E-006  0.1350004E+03  0.7561462E-02  0.1220219E+00
          1   -1    0    0  501    0  0.00000000000E+00  0.00000000000E+00  0.64449105812E+03  0.64449105812E+03  0.00000000000E+00 0. -1.
         -1   -1    0    0    0  501 -0.00000000000E+00 -0.00000000000E+00 -0.29551731512E+02  0.29551731512E+02  0.00000000000E+00 0.  1.
         23    2    1    2    0    0 -0.58328752254E+01 -0.82817550041E+02  0.32907968676E+03  0.35115523878E+03  0.90132083395E+02 0.  0.
          5    1    1    2  502    0  0.63250656923E+02  0.31850960344E+02  0.10919008248E+03  0.13021165765E+03  0.41800000000E+01 0. -1.
         -5    1    1    2    0  502 -0.57417781698E+02  0.50966589697E+02  0.17666955736E+03  0.19267589320E+03  0.41800000000E+01 0. -1.
        -11    1    3    3    0    0  0.35551389564E+02 -0.70559350803E+02  0.22558079178E+03  0.23901718957E+03  0.00000000000E+00 0. -1.
         11    1    3    3    0    0 -0.41384264789E+02 -0.12258199238E+02  0.10349889497E+03  0.11213804921E+03  0.00000000000E+00 0.  1.
</event>
<event>
 7    1  0.4274778E-006  0.1626830E+03  0.7561462E-02  0.1185701E+00
          2   -1    0    0  501    0  0.00000000000E+00  0.00000000000E+00  0.36298824677E+03  0.36298824677E+03  0.00000000000E+00 0. -1.
         -2   -1    0    0    0  501 -0.00000000000E+00 -0.00000000000E+00 -0.10569578927E+03  0.10569578927E+03  0.00000000000E+00 0.  1.
         23    2    1    2    0    0 -0.33382170887E+02  0.15296867679E+03  0.17918149481E+03  0.25359755865E+03  0.87703638800E+02 0.  0.
          5    1    1    2  502    0 -0.16176200085E+02 -0.17108071687E+02  0.65654352232E+02  0.69873613997E+02  0.41800000000E+01 0. -1.
         -5    1    1    2    0  502  0.49558370972E+02 -0.13586060510E+03  0.12456610462E+02  0.14521286340E+03  0.41800000000E+01 0. -1.
        -11    1    3    3    0    0 -0.24821240129E+02  0.95515761087E+02  0.47191184968E+02  0.10939087035E+03  0.00000000000E+00 0. -1.
         11    1    3    3    0    0 -0.85609307582E+01  0.57452915704E+02  0.13199030984E+03  0.14420668830E+03  0.00000000000E+00 0.  1.
</event>
<event>
 7    1  0.4869511E-006  0.3030844E+03  0.7561462E-02  0.1083709E+00
         -1   -1    0    0    0  501 -0.00000000000E+00  0.00000000000E+00  0.89924537393E+02  0.89924537393E+02  0.00000000000E+00 0.  1.
          1   -1    0    0  501    0  0.00000000000E+00 -0.00000000000E+00 -0.10594341578E+04  0.10594341578E+04  0.00000000000E+00 0. -1.
         23    2    1    2    0    0  0.79778127269E+02  0.27889127928E+03 -0.52878241478E+03  0.60711048326E+03  0.69479503854E+02 0.  0.
          5    1    1    2  502    0 -0.71957283411E+02 -0.75333867475E+02 -0.20983931625E+03  0.23431400570E+03  0.41800000000E+01 0.  1.
         -5    1    1    2    0  502 -0.78208438577E+01 -0.20355741180E+03 -0.23088788932E+03  0.30793420618E+03  0.41800000000E+01 0.  1.
        -11    1    3    3    0    0  0.35661460921E+02  0.22814288559E+03 -0.40204027274E+03  0.46363487460E+03  0.00000000000E+00 0.  1.
         11    1    3    3    0    0  0.44116666349E+02  0.50748393690E+02 -0.12674214205E+03  0.14347560867E+03  0.00000000000E+00 0. -1.
</event>
<event>
 7    1  0.5596464E-006  0.2864425E+03  0.7561462E-02  0.1092221E+00
         -2   -1    0    0    0  501 -0.00000000000E+00  0.00000000000E+00  0.18394210272E+03  0.18394210272E+03  0.00000000000E+00 0. -1.
          2   -1    0    0  501    0  0.00000000000E+00 -0.00000000000E+00 -0.49290169136E+03  0.49290169136E+03  0.00000000000E+00 0.  1.
         23    2    1    2    0    0  0.98595987067E+02  0.25747057690E+03 -0.21094291191E+03  0.35861894221E+03  0.89990927284E+02 0.  0.
          5    1    1    2  502    0 -0.56050231389E+02 -0.21806669187E+03 -0.12107612320E+03  0.25567872526E+03  0.41800000000E+01 0.  1.
         -5    1    1    2    0  502 -0.42545755678E+02 -0.39403885033E+02  0.23059446467E+02  0.62546126605E+02  0.41800000000E+01 0.  1.
        -11    1    3    3    0    0  0.92332989442E+02  0.11748636132E+03 -0.98681813486E+02  0.17907128845E+03  0.00000000000E+00 0. -1.
         11    1    3    3    0    0  0.62629976249E+01  0.13998421559E+03 -0.11226109842E+03  0.17954765376E+03  0.00000000000E+00 0.  1.
</event>
<event>
 7    1  0.4274778E-006  0.9903099E+02  0.7561462E-02  0.1282347E+00
          2   -1    0    0  501    0  0.00000000000E+00  0.00000000000E+00  0.79399542402E+02  0.79399542402E+02  0.00000000000E+00 0.  1.
         -2   -1    0    0    0  501 -0.00000000000E+00 -0.00000000000E+00 -0.21155915320E+03  0.21155915320E+03  0.00000000000E+00 0. -1.
         23    2    1    2    0    0 -0.70453951262E+02 -0.83142061126E+01 -0.40281793853E+02  0.12030858469E+03  0.88423115544E+02 0.  0.
          5    1    1    2  502    0  0.85947725775E+01 -0.22198626145E+02  0.25063496399E+02  0.34818104057E+02  0.41800000000E+01 0.  1.
         -5    1    1    2    0  502  0.61859178685E+02  0.30512832258E+02 -0.11694131335E+03  0.13583200686E+03  0.41800000000E+01 0.  1.
        -11    1    3    3    0    0 -0.22817566735E+02  0.34086164064E+02 -0.38884646763E+02  0.56520117535E+02  0.00000000000E+00 0. -1.
         11    1    3    3    0    0 -0.47636384528E+02 -0.42400370177E+02 -0.13971470897E+01  0.63788467155E+02  0.00000000000E+00 0.  1.
</event>
<event>
 7    1  0.4274778E-006  0.6246765E+02  0.7561462E-02  0.1387759E+00
         -1   -1    0    0    0  501 -0.00000000000E+00  0.00000000000E+00  0.13279610044E+03  0.13279610044E+03  0.00000000000E+00 0.  1.
          1   -1    0    0  501    0  0.00000000000E+00 -0.00000000000E+00 -0.16084227818E+03  0.16084227818E+03  0.00000000000E+00 0. -1.
         23    2    1    2    0    0  0.19628603415E+02 -0.98944024919E+01 -0.10820837928E+03  0.14345102140E+03  0.91574892423E+02 0.  0.
          5    1    1    2  502    0 -0.17758812396E+02 -0.26873033950E+01  0.11312022544E+03  0.11461350192E+03  0.41800000000E+01 0. -1.
         -5    1    1    2    0  502 -0.18697910191E+01  0.12581705887E+02 -0.32958023896E+02  0.35573855295E+02  0.41800000000E+01 0. -1.
        -11    1    3    3    0    0  0.19028092726E+02 -0.49739854813E+02 -0.72393961441E+02  0.89872171014E+02  0.00000000000E+00 0.  1.
         11    1    3    3    0    0  0.60051068862E+00  0.39845452321E+02 -0.35814417842E+02  0.53578850390E+02  0.00000000000E+00 0. -1.
</event>
<event>
 7    1  0.4274778E-006  0.1239100E+03  0.7561462E-02  0.1236783E+00
          1   -1    0    0  501    0  0.00000000000E+00  0.00000000000E+00  0.67309073325E+03  0.67309073325E+03  0.00000000000E+00 0. -1.
         -1   -1    0    0    0  501 -0.00000000000E+00 -0.00000000000E+00 -0.27273749328E+02  0.27273749328E+02  0.00000000000E+00 0.  1.
         23    2    1    2    0    0  0.98059723819E+01 -0.75189092720E+02  0.20673958891E+03  0.23756324570E+03  0.89137429451E+02 0.  0.
          5    1    1    2  502    0 -0.86734901047E+01  0.10995128652E+03  0.35355417877E+03  0.37038162018E+03  0.41800000000E+01 0. -1.
         -5    1    1    2    0  502 -0.11324822772E+01 -0.34762193800E+02  0.85523216242E+02  0.92419616696E+02  0.41800000000E+01 0. -1.
        -11    1    3    3    0    0 -0.29849357598E+02 -0.30674391910E+02  0.14724347560E+03  0.15333800434E+03  0.00000000000E+00 0. -1.
         11    1    3    3    0    0  0.39655329980E+02 -0.44514700810E+02  0.59496113305E+02  0.84225241362E+02  0.00000000000E+00 0.  1.
</event>
<event>
 7    1  0.4274778E-006  0.1929819E+03  0.7561462E-02  0.1155799E+00
          1   -1    0    0  501    0  0.00000000000E+00  0.00000000000E+00  0.99599902397E+02  0.99599902397E+02  0.00000000000E+00 0. -1.
         -1   -1    0    0    0  501 -0.00000000000E+00 -0.00000000000E+00 -0.39117989294E+03  0.39117989294E+03  0.00000000000E+00 0.  1.
         23    2    1    2    0    0  0.15625872136E+03  0.43017372982E+02 -0.10592903824E+03  0.21440408408E+03  0.92091626928E+02 0.  0.
          5    1    1    2  502    0 -0.16967243057E+03 -0.62364750671E+02 -0.16321916515E+03  0.24358995073E+03  0.41800000000E+01 0. -1.
         -5    1    1    2    0  502  0.13413709219E+02  0.19347377689E+02 -0.22431787147E+02  0.32785760523E+02  0.41800000000E+01 0. -1.
        -11    1    3    3    0    0  0.12646468459E+03  0.66881329107E+02 -0.10267532134E+03  0.17609273195E+03  0.00000000000E+00 0.  1.
         11    1    3    3    0    0  0.29794036768E+02 -0.23863956125E+02 -0.32537168983E+01  0.38311352136E+02  0.00000000000E+00 0. -1.
</event>
<event>
 7    1  0.4274778E-006  0.1326641E+03  0.7561462E-02  0.1223555E+00
          1   -1    0    0  501    0  0.00000000000E+00  0.00000000000E+00  0.76824783634E+02  0.76824783634E+02  0.00000000000E+00 0. -1.
         -1   -1    0    0    0  501 -0.00000000000E+00 -0.00000000000E+00 -0.27909524322E+03  0.27909524322E+03  0.00000000000E+00 0.  1.
         23    2    1    2    0    0  0.81500224659E+02 -0.34236379122E+02 -0.38770528186E+02  0.13189005366E+03  0.89874446447E+02 0.  0.
          5    1    1    2  502    0 -0.96750078611E+02  0.66105366830E+02 -0.13146446440E+03  0.17615582600E+03  0.41800000000E+01 0.  1.
         -5    1    1    2    0  502  0.15249853952E+02 -0.31868987708E+02 -0.32035467000E+02  0.47874147189E+02  0.41800000000E+01 0.  1.
        -11    1    3    3    0    0  0.24816404517E+02 -0.48118898394E+02  0.10932267777E+02  0.55234018454E+02  0.00000000000E+00 0. -1.
         11    1    3    3    0    0  0.56683820142E+02  0.13882519272E+02 -0.49702795963E+02  0.76656035207E+02  0.00000000000E+00 0.  1.
</event>
<event>
 7    1  0.4274778E-006  0.1322938E+03  0.7561462E-02  0.1224091E+00
         -1   -1    0    0    0  501 -0.00000000000E+00  0.00000000000E+00  0.52043505615E+02  0.52043505615E+02  0.00000000000E+00 0.  1.
          1   -1    0    0  501    0  0.00000000000E+00 -0.00000000000E+00 -0.47208165405E+03  0.47208165405E+03  0.00000000000E+00 0. -1.
         23    2    1    2    0    0 -0.91886784352E+02  0.58195842466E+02 -0.24643723751E+03  0.28409613290E+03  0.90273824998E+02 0.  0.
          5    1    1    2  502    0  0.30512433251E+02  0.28283379212E+02 -0.68512967858E+01  0.42371815989E+02  0.41800000000E+01 0. -1.
         -5    1    1    2    0  502  0.61374351100E+02 -0.86479221678E+02 -0.16674961414E+03  0.19765721078E+03  0.41800000000E+01 0. -1.
        -11    1    3    3    0    0 -0.64879659917E+02  0.16460985192E+02 -0.55981549965E+02  0.87259774472E+02  0.00000000000E+00 0.  1.
         11    1    3    3    0    0 -0.27007124435E+02  0.41734857274E+02 -0.19045568755E+03  0.19683635843E+03  0.00000000000E+00 0. -1.
</event>
<event>
 7    1  0.4274778E-006  0.1284144E+03  0.7561462E-02  0.1229828E+00
          2   -1    0    0  501    0  0.00000000000E+00  0.00000000000E+00  0.12731178611E+03  0.12731178611E+03  0.00000000000E+00 0.  1.
         -2   -1    0    0    0  501 -0.00000000000E+00 -0.00000000000E+00 -0.19879912991E+03  0.19879912991E+03  0.00000000000E+00 0. -1.
         23    2    1    2    0    0 -0.99272136924E+01  0.10114644108E+03  0.24581382309E+02  0.13848007824E+03  0.90792816887E+02 0.  0.
          5    1    1    2  502    0  0.59758637901E+02 -0.30800741970E+02 -0.14554063938E+02  0.68913523251E+02  0.41800000000E+01 0. -1.
         -5    1    1    2    0  502 -0.49831424209E+02 -0.70345699108E+02 -0.81514662167E+02  0.11871731453E+03  0.41800000000E+01 0. -1.
        -11    1    3    3    0    0  0.47261038243E+01  0.13621646380E+02  0.45140124323E+02  0.47386877206E+02  0.00000000000E+00 0.  1.
         11    1    3    3    0    0 -0.14653317517E+02  0.87524794699E+02 -0.20558742014E+02  0.91093201033E+02  0.00000000000E+00 0. -1.
</event>
<event>
 7    1  0.4274778E-006  0.1128210E+03  0.7561462E-02  0.1255433E+00
         -2   -1    0    0    0  501 -0.00000000000E+00  0.00000000000E+00  0.24343989659E+02  0.24343989659E+02  0.00000000000E+00 0.  1.
          2   -1    0    0  501    0  0.00000000000E+00 -0.00000000000E+00 -0.60857723067E+03  0.60857723067E+03  0.00000000000E+00 0. -1.
         23    2    1    2    0    0 -0.61937762181E+02 -0.27522853764E+02 -0.25382834800E+03  0.27318714183E+03  0.74890522406E+02 0.  0.
          5    1    1    2  502    0 -0.25994381904E+02  0.25802800943E+02 -0.19335566015E+03  0.19683845188E+03  0.41800000000E+01 0.  1.
         -5    1    1    2    0  502  0.87932144084E+02  0.17200528209E+01 -0.13704923286E+03  0.16289562662E+03  0.41800000000E+01 0.  1.
        -11    1    3    3    0    0 -0.44518931815E+00 -0.38297561162E+02 -0.86857569116E+02  0.94927017742E+02  0.00000000000E+00 0. -1.
         11    1    3    3    0    0 -0.61492572862E+02  0.10774707398E+02 -0.16697077889E+03  0.17826012408E+03  0.00000000000E+00 0.  1.
</event>
<event>
 7    1  0.4274778E-006  0.1110153E+03  0.7561462E-02  0.1258701E+00
         -2   -1    0    0    0  501 -0.00000000000E+00  0.00000000000E+00  0.82056455859E+03  0.82056455859E+03  0.00000000000E+00 0.  1.
          2   -1    0    0  501    0  0.00000000000E+00 -0.00000000000E+00 -0.20396170063E+02  0.20396170063E+02  0.00000000000E+00 0. -1.
         23    2    1    2    0    0 -0.69988633190E+02 -0.26181071427E+02  0.31817211513E+03  0.33742065883E+03  0.83876986621E+02 0.  0.
          5    1    1    2  502    0  0.80042113190E+02 -0.11576433919E+02  0.16173352731E+03  0.18087553722E+03  0.41800000000E+01 0.  1.
         -5    1    1    2    0  502 -0.10053479999E+02  0.37757505346E+02  0.32026274609E+03  0.32266453261E+03  0.41800000000E+01 0.  1.
        -11    1    3    3    0    0 -0.24825109180E+02  0.23798173488E+02  0.18512984271E+03  0.18829683420E+03  0.00000000000E+00 0.  1.
         11    1    3    3    0    0 -0.45163524011E+02 -0.49979244915E+02  0.13304227242E+03  0.14912382464E+03  0.00000000000E+00 0. -1.
</event>
<event>
 7    1  0.4274778E-006  0.1814630E+03  0.7561462E-02  0.1166395E+00
          2   -1    0    0  501    0  0.00000000000E+00  0.00000000000E+00  0.17872123297E+03  0.17872123297E+03  0.00000000000E+00 0. -1.
         -2   -1    0    0    0  501 -0.00000000000E+00 -0.00000000000E+00 -0.25601288392E+03  0.25601288392E+03  0.00000000000E+00 0.  1.
         23    2    1    2    0    0  0.90426528795E+02  0.14090299505E+03  0.40563778699E+02  0.19479939308E+03  0.90943786359E+02 0.  0.
          5    1    1    2  502    0 -0.81944803647E+02 -0.82139780304E+02 -0.13494038361E+03  0.17801200488E+03  0.41800000000E+01 0.  1.
         -5    1    1    2    0  502 -0.84817251474E+01 -0.58763214744E+02  0.17084953950E+02  0.61922718933E+02  0.41800000000E+01 0.  1.
        -11    1    3    3    0    0  0.63830889322E+02  0.14678912675E+03  0.21392736366E+02  0.16149018340E+03  0.00000000000E+00 0.  1.
         11    1    3    3    0    0  0.26595639473E+02 -0.58861317037E+01  0.19171042333E+02  0.33309209680E+02  0.00000000000E+00 0. -1.
</event>
<event>
 7    1  0.4274778E-006  0.1366196E+03  0.7561462E-02  0.1217951E+00
         -3   -1    0    0    0  501 -0.00000000000E+00  0.00000000000E+00  0.24836050604E+03  0.24836050604E+03  0.00000000000E+00 0.  1.
          3   -1    0    0  501    0  0.00000000000E+00 -0.00000000000E+00 -0.93041910992E+02  0.93041910992E+02  0.00000000000E+00 0. -1.
         23    2    1    2    0    0  0.81185866637E+02  0.21139167139E+02 -0.31388685631E+01  0.12284371584E+03  0.89681194775E+02 0.  0.
          5    1    1    2  502    0 -0.55911530268E+02 -0.73324727401E+02  0.10090080776E+03  0.13675181999E+03  0.41800000000E+01 0. -1.
         -5    1    1    2    0  502 -0.25274336369E+02  0.52185560262E+02  0.57556655856E+02  0.81806881203E+02  0.41800000000E+01 0. -1.
        -11    1    3    3    0    0  0.39114051623E+02  0.55900524432E+02 -0.21742831197E+01  0.68260568216E+02  0.00000000000E+00 0. -1.
         11    1    3    3    0    0  0.42071815013E+02 -0.34761357292E+02 -0.96458544336E+00  0.54583147623E+02  0.00000000000E+00 0.  1.
</event>
<event>
 7    1  0.4274778E-006  0.1468687E+03  0.7561462E-02  0.1204374E+00
         -1   -1    0    0    0  501 -0.00000000000E+00  0.00000000000E+00  0.11705062548E+03  0.11705062548E+03  0.00000000000E+00 0.  1.
          1   -1    0    0  501    0  0.00000000000E+00 -0.00000000000E+00 -0.23680880181E+03  0.23680880181E+03  0.00000000000E+00 0. -1.
         23    2    1    2    0    0 -0.32780174634E+02 -0.10409515327E+03 -0.12298546897E+03  0.18782216103E+03  0.90782144806E+02 0.  0.
          5    1    1    2  502    0 -0.48078486927E+02  0.40543896340E+02  0.31369490672E+01  0.63108329760E+02  0.41800000000E+01 0.  1.
         -5    1    1    2    0  502  0.80858661561E+02  0.63551256928E+02  0.90343562460E-01  0.10292893650E+03  0.41800000000E+01 0.  1.
        -11    1    3    3    0    0 -0.15477745220E+02 -0.10876175397E+03 -0.66167734769E+02  0.12824526832E+03  0.00000000000E+00 0.  1.
         11    1    3    3    0    0 -0.17302429414E+02  0.46666006985E+01 -0.56817734197E+02  0.59576892710E+02  0.00000000000E+00 0. -1.
</event>
<event>
 7    1  0.4274778E-006  0.1114951E+03  0.7561462E-02  0.1257826E+00
         -3   -1    0    0    0  501 -0.00000000000E+00  0.00000000000E+00  0.61220525293E+03  0.61220525293E+03  0.00000000000E+00 0.  1.
          3   -1    0    0  501    0  0.00000000000E+00 -0.00000000000E+00 -0.32163247261E+02  0.32163247261E+02  0.00000000000E+00 0. -1.
         23    2    1    2    0    0 -0.19282107415E+02 -0.70978539187E+02  0.14757067094E+03  0.18820204740E+03  0.90736734733E+02 0.  0.
          5    1    1    2  502    0 -0.22939195587E+02 -0.87338677846E+01  0.26266811804E+03  0.26384559836E+03  0.41800000000E+01 0. -1.
         -5    1    1    2    0  502  0.42221303003E+02  0.79712406972E+02  0.16980321669E+03  0.19232085443E+03  0.41800000000E+01 0. -1.
        -11    1    3    3    0    0  0.23135397446E+02  0.21661779900E+01  0.68888640705E+02  0.72702020331E+02  0.00000000000E+00 0.  1.
         11    1    3    3    0    0 -0.42417504862E+02 -0.73144717177E+02  0.78682030237E+02  0.11550002706E+03  0.00000000000E+00 0. -1.
</event>
<event>
 7    1  0.4274778E-006  0.9919979E+02  0.7561462E-02  0.1281988E+00
          3   -1    0    0  501    0  0.00000000000E+00  0.00000000000E+00  0.79740023872E+01  0.79740023872E+01  0.00000000000E+00 0. -1.
         -3   -1    0    0    0  501 -0.00000000000E+00 -0.00000000000E+00 -0.24568340183E+04  0.24568340183E+04  0.00000000000E+00 0.  1.
         23    2    1    2    0    0 -0.16524551390E+02  0.30613121966E+02 -0.38691352818E+03  0.39877823287E+03  0.90065402296E+02 0.  0.
          5    1    1    2  502    0  0.29140239049E+02  0.29643228864E+02 -0.28839804179E+03  0.29140826594E+03  0.41800000000E+01 0.  1.
         -5    1    1    2    0  502 -0.12615687658E+02 -0.60256350831E+02 -0.17735484459E+04  0.17746215219E+04  0.41800000000E+01 0.  1.
        -11    1    3    3    0    0  0.25198400190E+02 -0.17916190807E+02 -0.93989531721E+02  0.98944334544E+02  0.00000000000E+00 0. -1.
         11    1    3    3    0    0 -0.41722951581E+02  0.48529312773E+02 -0.29292399646E+03  0.29983389833E+03  0.00000000000E+00 0.  1.
</event>
<event>
 7    1  0.4274778E-006  0.1254441E+03  0.7561462E-02  0.1234377E+00
          2   -1    0    0  501    0  0.00000000000E+00  0.00000000000E+00  0.30055243530E+03  0.30055243530E+03  0.00000000000E+00 0. -1.
         -2   -1    0    0    0  501 -0.00000000000E+00 -0.00000000000E+00 -0.77800354716E+02  0.77800354716E+02  0.00000000000E+00 0.  1.
         23    2    1    2    0    0 -0.19273982236E+01 -0.10919959284E+03  0.11755001162E+03  0.18177656778E+03  0.85419256729E+02 0.  0.
          5    1    1    2  502    0  0.44689381182E+00 -0.27718671569E+01  0.81982041722E+02  0.82136535881E+02  0.41800000000E+01 0.  1.
         -5    1    1    2    0  502  0.14805044118E+01  0.11197146000E+03  0.23220027238E+02  0.11443968635E+03  0.41800000000E+01 0.  1.
        -11    1    3    3    0    0 -0.34092476889E+02 -0.21313901858E+02  0.14926826224E+02  0.42888104808E+02  0.00000000000E+00 0.  1.
         11    1    3    3    0    0  0.32165078665E+02 -0.87885690985E+02  0.10262318540E+03  0.13888846297E+03  0.00000000000E+00 0. -1.
</event>
<event>
 7    1  0.4274778E-006  0.2413503E+03  0.7561462E-02  0.1118897E+00
          2   -1    0    0  501    0  0.00000000000E+00  0.00000000000E+00  0.15196438172E+03  0.15196438172E+03  0.00000000000E+00 0.  1.
         -2   -1    0    0    0  501 -0.00000000000E+00 -0.00000000000E+00 -0.41118626959E+03  0.41118626959E+03  0.00000000000E+00 0. -1.
         23    2    1    2    0    0 -0.12780624874E+03  0.17856998719E+03 -0.71917144527E+02  0.24858353403E+03  0.91651623961E+02 0.  0.
          5    1    1    2  502    0  0.26234726512E+02 -0.13880695844E+03 -0.12619359969E+03  0.18946748953E+03  0.41800000000E+01 0.  1.
         -5    1    1    2    0  502  0.10157152223E+03 -0.39763028743E+02 -0.61111143652E+02  0.12509962774E+03  0.41800000000E+01 0.  1.
        -11    1    3    3    0    0 -0.41700038421E+01  0.62485898121E+02 -0.44414942171E+02  0.76776060619E+02  0.00000000000E+00 0. -1.
         11    1    3    3    0    0 -0.12363624490E+03  0.11608408907E+03 -0.27502202356E+02  0.17180747342E+03  0.00000000000E+00 0.  1.
</event>
<event>
 7    1  0.4274778E-006  0.7599604E+02  0.7561462E-02  0.1340814E+00
          1   -1    0    0  501    0  0.00000000000E+00  0.00000000000E+00  0.17253395719E+03  0.17253395719E+03  0.00000000000E+00 0. -1.
         -1   -1    0    0    0  501 -0.00000000000E+00 -0.00000000000E+00 -0.98680031325E+02  0.98680031325E+02  0.00000000000E+00 0.  1.
         23    2    1    2    0    0  0.33515365272E+02  0.22313448226E+02  0.94457712445E+02  0.13821078396E+03  0.92513737802E+02 0.  0.
          5    1    1    2  502    0 -0.28749225160E+02 -0.30410337513E+02  0.47893523195E+02  0.63738281582E+02  0.41800000000E+01 0. -1.
         -5    1    1    2    0  502 -0.47661401118E+01  0.80968892879E+01 -0.68497309776E+02  0.69264922971E+02  0.41800000000E+01 0. -1.
        -11    1    3    3    0    0  0.27349504729E+02  0.57635661916E+02  0.70540900135E+02  0.95109849781E+02  0.00000000000E+00 0. -1.
         11    1    3    3    0    0  0.61658605422E+01 -0.35322213691E+02  0.23916812310E+02  0.43100934181E+02  0.00000000000E+00 0.  1.
</event>
<event>
 7    1  0.4274778E-006  0.1078909E+03  0.7561462E-02  0.1264526E+00
          2   -1    0    0  501    0  0.00000000000E+00  0.00000000000E+00  0.10714740648E+04  0.10714740648E+04  0.00000000000E+00 0. -1.
         -2   -1    0    0    0  501 -0.00000000000E+00 -0.00000000000E+00 -0.14012377976E+02  0.14012377976E+02  0.00000000000E+00 0.  1.
         23    2    1    2    0    0 -0.75166969896E+00 -0.48353048093E+02  0.33804767405E+03  0.35367934071E+03  0.92055764895E+02 0.  0.
          5    1    1    2  502    0 -0.15747355601E+02  0.77840270022E+02  0.64606628940E+03  0.65094255472E+03  0.41800000000E+01 0. -1.
         -5    1    1    2    0  502  0.16499025300E+02 -0.29487221929E+02  0.73347723381E+02  0.80864547350E+02  0.41800000000E+01 0. -1.
        -11    1    3    3    0    0 -0.38316947439E+02 -0.51859342272E+02  0.24322030832E+03  0.25162213381E+03  0.00000000000E+00 0. -1.
         11    1    3    3    0    0  0.37565277740E+02  0.35062941795E+01  0.94827365725E+02  0.10205720690E+03  0.00000000000E+00 0.  1.
</event>
<event>
 7    1  0.4274778E-006  0.6652836E+02  0.7561462E-02  0.1372313E+00
          3   -1    0    0  501    0  0.00000000000E+00  0.00000000000E+00  0.34111367127E+02  0.34111367127E+02  0.00000000000E+00 0. -1.
         -3   -1    0    0    0  501 -0.00000000000E+00 -0.00000000000E+00 -0.40357096958E+03  0.40357096958E+03  0.00000000000E+00 0.  1.
         23    2    1    2    0    0  0.32407581731E+02 -0.29688995306E+02 -0.14466383972E+03  0.17669974236E+03  0.91452089264E+02 0.  0.
          5    1    1    2  502    0 -0.44695991236E+02  0.33948757576E+02 -0.26486495682E+02  0.62203349002E+02  0.41800000000E+01 0.  1.
         -5    1    1    2    0  502  0.12288409505E+02 -0.42597622702E+01 -0.19830926705E+03  0.19877924535E+03  0.41800000000E+01 0.  1.
        -11    1    3    3    0    0  0.27191751087E+02  0.53288880505E+01  0.59230470001E-01  0.27709057785E+02  0.00000000000E+00 0. -1.
         11    1    3    3    0    0  0.52158306439E+01 -0.35017883357E+02 -0.14472307019E+03  0.14899068458E+03  0.00000000000E+00 0.  1.
</event>
<event>
 7    1  0.4274778E-006  0.8929751E+02  0.7561462E-02  0.1304562E+00
          2   -1    0    0  501    0  0.00000000000E+00  0.00000000000E+00  0.20124734733E+03  0.20124734733E+03  0.00000000000E+00 0. -1.
         -2   -1    0    0    0  501 -0.00000000000E+00 -0.00000000000E+00 -0.64556361676E+02  0.64556361676E+02  0.00000000000E+00 0.  1.
         23    2    1    2    0    0 -0.27484109662E+01  0.13205685884E+02  0.94469222556E+02  0.13308881216E+03  0.92769898191E+02 0.  0.
          5    1    1    2  502    0  0.48355933871E+02 -0.46202364970E+01  0.64672735710E+02  0.80991839528E+02  0.41800000000E+01 0. -1.
         -5    1    1    2    0  502 -0.45607522905E+02 -0.85854493868E+01 -0.22450972612E+02  0.51723057314E+02  0.41800000000E+01 0. -1.
        -11    1    3    3    0    0  0.31114230443E+02  0.31901237232E+02  0.80409830813E+02  0.91932176981E+02  0.00000000000E+00 0. -1.
         11    1    3    3    0    0 -0.33862641410E+02 -0.18695551348E+02  0.14059391742E+02  0.41156635183E+02  0.00000000000E+00 0.  1.
</event>
<event>
 7    1  0.4274778E-006  0.1735707E+03  0.7561462E-02  0.1174175E+00
         -1   -1    0    0    0  501 -0.00000000000E+00  0.00000000000E+00  0.78792948408E+02  0.78792948408E+02  0.00000000000E+00 0.  1.
          1   -1    0    0  501    0  0.00000000000E+00 -0.00000000000E+00 -0.40285343396E+03  0.40285343396E+03  0.00000000000E+00 0. -1.
         23    2    1    2    0    0  0.45960583388E+02 -0.13332145971E+03 -0.18001898311E+03  0.24451939883E+03  0.86578954024E+02 0.  0.
          5    1    1    2  502    0  0.29760379174E+02  0.89189099314E+02 -0.43500148240E+02  0.10368274158E+03  0.41800000000E+01 0.  1.
         -5    1    1    2    0  502 -0.75720962563E+02  0.44132360399E+02 -0.10054135420E+03  0.13344424196E+03  0.41800000000E+01 0.  1.
        -11    1    3    3    0    0 -0.23082308076E+02 -0.61350419521E+02 -0.65625251936E+02  0.92754194586E+02  0.00000000000E+00 0. -1.
         11    1    3    3    0    0  0.69042891464E+02 -0.71971040192E+02 -0.11439373117E+03  0.15176520424E+03  0.00000000000E+00 0.  1.
</event>
<event>
 7    1  0.4274778E-006  0.1568225E+03  0.7561462E-02  0.1192332E+00
         -2   -1    0    0    0  501 -0.00000000000E+00  0.00000000000E+00  0.37222710973E+03  0.37222710973E+03  0.00000000000E+00 0.  1.
          2   -1    0    0  501    0  0.00000000000E+00 -0.00000000000E+00 -0.89153722518E+02  0.89153722518E+02  0.00000000000E+00 0. -1.
         23    2    1    2    0    0 -0.11571223984E+03 -0.43928338255E+01  0.20907098209E+02  0.14867095912E+03  0.90869840390E+02 0.  0.
          5    1    1    2  502    0  0.29703885535E+02  0.57843091959E+02  0.13660077539E+03  0.15134526204E+03  0.41800000000E+01 0. -1.
         -5    1    1    2    0  502  0.86008354305E+02 -0.53450258133E+02  0.12556551361E+03  0.16136461109E+03  0.41800000000E+01 0. -1.
        -11    1    3    3    0    0 -0.41962339819E+02 -0.46158576362E+02  0.10909311688E+02  0.63328233959E+02  0.00000000000E+00 0. -1.
         11    1    3    3    0    0 -0.73749900020E+02  0.41765742536E+02  0.99977865210E+01  0.85342725161E+02  0.00000000000E+00 0.  1.
</event>
<event>
 7    1  0.4274778E-006  0.2730719E+03  0.7561462E-02  0.1099534E+00
         -1   -1    0    0    0  501 -0.00000000000E+00  0.00000000000E+00  0.48611919845E+03  0.48611919845E+03  0.00000000000E+00 0.  1.
          1   -1    0    0  501    0  0.00000000000E+00 -0.00000000000E+00 -0.17575061629E+03  0.17575061629E+03  0.00000000000E+00 0. -1.
         23    2    1    2    0    0  0.25769779744E+03  0.19380041224E+02  0.55141431537E+02  0.27772030505E+03  0.85464902519E+02 0.  0.
          5    1    1    2  502    0 -0.16574054175E+03  0.47351002458E+02  0.13804039511E+03  0.22087251458E+03  0.41800000000E+01 0. -1.
         -5    1    1    2    0  502 -0.91957255685E+02 -0.66731043682E+02  0.11718675551E+03  0.16327699511E+03  0.41800000000E+01 0. -1.
        -11    1    3    3    0    0  0.17140840959E+03  0.26493577642E+02 -0.29272978306E+01  0.17346850322E+03  0.00000000000E+00 0.  1.
         11    1    3    3    0    0  0.86289387843E+02 -0.71135364184E+01  0.58068729368E+02  0.10425180183E+03  0.00000000000E+00 0. -1.
</event>
<event>
 7    1  0.4274778E-006  0.8797713E+02  0.7561462E-02  0.1307826E+00
         -4   -1    0    0    0  501 -0.00000000000E+00  0.00000000000E+00  0.55387846671E+02  0.55387846671E+02  0.00000000000E+00 0.  1.
          4   -1    0    0  501    0  0.00000000000E+00 -0.00000000000E+00 -0.28394763859E+03  0.28394763859E+03  0.00000000000E+00 0. -1.
         23    2    1    2    0    0  0.10179580014E+02  0.51646803073E+02 -0.17311652931E+03  0.20496102233E+03  0.96273941635E+02 0.  0.
          5    1    1    2  502    0 -0.86557192506E+01 -0.57884406603E+02 -0.85309652268E+02  0.10354098306E+03  0.41800000000E+01 0. -1.
         -5    1    1    2    0  502 -0.15238607633E+01  0.62376035298E+01  0.29866389659E+02  0.30833479867E+02  0.41800000000E+01 0.  1.
        -11    1    3    3    0    0 -0.76302312552E+01 -0.27474556937E+02 -0.41088771567E+02  0.50013586722E+02  0.00000000000E+00 0.  1.
         11    1    3    3    0    0  0.17809811269E+02  0.79121360010E+02 -0.13202775774E+03  0.15494743561E+03  0.00000000000E+00 0. -1.
</event>
<event>
 7    1  0.4274778E-006  0.7883230E+02  0.7561462E-02  0.1332398E+00
          2   -1    0    0  501    0  0.00000000000E+00  0.00000000000E+00  0.24794824271E+03  0.24794824271E+03  0.00000000000E+00 0. -1.
         -2   -1    0    0    0  501 -0.00000000000E+00 -0.00000000000E+00 -0.55206641507E+02  0.55206641507E+02  0.00000000000E+00 0.  1.
         23    2    1    2    0    0 -0.43574075662E+01  0.96968572002E+01  0.13986065317E+03  0.16691090806E+03  0.90472276890E+02 0.  0.
          5    1    1    2  502    0  0.51567623514E+02  0.22982269429E+01 -0.13767931890E+02  0.53586658698E+02  0.41800000000E+01 0. -1.
         -5    1    1    2    0  502 -0.47210215948E+02 -0.11995084143E+02  0.66648879922E+02  0.82657317452E+02  0.41800000000E+01 0. -1.
        -11    1    3    3    0    0 -0.28984188815E+02  0.13663614172E+02  0.13824983479E+03  0.14191474333E+03  0.00000000000E+00 0. -1.
         11    1    3    3    0    0  0.24626781248E+02 -0.39667569718E+01  0.16108183722E+01  0.24996164733E+02  0.00000000000E+00 0.  1.
</event>
<event>
 7    1  0.4274778E-006  0.5113236E+02  0.7561462E-02  0.1439328E+00
          1   -1    0    0  501    0  0.00000000000E+00  0.00000000000E+00  0.92893029877E+02  0.92893029877E+02  0.00000000000E+00 0. -1.
         -1   -1    0    0    0  501 -0.00000000000E+00 -0.00000000000E+00 -0.16125959153E+03  0.16125959153E+03  0.00000000000E+00 0.  1.
         23    2    1    2    0    0 -0.17497054285E+02  0.39317605183E+02  0.84746146819E+01  0.10116884335E+03  0.91166302902E+02 0.  0.
          5    1    1    2  502    0  0.11846833473E+02 -0.46952270232E+02 -0.10891778533E+03  0.11927036306E+03  0.41800000000E+01 0.  1.
         -5    1    1    2    0  502  0.56502208121E+01  0.76346650490E+01  0.32076608999E+02  0.33713414993E+02  0.41800000000E+01 0.  1.
        -11    1    3    3    0    0 -0.50473312216E+01  0.16940960442E+02 -0.41449078644E+02  0.45061045412E+02  0.00000000000E+00 0.  1.
         11    1    3    3    0    0 -0.12449723063E+02  0.22376644741E+02  0.49923693326E+02  0.56107797939E+02  0.00000000000E+00 0. -1.
</event>
<event>
 7    1  0.4274778E-006  0.1303656E+03  0.7561462E-02  0.1226914E+00
         -1   -1    0    0    0  501 -0.00000000000E+00  0.00000000000E+00  0.55642263107E+03  0.55642263107E+03  0.00000000000E+00 0.  1.
          1   -1    0    0  501    0  0.00000000000E+00 -0.00000000000E+00 -0.45576566545E+02  0.45576566545E+02  0.00000000000E+00 0. -1.
         23    2    1    2    0    0 -0.69664356147E+02 -0.90287750470E+02  0.19083091891E+03  0.23997342046E+03  0.90364830057E+02 0.  0.
          5    1    1    2  502    0 -0.11289742967E+02 -0.10245306864E+02  0.13770445778E+03  0.13860885506E+03  0.41800000000E+01 0.  1.
         -5    1    1    2    0  502  0.80954099114E+02  0.10053305733E+03  0.18231068783E+03  0.22341692209E+03  0.41800000000E+01 0.  1.
        -11    1    3    3    0    0 -0.50168716328E+02 -0.49033631576E+02  0.17984248133E+03  0.19304019067E+03  0.00000000000E+00 0.  1.
         11    1    3    3    0    0 -0.19495639819E+02 -0.41254118894E+02  0.10988437581E+02  0.46933229786E+02  0.00000000000E+00 0. -1.
</event>
<event>
 7    1  0.4274778E-006  0.1103072E+03  0.7561462E-02  0.1260002E+00
         -1   -1    0    0    0  501 -0.00000000000E+00  0.00000000000E+00  0.58147078211E+02  0.58147078211E+02  0.00000000000E+00 0.  1.
          1   -1    0    0  501    0  0.00000000000E+00 -0.00000000000E+00 -0.46704327873E+03  0.46704327873E+03  0.00000000000E+00 0. -1.
         23    2    1    2    0    0  0.19377630761E+02  0.70463133475E+02 -0.35007059212E+03  0.36882920729E+03  0.90249758627E+02 0.  0.
          5    1    1    2  502    0  0.68587773975E+01  0.34633841115E+02 -0.71223274286E+01  0.36259422580E+02  0.41800000000E+01 0. -1.
         -5    1    1    2    0  502 -0.26236408159E+02 -0.10509697459E+03 -0.51703280965E+02  0.12010172706E+03  0.41800000000E+01 0. -1.
        -11    1    3    3    0    0  0.24689475529E+02  0.54416372495E+02 -0.34642057848E+03  0.35153652582E+03  0.00000000000E+00 0. -1.
         11    1    3    3    0    0 -0.53118447678E+01  0.16046760980E+02 -0.36500136454E+01  0.17292681470E+02  0.00000000000E+00 0.  1.
</event>
<event>
 7    1  0.4274778E-006  0.8032014E+02  0.7561462E-02  0.1328145E+00
          1   -1    0    0  501    0  0.00000000000E+00  0.00000000000E+00  0.12352520115E+03  0.12352520115E+03  0.00000000000E+00 0. -1.
         -1   -1    0    0    0  501 -0.00000000000E+00 -0.00000000000E+00 -0.14570070919E+03  0.14570070919E+03  0.00000000000E+00 0.  1.
         23    2    1    2    0    0 -0.28283849216E+02 -0.28607533629E+01  0.64503493866E+02  0.11440964505E+03  0.90114960601E+02 0.  0.
          5    1    1    2  502    0  0.38176980230E+02  0.21957138810E+02 -0.11253963323E+03  0.12092245123E+03  0.41800000000E+01 0.  1.
         -5    1    1    2    0  502 -0.98931310148E+01 -0.19096385447E+02  0.25860631330E+02  0.33893814055E+02  0.41800000000E+01 0.  1.
        -11    1    3    3    0    0 -0.57178965332E+02 -0.20378244468E+02  0.41257796851E+02  0.73395590638E+02  0.00000000000E+00 0. -1.
         11    1    3    3    0    0  0.28895116116E+02  0.17517491105E+02  0.23245697014E+02  0.41014054416E+02  0.00000000000E+00 0.  1.
</event>
<event>
 7    1  0.4274778E-006  0.1119633E+03  0.7561462E-02  0.1256977E+00
         -1   -1    0    0    0  501 -0.00000000000E+00  0.00000000000E+00  0.13695427512E+03  0.13695427512E+03  0.00000000000E+00 0.  1.
          1   -1    0    0  501    0  0.00000000000E+00 -0.00000000000E+00 -0.16169430408E+03  0.16169430408E+03  0.00000000000E+00 0. -1.
         23    2    1    2    0    0  0.44652447999E+02  0.90123388392E+02 -0.29973822740E+02  0.13805546717E+03  0.89692896697E+02 0.  0.
          5    1    1    2  502    0  0.15734403752E+02 -0.43834008918E+02  0.52983758324E+02  0.70666419503E+02  0.41800000000E+01 0.  1.
         -5    1    1    2    0  502 -0.60386851751E+02 -0.46289379474E+02 -0.47749964542E+02  0.89926692534E+02  0.41800000000E+01 0.  1.
        -11    1    3    3    0    0  0.13831813941E+02  0.19481796872E+02 -0.52565124155E+02  0.57740382434E+02  0.00000000000E+00 0. -1.
         11    1    3    3    0    0  0.30820634057E+02  0.70641591520E+02  0.22591301415E+02  0.80315084734E+02  0.00000000000E+00 0.  1.
</event>
<event>
 7    1  0.4274778E-006  0.1921612E+03  0.7561462E-02  0.1156526E+00
          2   -1    0    0  501    0  0.00000000000E+00  0.00000000000E+00  0.59751737241E+03  0.59751737241E+03  0.00000000000E+00 0.  1.
         -2   -1    0    0    0  501 -0.00000000000E+00 -0.00000000000E+00 -0.81703307667E+02  0.81703307667E+02  0.00000000000E+00 0. -1.
         23    2    1    2    0    0 -0.25929658634E+02 -0.16174797615E+03  0.40230135043E+03  0.44391958560E+03  0.91561274201E+02 0.  0.
          5    1    1    2  502    0  0.76278506995E+02  0.99134305399E+02  0.61025766820E+02  0.13923949782E+03  0.41800000000E+01 0.  1.
         -5    1    1    2    0  502 -0.50348848361E+02  0.62613670752E+02  0.52486947495E+02  0.96061596664E+02  0.41800000000E+01 0.  1.
        -11    1    3    3    0    0  0.23997055117E+02 -0.73543780924E+02  0.10948232062E+03  0.13405567834E+03  0.00000000000E+00 0. -1.
         11    1    3    3    0    0 -0.49926713751E+02 -0.88204195227E+02  0.29281902981E+03  0.30986390726E+03  0.00000000000E+00 0.  1.
</event>
<event>
 7    1  0.4274778E-006  0.2160799E+03  0.7561462E-02  0.1136840E+00
          2   -1    0    0  501    0  0.00000000000E+00  0.00000000000E+00  0.93181182423E+02  0.93181182423E+02  0.00000000000E+00 0. -1.
         -2   -1    0    0    0  501 -0.00000000000E+00 -0.00000000000E+00 -0.63481831498E+03  0.63481831498E+03  0.00000000000E+00 0.  1.
         23    2    1    2    0    0 -0.20048102224E+03 -0.97626391874E+01 -0.38634218379E+03  0.44506548042E+03  0.92385331517E+02 0.  0.
          5    1    1    2  502    0 -0.71855000242E+00 -0.12114099171E+02 -0.56021954103E+02  0.57473467394E+02  0.41800000000E+01 0.  1.
         -5    1    1    2    0  502  0.20119957225E+03  0.21876738358E+02 -0.99272994668E+02  0.22546054960E+03  0.41800000000E+01 0.  1.
        -11    1    3    3    0    0 -0.17720544548E+03 -0.37042956916E+02 -0.34977893085E+03  0.39385181355E+03  0.00000000000E+00 0. -1.
         11    1    3    3    0    0 -0.23275576761E+02  0.27280317729E+02 -0.36563252938E+02  0.51213666871E+02  0.00000000000E+00 0.  1.
</event>
<event>
 7    1  0.4274778E-006  0.1037955E+03  0.7561462E-02  0.1272511E+00
          2   -1    0    0  501    0  0.00000000000E+00  0.00000000000E+00  0.37120032072E+03  0.37120032072E+03  0.00000000000E+00 0.  1.
         -2   -1    0    0    0  501 -0.00000000000E+00 -0.00000000000E+00 -0.48282107993E+02  0.48282107993E+02  0.00000000000E+00 0. -1.
         23    2    1    2    0    0  0.44011334001E+02  0.19094448850E+02  0.24368828098E+03  0.26383348192E+03  0.89008608582E+02 0.  0.
          5    1    1    2  502    0  0.29534305572E+01 -0.53327922187E+02 -0.43654884711E+01  0.53750534197E+02  0.41800000000E+01 0. -1.
         -5    1    1    2    0  502 -0.46964764559E+02  0.34233473337E+02  0.83595420220E+02  0.10189841259E+03  0.41800000000E+01 0. -1.
        -11    1    3    3    0    0 -0.12018102844E+02  0.35410164114E+02  0.13939681536E+03  0.14432528071E+03  0.00000000000E+00 0. -1.
         11    1    3    3    0    0  0.56029436846E+02 -0.16315715264E+02  0.10429146561E+03  0.11950820122E+03  0.00000000000E+00 0.  1.
</event>
<event>
 7    1  0.4274778E-006  0.1318714E+03  0.7561462E-02  0.1224705E+00
          1   -1    0    0  501    0  0.00000000000E+00  0.00000000000E+00  0.16433682481E+03  0.16433682481E+03  0.00000000000E+00 0. -1.
         -1   -1    0    0    0  501 -0.00000000000E+00 -0.00000000000E+00 -0.16262939021E+03  0.16262939021E+03  0.00000000000E+00 0.  1.
         23    2    1    2    0    0  0.69216469782E+02 -0.47317259812E+01  0.86787714098E+02  0.14247048498E+03  0.89176358142E+02 0.  0.
          5    1    1    2  502    0 -0.10702010295E+03 -0.25930351212E+02 -0.37772430911E+02  0.11648997590E+03  0.41800000000E+01 0. -1.
         -5    1    1    2    0  502  0.37803633166E+02  0.30662077193E+02 -0.47307848583E+02  0.68005754138E+02  0.41800000000E+01 0.  1.
        -11    1    3    3    0    0  0.85912533166E+01  0.32453760970E+02  0.47658881602E+01  0.33908257469E+02  0.00000000000E+00 0. -1.
         11    1    3    3    0    0  0.60625216466E+02 -0.37185486951E+02  0.82021825938E+02  0.10856222751E+03  0.00000000000E+00 0.  1.
</event>
<event>
 7    1  0.4274778E-006  0.1341295E+03  0.7561462E-02  0.1221454E+00
         -1   -1    0    0    0  501 -0.00000000000E+00  0.00000000000E+00  0.99013754234E+02  0.99013754234E+02  0.00000000000E+00 0.  1.
          1   -1    0    0  501    0  0.00000000000E+00 -0.00000000000E+00 -0.20019217018E+03  0.20019217018E+03  0.00000000000E+00 0. -1.
         23    2    1    2    0    0 -0.80270084174E+02 -0.44640106414E+02 -0.55141478186E+02  0.13733174348E+03  0.85926710840E+02 0.  0.
          5    1    1    2  502    0  0.10562303030E+01  0.68347656843E+02 -0.38938448496E+02  0.78779394448E+02  0.41800000000E+01 0. -1.
         -5    1    1    2    0  502  0.79213853871E+02 -0.23707550429E+02 -0.70984892678E+01  0.83094786493E+02  0.41800000000E+01 0. -1.
        -11    1    3    3    0    0  0.63041934709E+01 -0.28158074093E+02  0.67584156555E+01  0.29636062055E+02  0.00000000000E+00 0.  1.
         11    1    3    3    0    0 -0.86574277645E+02 -0.16482032320E+02 -0.61899893842E+02  0.10769568142E+03  0.00000000000E+00 0. -1.
</event>
<event>
 7    1  0.4274778E-006  0.1327689E+03  0.7561462E-02  0.1223404E+00
         -1   -1    0    0    0  501 -0.00000000000E+00  0.00000000000E+00  0.31790990795E+02  0.31790990795E+02  0.00000000000E+00 0.  1.
          1   -1    0    0  501    0  0.00000000000E+00 -0.00000000000E+00 -0.85760591011E+03  0.85760591011E+03  0.00000000000E+00 0. -1.
         23    2    1    2    0    0 -0.38744430941E+02 -0.11021237608E+03 -0.49316001386E+03  0.51529054247E+03  0.93110929133E+02 0.  0.
          5    1    1    2  502    0  0.12283261141E+02  0.70147684733E+02 -0.49380150839E+02  0.86760866031E+02  0.41800000000E+01 0. -1.
         -5    1    1    2    0  502  0.26461169800E+02  0.40064691344E+02 -0.28327475462E+03  0.28734549240E+03  0.41800000000E+01 0. -1.
        -11    1    3    3    0    0  0.21510055577E+02 -0.70822985999E+02 -0.30439532864E+03  0.31326521342E+03  0.00000000000E+00 0. -1.
         11    1    3    3    0    0 -0.60254486518E+02 -0.39389390078E+02 -0.18876468521E+03  0.20202532906E+03  0.00000000000E+00 0.  1.
</event>
<event>
 7    1  0.4274778E-006  0.1311807E+03  0.7561462E-02  0.1225714E+00
         -1   -1    0    0    0  501 -0.00000000000E+00  0.00000000000E+00  0.88748097307E+03  0.88748097307E+03  0.00000000000E+00 0.  1.
          1   -1    0    0  501    0  0.00000000000E+00 -0.00000000000E+00 -0.21373682384E+02  0.21373682384E+02  0.00000000000E+00 0. -1.
         23    2    1    2    0    0 -0.87188988063E+02  0.83831930978E+01  0.38737327574E+03  0.40635520467E+03  0.85990115912E+02 0.  0.
          5    1    1    2  502    0  0.66081253935E+02  0.48392344763E+02  0.35902641862E+03  0.36827434450E+03  0.41800000000E+01 0.  1.
         -5    1    1    2    0  502  0.21107734128E+02 -0.56775537860E+02  0.11970759633E+03  0.13422510629E+03  0.41800000000E+01 0.  1.
        -11    1    3    3    0    0 -0.48872506680E+02  0.45145324996E+02  0.25953921681E+03  0.26793138551E+03  0.00000000000E+00 0. -1.
         11    1    3    3    0    0 -0.38316481383E+02 -0.36762131898E+02  0.12783405893E+03  0.13842381916E+03  0.00000000000E+00 0.  1.
</event>
<event>
 7    1  0.4274778E-006  0.2319374E+03  0.7561462E-02  0.1125284E+00
          2   -1    0    0  501    0  0.00000000000E+00  0.00000000000E+00  0.12926758906E+03  0.12926758906E+03  0.00000000000E+00 0. -1.
         -2   -1    0    0    0  501 -0.00000000000E+00 -0.00000000000E+00 -0.67530260982E+03  0.67530260982E+03  0.00000000000E+00 0.  1.
         23    2    1    2    0    0 -0.94955459800E+02  0.19418965349E+03 -0.36324276404E+02  0.23696252701E+03  0.90031246149E+02 0.  0.
          5    1    1    2  502    0  0.11135742817E+03 -0.13936265630E+03 -0.45324124347E+03  0.48710114346E+03  0.41800000000E+01 0. -1.
         -5    1    1    2    0  502 -0.16401968369E+02 -0.54826997183E+02 -0.56469500886E+02  0.80506528411E+02  0.41800000000E+01 0. -1.
        -11    1    3    3    0    0 -0.66347140816E+02  0.55654326885E+02 -0.40147611232E+02  0.95452490189E+02  0.00000000000E+00 0.  1.
         11    1    3    3    0    0 -0.28608318984E+02  0.13853532660E+03  0.38233348286E+01  0.14151003682E+03  0.00000000000E+00 0. -1.
</event>
<event>
 7    1  0.4274778E-006  0.1786384E+03  0.7561462E-02  0.1169127E+00
          1   -1    0    0  501    0  0.00000000000E+00  0.00000000000E+00  0.97824670394E+03  0.97824670394E+03  0.00000000000E+00 0. -1.
         -1   -1    0    0    0  501 -0.00000000000E+00 -0.00000000000E+00 -0.38881449225E+02  0.38881449225E+02  0.00000000000E+00 0.  1.
         23    2    1    2    0    0  0.48365123088E+02 -0.15382201816E+03  0.38902818433E+03  0.43017275842E+03  0.87779698576E+02 0.  0.
          5    1    1    2  502    0  0.16939468325E+02  0.43195105646E+02  0.31835750654E+03  0.32174794033E+03  0.41800000000E+01 0.  1.
         -5    1    1    2    0  502 -0.65304591412E+02  0.11062691252E+03  0.23197956385E+03  0.26520745442E+03  0.41800000000E+01 0.  1.
        -11    1    3    3    0    0 -0.86787602158E+01 -0.10969987423E+03  0.20814951404E+03  0.23544766612E+03  0.00000000000E+00 0.  1.
         11    1    3    3    0    0  0.57043883303E+02 -0.44122143937E+02  0.18087867028E+03  0.19472509230E+03  0.00000000000E+00 0. -1.
</event>
<event>
 7    1  0.4274778E-006  0.1130477E+03  0.7561462E-02  0.1255028E+00
         -2   -1    0    0    0  501 -0.00000000000E+00  0.00000000000E+00  0.22017535031E+02  0.22017535031E+02  0.00000000000E+00 0.  1.
          2   -1    0    0  501    0  0.00000000000E+00 -0.00000000000E+00 -0.76708217986E+03  0.76708217986E+03  0.00000000000E+00 0. -1.
         23    2    1    2    0    0 -0.61595116643E+02 -0.70706760035E+01 -0.43651120907E+03  0.45041024692E+03  0.92105385510E+02 0.  0.
          5    1    1    2  502    0 -0.36013077749E+02  0.95036695463E+01 -0.51571656066E+02  0.63752408686E+02  0.41800000000E+01 0.  1.
         -5    1    1    2    0  502  0.97608194392E+02 -0.24329935428E+01 -0.25698177970E+03  0.27493705928E+03  0.41800000000E+01 0.  1.
        -11    1    3    3    0    0  0.11637045575E+02 -0.12961529843E+02 -0.16403891744E+02  0.23927175971E+02  0.00000000000E+00 0.  1.
         11    1    3    3    0    0 -0.73232162218E+02  0.58908538391E+01 -0.42010731732E+03  0.42648307095E+03  0.00000000000E+00 0. -1.
</event>
<event>
 7    1  0.4274778E-006  0.8550554E+02  0.7561462E-02  0.1314116E+00
          1   -1    0    0  501    0  0.00000000000E+00  0.00000000000E+00  0.72149248032E+02  0.72149248032E+02  0.00000000000E+00 0. -1.
         -1   -1    0    0    0  501 -0.00000000000E+00 -0.00000000000E+00 -0.23623910474E+03  0.23623910474E+03  0.00000000000E+00 0.  1.
         23    2    1    2    0    0  0.26801981685E+02  0.61829805683E+02 -0.41680718873E+02  0.12084519277E+03  0.91241477393E+02 0.  0.
          5    1    1    2  502    0 -0.34432874908E+02 -0.61026107773E+02 -0.14621108738E+03  0.16218804881E+03  0.41800000000E+01 0. -1.
         -5    1    1    2    0  502  0.76308932232E+01 -0.80369790943E+00  0.23801949541E+02  0.25355111194E+02  0.41800000000E+01 0. -1.
        -11    1    3    3    0    0 -0.15258127933E+02  0.43682531902E+02 -0.56194533866E+02  0.72792854717E+02  0.00000000000E+00 0.  1.
         11    1    3    3    0    0  0.42060109618E+02  0.18147273781E+02  0.14513814993E+02  0.48052338053E+02  0.00000000000E+00 0. -1.
</event>
<event>
 7    1  0.4274778E-006  0.1688787E+03  0.7561462E-02  0.1179022E+00
          3   -1    0    0  501    0  0.00000000000E+00  0.00000000000E+00  0.13103244846E+03  0.13103244846E+03  0.00000000000E+00 0. -1.
         -3   -1    0    0    0  501 -0.00000000000E+00 -0.00000000000E+00 -0.28465411755E+03  0.28465411755E+03  0.00000000000E+00 0.  1.
         23    2    1    2    0    0 -0.14216741301E+03  0.20008285844E+01  0.21981012365E+01  0.17044710562E+03  0.93977696977E+02 0.  0.
          5    1    1    2  502    0  0.18306868084E+02  0.46247831430E+02 -0.73450347863E+02  0.88805570390E+02  0.41800000000E+01 0. -1.
         -5    1    1    2    0  502  0.12386054493E+03 -0.48248660015E+02 -0.82369422467E+02  0.15643389000E+03  0.41800000000E+01 0. -1.
        -11    1    3    3    0    0 -0.57869888335E+02 -0.29381245853E+02 -0.34261203398E+02  0.73389451845E+02  0.00000000000E+00 0.  1.
         11    1    3    3    0    0 -0.84297524676E+02  0.31382074437E+02  0.36459304635E+02  0.97057653779E+02  0.00000000000E+00 0. -1.
</event>
<event>
 7    1  0.4274778E-006  0.1002886E+03  0.7561462E-02  0.1279690E+00
          1   -1    0    0  501    0  0.00000000000E+00  0.00000000000E+00  0.20752313447E+03  0.20752313447E+03  0.00000000000E+00 0. -1.
         -1   -1    0    0    0  501 -0.00000000000E+00 -0.00000000000E+00 -0.59844387240E+02  0.59844387240E+02  0.00000000000E+00 0.  1.
         23    2    1    2    0    0  0.11883380216E+02 -0.79846415334E+01  0.75394142458E+02  0.12218144002E+03  0.95073962491E+02 0.  0.
          5    1    1    2  502    0 -0.66996360302E+02 -0.24676162618E+01  0.24905180702E+02  0.71640364666E+02  0.41800000000E+01 0.  1.
         -5    1    1    2    0  502  0.55112980086E+02  0.10452257795E+02  0.47379424074E+02  0.73545717024E+02  0.41800000000E+01 0.  1.
        -11    1    3    3    0    0 -0.43367149626E+01 -0.40545689149E+02  0.75495388156E+02  0.85803925540E+02  0.00000000000E+00 0. -1.
         11    1    3    3    0    0  0.16220095178E+02  0.32561047615E+02 -0.10124569788E+00  0.36377514485E+02  0.00000000000E+00 0.  1.
</event>
<event>
 7    1  0.4274778E-006  0.8052074E+02  0.7561462E-02  0.1327580E+00
         -1   -1    0    0    0  501 -0.00000000000E+00  0.00000000000E+00  0.81876152885E+02  0.81876152885E+02  0.00000000000E+00 0.  1.
          1   -1    0    0  501    0  0.00000000000E+00 -0.00000000000E+00 -0.20034528181E+03  0.20034528181E+03  0.00000000000E+00 0. -1.
         23    2    1    2    0    0  0.18403561173E+02  0.18776362423E+02 -0.12161740864E+03  0.15435614098E+03  0.91344301004E+02 0.  0.
          5    1    1    2  502    0 -0.15907514395E+02  0.35255803926E+02  0.44898905013E+02  0.59408793929E+02  0.41800000000E+01 0. -1.
         -5    1    1    2    0  502 -0.24960467772E+01 -0.54032166349E+02 -0.41750625305E+02  0.68456499788E+02  0.41800000000E+01 0. -1.
        -11    1    3    3    0    0  0.24080556641E+00 -0.22651275464E+02  0.19823599443E+01  0.22739129676E+02  0.00000000000E+00 0.  1.
         11    1    3    3    0    0  0.18162755606E+02  0.41427637887E+02 -0.12359976858E+03  0.13161701131E+03  0.00000000000E+00 0. -1.
</event>
<event>
 7    1  0.4274778E-006  0.8908571E+02  0.7561462E-02  0.1305081E+00
         -1   -1    0    0    0  501 -0.00000000000E+00  0.00000000000E+00  0.24946829123E+03  0.24946829123E+03  0.00000000000E+00 0.  1.
          1   -1    0    0  501    0  0.00000000000E+00 -0.00000000000E+00 -0.49159001405E+02  0.49159001405E+02  0.00000000000E+00 0. -1.
         23    2    1    2    0    0  0.79382811721E+01  0.21349331133E+02  0.72683713591E+02  0.11847529717E+03  0.90745047090E+02 0.  0.
          5    1    1    2  502    0 -0.50944329339E+02  0.28902209969E+02  0.76562552104E+02  0.96488129930E+02  0.41800000000E+01 0.  1.
         -5    1    1    2    0  502  0.43006048167E+02 -0.50251541101E+02  0.51063024126E+02  0.83663865527E+02  0.41800000000E+01 0.  1.
        -11    1    3    3    0    0 -0.65769717976E+01  0.33566303780E+02 -0.83840234337E+01  0.35217114539E+02  0.00000000000E+00 0. -1.
         11    1    3    3    0    0  0.14515252970E+02 -0.12216972648E+02  0.81067737025E+02  0.83258182636E+02  0.00000000000E+00 0.  1.
</event>
<event>
 7    1  0.4274778E-006  0.1398683E+03  0.7561462E-02  0.1213506E+00
          2   -1    0    0  501    0  0.00000000000E+00  0.00000000000E+00  0.75120456108E+03  0.75120456108E+03  0.00000000000E+00 0. -1.
         -2   -1    0    0    0  501 -0.00000000000E+00 -0.00000000000E+00 -0.55650747784E+02  0.55650747784E+02  0.00000000000E+00 0.  1.
         23    2    1    2    0    0 -0.35082927896E+02  0.82626622083E+02  0.62393442461E+03  0.63704386717E+03  0.92047552859E+02 0.  0.
          5    1    1    2  502    0  0.86730954724E+01  0.32703102591E+02  0.26253584390E+02  0.43028346441E+02  0.41800000000E+01 0. -1.
         -5    1    1    2    0  502  0.26409832423E+02 -0.11532972467E+03  0.45365804305E+02  0.12678309525E+03  0.41800000000E+01 0. -1.
        -11    1    3    3    0    0 -0.34782207849E+02 -0.87612088201E+01  0.13764936595E+03  0.14224594444E+03  0.00000000000E+00 0. -1.
         11    1    3    3    0    0 -0.30072004694E+00  0.91387830903E+02  0.48628505866E+03  0.49479792273E+03  0.00000000000E+00 0.  1.
</event>
<event>
 7    1  0.4274778E-006  0.7856575E+02  0.7561462E-02  0.1333172E+00
          1   -1    0    0  501    0  0.00000000000E+00  0.00000000000E+00  0.43220953193E+03  0.43220953193E+03  0.00000000000E+00 0. -1.
         -1   -1    0    0    0  501 -0.00000000000E+00 -0.00000000000E+00 -0.29866740903E+02  0.29866740903E+02  0.00000000000E+00 0.  1.
         23    2    1    2    0    0 -0.14591757331E+02  0.32437788015E+02  0.19231767158E+03  0.21504776410E+03  0.89410986853E+02 0.  0.
          5    1    1    2  502    0 -0.15149620871E+02 -0.29158328625E+02 -0.16915514908E+01  0.33167045198E+02  0.41800000000E+01 0.  1.
         -5    1    1    2    0  502  0.29741378202E+02 -0.32794593895E+01  0.21171667094E+03  0.21386146354E+03  0.41800000000E+01 0.  1.
        -11    1    3    3    0    0  0.29135173104E+02 -0.11946799347E+02  0.43391955278E+02  0.53613861167E+02  0.00000000000E+00 0.  1.
         11    1    3    3    0    0 -0.43726930435E+02  0.44384587362E+02  0.14892571630E+03  0.16143390293E+03  0.00000000000E+00 0. -1.
</event>
<event>
 7    1  0.4274778E-006  0.1110663E+03  0.7561462E-02  0.1258608E+00
         -3   -1    0    0    0  501 -0.00000000000E+00  0.00000000000E+00  0.16699019065E+03  0.16699019065E+03  0.00000000000E+00 0.  1.
          3   -1    0    0  501    0  0.00000000000E+00 -0.00000000000E+00 -0.79192861323E+02  0.79192861323E+02  0.00000000000E+00 0. -1.
         23    2    1    2    0    0  0.33033342419E+02 -0.14895294040E+02  0.23696449375E+02  0.10103187262E+03  0.91284424062E+02 0.  0.
          5    1    1    2  502    0 -0.35142835636E+02  0.67330370506E+02  0.26865235887E+02  0.80669765020E+02  0.41800000000E+01 0.  1.
         -5    1    1    2    0  502  0.21094932169E+01 -0.52435076466E+02  0.37235644068E+02  0.64481414336E+02  0.41800000000E+01 0.  1.
        -11    1    3    3    0    0  0.58676933793E+02 -0.27555978580E+02  0.30489496919E+02  0.71637447869E+02  0.00000000000E+00 0.  1.
         11    1    3    3    0    0 -0.25643591373E+02  0.12660684540E+02 -0.67930475443E+01  0.29394424752E+02  0.00000000000E+00 0. -1.
</event>
<event>
 7    1  0.4274778E-006  0.8773702E+02  0.7561462E-02  0.1308426E+00
          2   -1    0    0  501    0  0.00000000000E+00  0.00000000000E+00  0.48673592192E+02  0.48673592192E+02  0.00000000000E+00 0. -1.
         -2   -1    0    0    0  501 -0.00000000000E+00 -0.00000000000E+00 -0.24405231223E+03  0.24405231223E+03  0.00000000000E+00 0.  1.
         23    2    1    2    0    0  0.82038898973E+01 -0.70126435750E+01 -0.70414975488E+02  0.11558147489E+03  0.91018281597E+02 0.  0.
          5    1    1    2  502    0 -0.17790121754E+02  0.45710157898E+02 -0.12780511732E+03  0.13695812272E+03  0.41800000000E+01 0.  1.
         -5    1    1    2    0  502  0.95862318569E+01 -0.38697514323E+02  0.28413727672E+01  0.40186306813E+02  0.41800000000E+01 0.  1.
        -11    1    3    3    0    0 -0.31806353672E+02 -0.26738115309E+02 -0.14404856178E+02  0.43978072101E+02  0.00000000000E+00 0. -1.
         11    1    3    3    0    0  0.40010243569E+02  0.19725471734E+02 -0.56010119309E+02  0.71603402787E+02  0.00000000000E+00 0.  1.
</event>
<event>
 7    1  0.4274778E-006  0.2294571E+03  0.7561462E-02  0.1127022E+00
         -1   -1    0    0    0  501 -0.00000000000E+00  0.00000000000E+00  0.47579115169E+02  0.47579115169E+02  0.00000000000E+00 0.  1.
          1   -1    0    0  501    0  0.00000000000E+00 -0.00000000000E+00 -0.11945631849E+04  0.11945631849E+04  0.00000000000E+00 0. -1.
         23    2    1    2    0    0  0.16023538788E+02 -0.20990430906E+03 -0.49605101628E+03  0.54667330850E+03  0.92024576739E+02 0.  0.
          5    1    1    2  502    0  0.42536270606E+02  0.63952789336E+02 -0.31900660291E+03  0.32814932375E+03  0.41800000000E+01 0.  1.
         -5    1    1    2    0  502 -0.58559809394E+02  0.14595151972E+03 -0.33192645052E+03  0.36731966778E+03  0.41800000000E+01 0.  1.
        -11    1    3    3    0    0  0.48073747412E+02 -0.12597051457E+03 -0.23950057519E+03  0.27484574082E+03  0.00000000000E+00 0.  1.
         11    1    3    3    0    0 -0.32050208624E+02 -0.83933794490E+02 -0.25655044109E+03  0.27182756768E+03  0.00000000000E+00 0. -1.
</event>
<event>
 7    1  0.4274778E-006  0.1225194E+03  0.7561462E-02  0.1238998E+00
         -2   -1    0    0    0  501 -0.00000000000E+00  0.00000000000E+00  0.29282317190E+02  0.29282317190E+02  0.00000000000E+00 0.  1.
          2   -1    0    0  501    0  0.00000000000E+00 -0.00000000000E+00 -0.60815701714E+03  0.60815701714E+03  0.00000000000E+00 0. -1.
         23    2    1    2    0    0  0.63845769068E+02 -0.45696817469E+02 -0.24176459609E+03  0.26939485042E+03  0.89213138912E+02 0.  0.
          5    1    1    2  502    0 -0.63092311507E+02  0.82429050286E+02 -0.29069513042E+03  0.30870101935E+03  0.41800000000E+01 0.  1.
         -5    1    1    2    0  502 -0.75345756075E+00 -0.36732232817E+02 -0.46414973444E+02  0.59343464559E+02  0.41800000000E+01 0.  1.
        -11    1    3    3    0    0  0.27424533442E+02  0.16567057875E+02 -0.24109120034E+02  0.40097657163E+02  0.00000000000E+00 0.  1.
         11    1    3    3    0    0  0.36421235626E+02 -0.62263875344E+02 -0.21765547606E+03  0.22929719326E+03  0.00000000000E+00 0. -1.
</event>
<event>
 7    1  0.4274778E-006  0.1453628E+03  0.7561462E-02  0.1206290E+00
         -3   -1    0    0    0  501 -0.00000000000E+00  0.00000000000E+00  0.36942545518E+03  0.36942545518E+03  0.00000000000E+00 0.  1.
          3   -1    0    0  501    0  0.00000000000E+00 -0.00000000000E+00 -0.13458269030E+03  0.13458269030E+03  0.00000000000E+00 0. -1.
         23    2    1    2    0    0 -0.92315457266E+02 -0.92849942980E+02 -0.50942405044E+02  0.16568315687E+03  0.87820978568E+02 0.  0.
          5    1    1    2  502    0  0.36762648703E+02  0.55705110394E+01  0.34186426504E+01  0.37572362854E+02  0.41800000000E+01 0. -1.
         -5    1    1    2    0  502  0.55552808563E+02  0.87279431941E+02  0.28236652727E+03  0.30075262576E+03  0.41800000000E+01 0. -1.
        -11    1    3    3    0    0 -0.35136137611E+02 -0.85093697298E+02 -0.56003873824E+02  0.10775861622E+03  0.00000000000E+00 0. -1.
         11    1    3    3    0    0 -0.57179319655E+02 -0.77562456817E+01  0.50614687798E+01  0.57924540650E+02  0.00000000000E+00 0.  1.
</event>
<event>
 7    1  0.4274778E-006  0.9682974E+02  0.7561462E-02  0.1287107E+00
          3   -1    0    0  501    0  0.00000000000E+00  0.00000000000E+00  0.50171309477E+02  0.50171309477E+02  0.00000000000E+00 0. -1.
         -3   -1    0    0    0  501 -0.00000000000E+00 -0.00000000000E+00 -0.26923904347E+03  0.26923904347E+03  0.00000000000E+00 0.  1.
         23    2    1    2    0    0 -0.31235467362E+02  0.21100982065E+02 -0.89028196993E+02  0.13508995388E+03  0.94352371005E+02 0.  0.
          5    1    1    2  502    0  0.57429683342E+02  0.24564486115E+01 -0.13658366563E+03  0.14824565014E+03  0.41800000000E+01 0. -1.
         -5    1    1    2    0  502 -0.26194215979E+02 -0.23557430676E+02  0.65441286260E+01  0.36074748929E+02  0.41800000000E+01 0. -1.
        -11    1    3    3    0    0 -0.50139959109E+02 -0.21029789233E+02 -0.57740033990E+02  0.79310649095E+02  0.00000000000E+00 0.  1.
         11    1    3    3    0    0  0.18904491746E+02  0.42130771298E+02 -0.31288163003E+02  0.55779304786E+02  0.00000000000E+00 0. -1.
</event>
<event>
 7    1  0.4274778E-006  0.6496672E+02  0.7561462E-02  0.1378097E+00
         -4   -1    0    0    0  501 -0.00000000000E+00  0.00000000000E+00  0.11222591515E+03  0.11222591515E+03  0.00000000000E+00 0.  1.
          4   -1    0    0  501    0  0.00000000000E+00 -0.00000000000E+00 -0.11286017762E+03  0.11286017762E+03  0.00000000000E+00 0. -1.
         23    2    1    2    0    0 -0.15256468216E+02 -0.99558841216E+01 -0.22757774724E+02  0.96749195438E+02  0.92252973157E+02 0.  0.
          5    1    1    2  502    0 -0.15181518193E+02  0.42951802763E+02 -0.33525434008E+02  0.56716514179E+02  0.41800000000E+01 0. -1.
         -5    1    1    2    0  502  0.30437986409E+02 -0.32995918641E+02  0.55648946257E+02  0.71620383154E+02  0.41800000000E+01 0. -1.
        -11    1    3    3    0    0  0.10422517265E+02 -0.83802269586E+01  0.32855634989E+02  0.35473226814E+02  0.00000000000E+00 0.  1.
         11    1    3    3    0    0 -0.25678985481E+02 -0.15756571630E+01 -0.55613409714E+02  0.61275968624E+02  0.00000000000E+00 0. -1.
</event>
<event>
 7    1  0.4274778E-006  0.1357863E+03  0.7561462E-02  0.1219114E+00
         -1   -1    0    0    0  501 -0.00000000000E+00  0.00000000000E+00  0.18247969526E+03  0.18247969526E+03  0.00000000000E+00 0.  1.
          1   -1    0    0  501    0  0.00000000000E+00 -0.00000000000E+00 -0.12996002018E+03  0.12996002018E+03  0.00000000000E+00 0. -1.
         23    2    1    2    0    0  0.59606869402E+01 -0.94211669763E+02 -0.28541878028E+02  0.13600074504E+03  0.93649321090E+02 0.  0.
          5    1    1    2  502    0  0.47390768138E+02  0.57997417472E+02  0.29595361142E+01  0.75072075981E+02  0.41800000000E+01 0. -1.
         -5    1    1    2    0  502 -0.53351455078E+02  0.36214252291E+02  0.78102016986E+02  0.10136689442E+03  0.41800000000E+01 0. -1.
        -11    1    3    3    0    0  0.39587979752E+02 -0.89656640747E+02 -0.28495828105E+02  0.10206631957E+03  0.00000000000E+00 0. -1.
         11    1    3    3    0    0 -0.33627292812E+02 -0.45550290156E+01 -0.46049922651E-01  0.33934425467E+02  0.00000000000E+00 0.  1.
</event>
<event>
 7    1  0.4274778E-006  0.9786094E+02  0.7561462E-02  0.1284859E+00
          1   -1    0    0  501    0  0.00000000000E+00  0.00000000000E+00  0.12122408320E+02  0.12122408320E+02  0.00000000000E+00 0. -1.
         -1   -1    0    0    0  501 -0.00000000000E+00 -0.00000000000E+00 -0.13737792164E+04  0.13737792164E+04  0.00000000000E+00 0.  1.
         23    2    1    2    0    0 -0.25307187330E+02 -0.42053071468E+02 -0.29003208655E+03  0.30588807591E+03  0.83904643532E+02 0.  0.
          5    1    1    2  502    0  0.43901121515E+02  0.63772190464E+02 -0.99668247587E+03  0.99969376854E+03  0.41800000000E+01 0.  1.
         -5    1    1    2    0  502 -0.18593934185E+02 -0.21719118996E+02 -0.74942245679E+02  0.80319780290E+02  0.41800000000E+01 0.  1.
        -11    1    3    3    0    0  0.22674514076E+02 -0.33655000801E+02 -0.19410831602E+03  0.19830489408E+03  0.00000000000E+00 0.  1.
         11    1    3    3    0    0 -0.47981701406E+02 -0.83980706674E+01 -0.95923770531E+02  0.10758318183E+03  0.00000000000E+00 0. -1.
</event>
<event>
 7    1  0.4274778E-006  0.1143571E+03  0.7561462E-02  0.1252707E+00
          2   -1    0    0  501    0  0.00000000000E+00  0.00000000000E+00  0.65096293933E+03  0.65096293933E+03  0.00000000000E+00 0. -1.
         -2   -1    0    0    0  501 -0.00000000000E+00 -0.00000000000E+00 -0.31447051716E+02  0.31447051716E+02  0.00000000000E+00 0.  1.
         23    2    1    2    0    0 -0.85804512450E+02  0.40993929367E+02  0.29215614117E+03  0.31929281124E+03  0.86889423337E+02 0.  0.
          5    1    1    2  502    0  0.53599782469E+02 -0.32431775981E+01  0.30287422222E+03  0.30762594456E+03  0.41800000000E+01 0.  1.
         -5    1    1    2    0  502  0.32204729981E+02 -0.37750751769E+02  0.24485524231E+02  0.55491235246E+02  0.41800000000E+01 0.  1.
        -11    1    3    3    0    0  0.84131047048E+01  0.28860063864E+02  0.10763756413E+03  0.11175656056E+03  0.00000000000E+00 0.  1.
         11    1    3    3    0    0 -0.94217617155E+02  0.12133865503E+02  0.18451857704E+03  0.20753625068E+03  0.00000000000E+00 0. -1.
</event>
<event>
 7    1  0.4274778E-006  0.1545606E+03  0.7561462E-02  0.1194978E+00
          1   -1    0    0  501    0  0.00000000000E+00  0.00000000000E+00  0.13069681888E+03  0.13069681888E+03  0.00000000000E+00 0. -1.
         -1   -1    0    0    0  501 -0.00000000000E+00 -0.00000000000E+00 -0.28142657535E+03  0.28142657535E+03  0.00000000000E+00 0.  1.
         23    2    1    2    0    0  0.21103847032E+02 -0.13072616405E+03 -0.71752415883E+01  0.15847825882E+03  0.86770802120E+02 0.  0.
          5    1    1    2  502    0  0.28174762129E+02  0.38363628251E+02  0.25951466638E+02  0.54374039893E+02  0.41800000000E+01 0. -1.
         -5    1    1    2    0  502 -0.49278609162E+02  0.92362535797E+02 -0.16950598151E+03  0.19927109552E+03  0.41800000000E+01 0.  1.
        -11    1    3    3    0    0  0.10631028302E+02 -0.14129316956E+03 -0.13454415459E+02  0.14232989785E+03  0.00000000000E+00 0. -1.
         11    1    3    3    0    0  0.10472818730E+02  0.10567005509E+02  0.62791738709E+01  0.16148360972E+02  0.00000000000E+00 0.  1.
</event>
<event>
 7    1  0.4274778E-006  0.1297782E+03  0.7561462E-02  0.1227785E+00
         -2   -1    0    0    0  501 -0.00000000000E+00  0.00000000000E+00  0.33486881152E+02  0.33486881152E+02  0.00000000000E+00 0.  1.
          2   -1    0    0  501    0  0.00000000000E+00 -0.00000000000E+00 -0.62242928018E+03  0.62242928018E+03  0.00000000000E+00 0. -1.
         23    2    1    2    0    0  0.53672426846E+02 -0.58378377947E+02 -0.38776112917E+03  0.40609774228E+03  0.90928095615E+02 0.  0.
          5    1    1    2  502    0  0.33073153543E+02  0.38735640053E+02 -0.37158779242E+02  0.63186474584E+02  0.41800000000E+01 0. -1.
         -5    1    1    2    0  502 -0.86745580389E+02  0.19642737894E+02 -0.16402249061E+03  0.18663194447E+03  0.41800000000E+01 0. -1.
        -11    1    3    3    0    0 -0.13406413905E+02  0.14915762582E+02 -0.45875052546E+02  0.50067278270E+02  0.00000000000E+00 0.  1.
         11    1    3    3    0    0  0.67078840751E+02 -0.73294140530E+02 -0.34188607663E+03  0.35603046401E+03  0.00000000000E+00 0. -1.
</event>
<event>
 7    1  0.4274778E-006  0.1056755E+03  0.7561462E-02  0.1268794E+00
          1   -1    0    0  501    0  0.00000000000E+00  0.00000000000E+00  0.39127158489E+03  0.39127158489E+03  0.00000000000E+00 0. -1.
         -1   -1    0    0    0  501 -0.00000000000E+00 -0.00000000000E+00 -0.36055016870E+02  0.36055016870E+02  0.00000000000E+00 0.  1.
         23    2    1    2    0    0 -0.20358583566E+02  0.75361396247E+01  0.24196805338E+03  0.26033348113E+03  0.93561301897E+02 0.  0.
          5    1    1    2  502    0  0.43352577896E+02  0.44898334170E+02  0.76556133216E+02  0.98861622253E+02  0.41800000000E+01 0. -1.
         -5    1    1    2    0  502 -0.22993994330E+02 -0.52434473794E+02  0.36692381426E+02  0.68131498384E+02  0.41800000000E+01 0.  1.
        -11    1    3    3    0    0 -0.59358697126E+01 -0.40656329035E+02  0.70089291491E+02  0.81244571644E+02  0.00000000000E+00 0.  1.
         11    1    3    3    0    0 -0.14422713854E+02  0.48192468660E+02  0.17187876189E+03  0.17908890948E+03  0.00000000000E+00 0. -1.
</event>
<event>
 7    1  0.4274778E-006  0.1164530E+03  0.7561462E-02  0.1249066E+00
         -3   -1    0    0    0  501 -0.00000000000E+00  0.00000000000E+00  0.78981080194E+02  0.78981080194E+02  0.00000000000E+00 0.  1.
          3   -1    0    0  501    0  0.00000000000E+00 -0.00000000000E+00 -0.17662783915E+03  0.17662783915E+03  0.00000000000E+00 0. -1.
         23    2    1    2    0    0 -0.40942221425E+02  0.11611543844E+02 -0.47498618937E+02  0.11428640093E+03  0.94837593759E+02 0.  0.
          5    1    1    2  502    0 -0.80841563308E+01 -0.60425652056E+02 -0.12232351329E+02  0.62319465891E+02  0.41800000000E+01 0. -1.
         -5    1    1    2    0  502  0.49026377756E+02  0.48814108211E+02 -0.37915788689E+02  0.79003052525E+02  0.41800000000E+01 0. -1.
        -11    1    3    3    0    0  0.12332153418E+02 -0.31581922585E+02 -0.24932712740E+02  0.42084914241E+02  0.00000000000E+00 0. -1.
         11    1    3    3    0    0 -0.53274374843E+02  0.43193466429E+02 -0.22565906197E+02  0.72201486685E+02  0.00000000000E+00 0.  1.
</event>
<event>
 7    1  0.4274778E-006  0.2405196E+03  0.7561462E-02  0.1119447E+00
         -2   -1    0    0    0  501 -0.00000000000E+00  0.00000000000E+00  0.42167834075E+03  0.42167834075E+03  0.00000000000E+00 0.  1.
          2   -1    0    0  501    0  0.00000000000E+00 -0.00000000000E+00 -0.28652952852E+03  0.28652952852E+03  0.00000000000E+00 0. -1.
         23    2    1    2    0    0 -0.66211784591E+02 -0.22602803850E+03 -0.16866073427E+03  0.30395455298E+03  0.92028541128E+02 0.  0.
          5    1    1    2  502    0  0.41325952348E+02  0.21259422408E+03  0.19401441669E+03  0.29079753220E+03  0.41800000000E+01 0.  1.
         -5    1    1    2    0  502  0.24885832244E+02  0.13433814420E+02  0.10979512982E+03  0.11345578411E+03  0.41800000000E+01 0.  1.
        -11    1    3    3    0    0 -0.37255455943E+02 -0.14778453310E+03 -0.53035466417E+02  0.16137223404E+03  0.00000000000E+00 0. -1.
         11    1    3    3    0    0 -0.28956328648E+02 -0.78243505399E+02 -0.11562526786E+03  0.14258231893E+03  0.00000000000E+00 0.  1.
</event>
<event>
 7    1  0.4274778E-006  0.2611281E+03  0.7561462E-02  0.1106467E+00
          2   -1    0    0  501    0  0.00000000000E+00  0.00000000000E+00  0.46644899194E+03  0.46644899194E+03  0.00000000000E+00 0. -1.
         -2   -1    0    0    0  501 -0.00000000000E+00 -0.00000000000E+00 -0.16661853426E+03  0.16661853426E+03  0.00000000000E+00 0.  1.
         23    2    1    2    0    0 -0.24901735620E+03 -0.58582794876E+02  0.15800990459E+03  0.31494464123E+03  0.93709175360E+02 0.  0.
          5    1    1    2  502    0  0.31834747491E+02 -0.15818287895E+02 -0.16304029760E+02  0.39331452632E+02  0.41800000000E+01 0. -1.
         -5    1    1    2    0  502  0.21718260871E+03  0.74401082771E+02  0.15812458285E+03  0.27879143234E+03  0.41800000000E+01 0. -1.
        -11    1    3    3    0    0 -0.71593160966E+02 -0.62227498143E+01  0.31594512659E+00  0.71863781793E+02  0.00000000000E+00 0.  1.
         11    1    3    3    0    0 -0.17742419524E+03 -0.52360045062E+02  0.15769395946E+03  0.24308085944E+03  0.00000000000E+00 0. -1.
</event>
<event>
 7    1  0.4274778E-006  0.1635715E+03  0.7561462E-02  0.1184723E+00
          2   -1    0    0  501    0  0.00000000000E+00  0.00000000000E+00  0.30652344458E+03  0.30652344458E+03  0.00000000000E+00 0. -1.
         -2   -1    0    0    0  501 -0.00000000000E+00 -0.00000000000E+00 -0.12341588700E+03  0.12341588700E+03  0.00000000000E+00 0.  1.
         23    2    1    2    0    0  0.78970819039E+00 -0.12886992899E+03  0.19383330915E+03  0.25001954568E+03  0.91270692156E+02 0.  0.
          5    1    1    2  502    0  0.44900914185E+02  0.29994148489E+01 -0.81460566056E+01  0.45922970530E+02  0.41800000000E+01 0. -1.
         -5    1    1    2    0  502 -0.45690622376E+02  0.12587051414E+03 -0.25796949722E+01  0.13399681537E+03  0.41800000000E+01 0. -1.
        -11    1    3    3    0    0 -0.10128346889E+02  0.65858463968E+01 -0.13834709294E+01  0.12160212798E+02  0.00000000000E+00 0.  1.
         11    1    3    3    0    0  0.10918055080E+02 -0.13545577539E+03  0.19521678008E+03  0.23785933288E+03  0.00000000000E+00 0. -1.
</event>
<event>
 7    1  0.4274778E-006  0.1599607E+03  0.7561462E-02  0.1188741E+00
         -2   -1    0    0    0  501 -0.00000000000E+00  0.00000000000E+00  0.85566969008E+03  0.85566969008E+03  0.00000000000E+00 0.  1.
          2   -1    0    0  501    0  0.00000000000E+00 -0.00000000000E+00 -0.76406672473E+02  0.76406672473E+02  0.00000000000E+00 0. -1.
         23    2    1    2    0    0 -0.61909301300E+02  0.14566479576E+03  0.70109638109E+02  0.19479109914E+03  0.89315265406E+02 0.  0.
          5    1    1    2  502    0  0.32746283476E+02 -0.92739056176E+02  0.62984358214E+03  0.63748981324E+03  0.41800000000E+01 0.  1.
         -5    1    1    2    0  502  0.29163017824E+02 -0.52925739586E+02  0.79309797362E+02  0.99795450181E+02  0.41800000000E+01 0.  1.
        -11    1    3    3    0    0 -0.15157766836E+02  0.72610384808E+02  0.78075140559E+02  0.10769286630E+03  0.00000000000E+00 0.  1.
         11    1    3    3    0    0 -0.46751534464E+02  0.73054410954E+02 -0.79655024507E+01  0.87098232840E+02  0.00000000000E+00 0. -1.
</event>
<event>
 7    1  0.4274778E-006  0.9907973E+02  0.7561462E-02  0.1282243E+00
          3   -1    0    0  501    0  0.00000000000E+00  0.00000000000E+00  0.10829603397E+03  0.10829603397E+03  0.00000000000E+00 0. -1.
         -3   -1    0    0    0  501 -0.00000000000E+00 -0.00000000000E+00 -0.13348836984E+03  0.13348836984E+03  0.00000000000E+00 0.  1.
         23    2    1    2    0    0 -0.13099574420E+02  0.50067488172E+02 -0.25018150160E+01  0.10452250338E+03  0.90776331787E+02 0.  0.
          5    1    1    2  502    0 -0.36868432034E+02 -0.46890864800E+02 -0.51871824128E+02  0.79159288910E+02  0.41800000000E+01 0.  1.
         -5    1    1    2    0  502  0.49968006453E+02 -0.31766233721E+01  0.29181303278E+02  0.58102611525E+02  0.41800000000E+01 0.  1.
        -11    1    3    3    0    0  0.19473274518E+02 -0.83878064094E+01 -0.26044580277E+02  0.33583982472E+02  0.00000000000E+00 0.  1.
         11    1    3    3    0    0 -0.32572848938E+02  0.58455294582E+02  0.23542765261E+02  0.70938520909E+02  0.00000000000E+00 0. -1.
</event>
<event>
 7    1  0.4274778E-006  0.1021129E+03  0.7561462E-02  0.1275915E+00
          2   -1    0    0  501    0  0.00000000000E+00  0.00000000000E+00  0.99122121623E+03  0.99122121623E+03  0.00000000000E+00 0. -1.
         -2   -1    0    0    0  501 -0.00000000000E+00 -0.00000000000E+00 -0.17940471276E+02  0.17940471276E+02  0.00000000000E+00 0.  1.
         23    2    1    2    0    0  0.61581796387E+02 -0.27837993082E+02  0.29939600248E+03  0.32044155985E+03  0.92073641570E+02 0.  0.
          5    1    1    2  502    0 -0.69092436343E+02  0.36127867878E+02  0.67213025309E+03  0.67665023248E+03  0.41800000000E+01 0.  1.
         -5    1    1    2    0  502  0.75106399559E+01 -0.82898747956E+01  0.17544893884E+01  0.12069895181E+02  0.41800000000E+01 0.  1.
        -11    1    3    3    0    0 -0.19334557331E+02 -0.27093053603E+02  0.85374845418E+02  0.91633634059E+02  0.00000000000E+00 0. -1.
         11    1    3    3    0    0  0.80916353718E+02 -0.74493947915E+00  0.21402115706E+03  0.22880792579E+03  0.00000000000E+00 0.  1.
</event>
<event>
 7    1  0.4274778E-006  0.1329806E+03  0.7561462E-02  0.1223099E+00
          2   -1    0    0  501    0  0.00000000000E+00  0.00000000000E+00  0.61471661339E+03  0.61471661339E+03  0.00000000000E+00 0. -1.
         -2   -1    0    0    0  501 -0.00000000000E+00 -0.00000000000E+00 -0.36641069462E+02  0.36641069462E+02  0.00000000000E+00 0.  1.
         23    2    1    2    0    0  0.64030305382E+02  0.41141705058E+02  0.41474789270E+03  0.43200308644E+03  0.93905975805E+02 0.  0.
          5    1    1    2  502    0 -0.79088256804E+02  0.21225688922E+02  0.96228911825E+02  0.12642372446E+03  0.41800000000E+01 0.  1.
         -5    1    1    2    0  502  0.15057951422E+02 -0.62367393980E+02  0.67098739405E+02  0.92930871956E+02  0.41800000000E+01 0.  1.
        -11    1    3    3    0    0  0.79990626781E+02  0.56176076320E+02  0.35983175715E+03  0.37287148641E+03  0.00000000000E+00 0.  1.
         11    1    3    3    0    0 -0.15960321398E+02 -0.15034371263E+02  0.54916135550E+02  0.59131600031E+02  0.00000000000E+00 0. -1.
</event>
<event>
 7    1  0.4274778E-006  0.6703222E+02  0.7561462E-02  0.1370486E+00
         -1   -1    0    0    0  501 -0.00000000000E+00  0.00000000000E+00  0.42638560168E+02  0.42638560168E+02  0.00000000000E+00 0.  1.
          1   -1    0    0  501    0  0.00000000000E+00 -0.00000000000E+00 -0.34338039799E+03  0.34338039799E+03  0.00000000000E+00 0. -1.
         23    2    1    2    0    0 -0.52119374443E+02 -0.45981544794E+01 -0.14830426471E+03  0.18199924075E+03  0.91607840735E+02 0.  0.
          5    1    1    2  502    0  0.20073885692E+02  0.94874032827E+01 -0.16679673118E+03  0.16831991456E+03  0.41800000000E+01 0. -1.
         -5    1    1    2    0  502  0.32045488751E+02 -0.48892488033E+01  0.14359158064E+02  0.35699802849E+02  0.41800000000E+01 0. -1.
        -11    1    3    3    0    0 -0.33774954072E+02  0.26331376540E+02 -0.17366967093E+02  0.46213639319E+02  0.00000000000E+00 0.  1.
         11    1    3    3    0    0 -0.18344420371E+02 -0.30929531019E+02 -0.13093729762E+03  0.13578560143E+03  0.00000000000E+00 0. -1.
</event>
<event>
 6    1  0.4274778E-006  0.1835138E+03  0.7561462E-02  0.1164445E+00
          1   -1    0    0  501    0  0.00000000000E+00  0.00000000000E+00  0.27760213398E+03  0.27760213398E+03  0.00000000000E+00 0. -1.
         -1   -1    0    0    0  501 -0.00000000000E+00 -0.00000000000E+00 -0.13486708153E+03  0.13486708153E+03  0.00000000000E+00 0.  1.
          5    1    1    2  502    0 -0.15475222359E+03 -0.58456594215E+01  0.35174063268E+02  0.15886191982E+03  0.41800000000E+01 0.  1.
         -5    1    1    2    0  502 -0.24641368457E+01  0.44482585781E+02 -0.13839380584E+02  0.46837733326E+02  0.41800000000E+01 0.  1.
        -11    1    1    2    0    0  0.50036459476E+02  0.76438152058E+01  0.35387950886E+02  0.61760685356E+02  0.00000000000E+00 0. -1.
         11    1    1    2    0    0  0.10717990096E+03 -0.46280741566E+02  0.86012418878E+02  0.14500887701E+03  0.00000000000E+00 0.  1.
</event>
<event>
 7    1  0.4274778E-006  0.1665618E+03  0.7561462E-02  0.1181482E+00
          1   -1    0    0  501    0  0.00000000000E+00  0.00000000000E+00  0.41629424302E+03  0.41629424302E+03  0.00000000000E+00 0. -1.
         -1   -1    0    0    0  501 -0.00000000000E+00 -0.00000000000E+00 -0.86549020459E+02  0.86549020459E+02  0.00000000000E+00 0.  1.
         23    2    1    2    0    0 -0.31048386996E+00 -0.14362211346E+03  0.23722830111E+03  0.29109989619E+03  0.88512568808E+02 0.  0.
          5    1    1    2  502    0  0.39514234474E+02  0.14446125075E+03  0.63226620422E+02  0.16262074168E+03  0.41800000000E+01 0.  1.
         -5    1    1    2    0  502 -0.39203750604E+02 -0.83913729428E+00  0.29290301031E+02  0.49122625615E+02  0.41800000000E+01 0.  1.
        -11    1    3    3    0    0 -0.32619566878E+01 -0.26063779726E+02  0.12778194038E+03  0.13045376676E+03  0.00000000000E+00 0. -1.
         11    1    3    3    0    0  0.29514728178E+01 -0.11755833373E+03  0.10944636073E+03  0.16064612942E+03  0.00000000000E+00 0.  1.
</event>
<event>
 7    1  0.4274778E-006  0.1229140E+03  0.7561462E-02  0.1238366E+00
          2   -1    0    0  501    0  0.00000000000E+00  0.00000000000E+00  0.60397663236E+02  0.60397663236E+02  0.00000000000E+00 0. -1.
         -2   -1    0    0    0  501 -0.00000000000E+00 -0.00000000000E+00 -0.37583500839E+03  0.37583500839E+03  0.00000000000E+00 0.  1.
         23    2    1    2    0    0 -0.96090404023E+02 -0.39553318763E+01 -0.90492764291E+02  0.16146761823E+03  0.92918464006E+02 0.  0.
          5    1    1    2  502    0  0.96614281099E+02 -0.10505582562E+02 -0.71852018443E+02  0.12093333507E+03  0.41800000000E+01 0.  1.
         -5    1    1    2    0  502 -0.52387707593E+00  0.14460914439E+02 -0.15309256242E+03  0.15383171832E+03  0.41800000000E+01 0.  1.
        -11    1    3    3    0    0 -0.55370750229E+02  0.43896711423E+02 -0.52659628414E+02  0.88124217553E+02  0.00000000000E+00 0.  1.
         11    1    3    3    0    0 -0.40719653794E+02 -0.47852043299E+02 -0.37833135877E+02  0.73343400680E+02  0.00000000000E+00 0. -1.
</event>
<event>
 7    1  0.4274778E-006  0.9006820E+02  0.7561462E-02  0.1302687E+00
         -2   -1    0    0    0  501 -0.00000000000E+00  0.00000000000E+00  0.46419180033E+02  0.46419180033E+02  0.00000000000E+00 0.  1.
          2   -1    0    0  501    0  0.00000000000E+00 -0.00000000000E+00 -0.41843007894E+03  0.41843007894E+03  0.00000000000E+00 0. -1.
         23    2    1    2    0    0 -0.40122871418E+02  0.49212147874E+02 -0.26846105847E+03  0.29048557533E+03  0.90988181937E+02 0.  0.
          5    1    1    2  502    0  0.36319683538E+02  0.22849292374E+02  0.55740920588E+01  0.43471283356E+02  0.41800000000E+01 0.  1.
         -5    1    1    2    0  502  0.38031878797E+01 -0.72061440248E+02 -0.10912393249E+03  0.13089240028E+03  0.41800000000E+01 0.  1.
        -11    1    3    3    0    0 -0.31008878174E+01  0.11433465693E+02  0.43304527463E+01  0.12613186116E+02  0.00000000000E+00 0.  1.
         11    1    3    3    0    0 -0.37021983600E+02  0.37778682181E+02 -0.27279151122E+03  0.27787238922E+03  0.00000000000E+00 0. -1.
</event>
<event>
 7    1  0.4274778E-006  0.1137453E+03  0.7561462E-02  0.1253787E+00
          1   -1    0    0  501    0  0.00000000000E+00  0.00000000000E+00  0.45863607368E+03  0.45863607368E+03  0.00000000000E+00 0. -1.
         -1   -1    0    0    0  501 -0.00000000000E+00 -0.00000000000E+00 -0.40597001970E+02  0.40597001970E+02  0.00000000000E+00 0.  1.
         23    2    1    2    0    0 -0.32509441665E+02 -0.50318028003E+02  0.28991245040E+03  0.31041447020E+03  0.93376371089E+02 0.  0.
          5    1    1    2  502    0  0.67286157046E+02 -0.35983767423E+01  0.94847758906E+02  0.11642141132E+03  0.41800000000E+01 0.  1.
         -5    1    1    2    0  502 -0.34776715380E+02  0.53916404745E+02  0.33278862405E+02  0.72397194119E+02  0.41800000000E+01 0.  1.
        -11    1    3    3    0    0  0.22076891874E+02 -0.97086454756E+00  0.17355446801E+02  0.28098812545E+02  0.00000000000E+00 0.  1.
         11    1    3    3    0    0 -0.54586333540E+02 -0.49347163456E+02  0.27255700359E+03  0.28231565766E+03  0.00000000000E+00 0. -1.
</event>
<event>
 7    1  0.4274778E-006  0.1174256E+03  0.7561462E-02  0.1247405E+00
          2   -1    0    0  501    0  0.00000000000E+00  0.00000000000E+00  0.15846591462E+03  0.15846591462E+03  0.00000000000E+00 0. -1.
         -2   -1    0    0    0  501 -0.00000000000E+00 -0.00000000000E+00 -0.11816215181E+03  0.11816215181E+03  0.00000000000E+00 0.  1.
         23    2    1    2    0    0  0.56959391500E+01 -0.72738300339E+02  0.72978924667E+02  0.13711328896E+03  0.90281927900E+02 0.  0.
          5    1    1    2  502    0 -0.32840505909E+01  0.10220734019E+03 -0.11676969126E+02  0.10300946260E+03  0.41800000000E+01 0. -1.
         -5    1    1    2    0  502 -0.24118885591E+01 -0.29469039851E+02 -0.20998192727E+02  0.36505314873E+02  0.41800000000E+01 0.  1.
        -11    1    3    3    0    0  0.38567950698E+02 -0.47588036385E+02  0.73553647234E+02  0.95719627295E+02  0.00000000000E+00 0. -1.
         11    1    3    3    0    0 -0.32872011548E+02 -0.25150263955E+02 -0.57472256713E+00  0.41393661667E+02  0.00000000000E+00 0.  1.
</event>
<event>
 7    1  0.4274778E-006  0.8672304E+02  0.7561462E-02  0.1310987E+00
          2   -1    0    0  501    0  0.00000000000E+00  0.00000000000E+00  0.93817066367E+02  0.93817066367E+02  0.00000000000E+00 0. -1.
         -2   -1    0    0    0  501 -0.00000000000E+00 -0.00000000000E+00 -0.22031083199E+03  0.22031083199E+03  0.00000000000E+00 0.  1.
         23    2    1    2    0    0 -0.80772860303E+01 -0.44235261347E+01  0.45298992852E+02  0.10142011709E+03  0.90273092696E+02 0.  0.
          5    1    1    2  502    0  0.49467265162E+02  0.23351564693E+02 -0.27536221637E+02  0.61384214569E+02  0.41800000000E+01 0.  1.
         -5    1    1    2    0  502 -0.41389979132E+02 -0.18928038559E+02 -0.14425653683E+03  0.15132356669E+03  0.41800000000E+01 0.  1.
        -11    1    3    3    0    0  0.21171170202E+02 -0.28147079750E+02  0.52360379820E+02  0.63103771052E+02  0.00000000000E+00 0. -1.
         11    1    3    3    0    0 -0.29248456232E+02  0.23723553615E+02 -0.70613869679E+01  0.38316346042E+02  0.00000000000E+00 0.  1.
</event>
<event>
 7    1  0.4274778E-006  0.1075537E+03  0.7561462E-02  0.1265168E+00
          1   -1    0    0  501    0  0.00000000000E+00  0.00000000000E+00  0.45788813260E+02  0.45788813260E+02  0.00000000000E+00 0. -1.
         -1   -1    0    0    0  501 -0.00000000000E+00 -0.00000000000E+00 -0.34205887461E+03  0.34205887461E+03  0.00000000000E+00 0.  1.
         23    2    1    2    0    0 -0.31213992770E+02 -0.51506871716E+02 -0.92361627260E+02  0.14116283343E+03  0.88141954674E+02 0.  0.
          5    1    1    2  502    0  0.58693281673E+02  0.10163126025E+02 -0.32089736606E+02  0.67789483252E+02  0.41800000000E+01 0. -1.
         -5    1    1    2    0  502 -0.27479288903E+02  0.41343745691E+02 -0.17181869748E+03  0.17889537119E+03  0.41800000000E+01 0. -1.
        -11    1    3    3    0    0  0.25495007939E+02 -0.40426552262E+02 -0.52317141082E+02  0.70861730212E+02  0.00000000000E+00 0.  1.
         11    1    3    3    0    0 -0.56709000710E+02 -0.11080319454E+02 -0.40044486177E+02  0.70301103219E+02  0.00000000000E+00 0. -1.
</event>
<event>
 7    1  0.4274778E-006  0.1083590E+03  0.7561462E-02  0.1263639E+00
         -1   -1    0    0    0  501 -0.00000000000E+00  0.00000000000E+00  0.54232446246E+02  0.54232446246E+02  0.00000000000E+00 0.  1.
          1   -1    0    0  501    0  0.00000000000E+00 -0.00000000000E+00 -0.36879761151E+03  0.36879761151E+03  0.00000000000E+00 0. -1.
         23    2    1    2    0    0 -0.26079978192E+02  0.40549055908E+02 -0.25727823603E+03  0.27724716411E+03  0.91375642665E+02 0.  0.
          5    1    1    2  502    0  0.15207661925E+02  0.44927419345E+02 -0.23946787108E+02  0.53297908055E+02  0.41800000000E+01 0. -1.
         -5    1    1    2    0  502  0.10872316267E+02 -0.85476475253E+02 -0.33340142118E+02  0.92484985588E+02  0.41800000000E+01 0. -1.
        -11    1    3    3    0    0  0.21296545705E+02  0.25291055104E+02 -0.30205255072E+02  0.44783230804E+02  0.00000000000E+00 0.  1.
         11    1    3    3    0    0 -0.47376523897E+02  0.15258000804E+02 -0.22707298096E+03  0.23246393331E+03  0.00000000000E+00 0. -1.
</event>
<event>
 7    1  0.4274778E-006  0.8426197E+02  0.7561462E-02  0.1317374E+00
         -1   -1    0    0    0  501 -0.00000000000E+00  0.00000000000E+00  0.85744847725E+03  0.85744847725E+03  0.00000000000E+00 0.  1.
          1   -1    0    0  501    0  0.00000000000E+00 -0.00000000000E+00 -0.17706520025E+02  0.17706520025E+02  0.00000000000E+00 0. -1.
         23    2    1    2    0    0 -0.25610268055E+02  0.50998120412E+02  0.19216475031E+03  0.21314237068E+03  0.72427099916E+02 0.  0.
          5    1    1    2  502    0  0.12917189087E+02 -0.60126611736E+02  0.12684546055E+03  0.14102945251E+03  0.41800000000E+01 0. -1.
         -5    1    1    2    0  502  0.12693078968E+02  0.91284913243E+01  0.52073174637E+03  0.52098317409E+03  0.41800000000E+01 0. -1.
        -11    1    3    3    0    0  0.23489876538E+02  0.27800023467E+02  0.96559219644E+02  0.10319059309E+03  0.00000000000E+00 0.  1.
         11    1    3    3    0    0 -0.49100144593E+02  0.23198096944E+02  0.95605530664E+02  0.10995177759E+03  0.00000000000E+00 0. -1.
</event>
<event>
 7    1  0.4274778E-006  0.1955667E+03  0.7561462E-02  0.1153534E+00
          4   -1    0    0  501    0  0.00000000000E+00  0.00000000000E+00  0.35622503051E+02  0.35622503051E+02  0.00000000000E+00 0. -1.
         -4   -1    0    0    0  501 -0.00000000000E+00 -0.00000000000E+00 -0.11530727777E+04  0.11530727777E+04  0.00000000000E+00 0.  1.
         23    2    1    2    0    0 -0.42445614587E+02  0.16706106322E+03 -0.52016285299E+03  0.55458525526E+03  0.85348595088E+02 0.  0.
          5    1    1    2  502    0 -0.42275919037E+02 -0.36539643275E+02 -0.18994851503E+03  0.19804118164E+03  0.41800000000E+01 0.  1.
         -5    1    1    2    0  502  0.84721533624E+02 -0.13052141994E+03 -0.40733890660E+03  0.43606884382E+03  0.41800000000E+01 0.  1.
        -11    1    3    3    0    0  0.10588554872E+02  0.47080454576E+02 -0.24558481888E+03  0.25028102198E+03  0.00000000000E+00 0.  1.
         11    1    3    3    0    0 -0.53034169459E+02  0.11998060864E+03 -0.27457803411E+03  0.30430423329E+03  0.00000000000E+00 0. -1.
</event>
<event>
 7    1  0.4274778E-006  0.1236601E+03  0.7561462E-02  0.1237178E+00
         -1   -1    0    0    0  501 -0.00000000000E+00  0.00000000000E+00  0.14914156162E+04  0.14914156162E+04  0.00000000000E+00 0.  1.
          1   -1    0    0  501    0  0.00000000000E+00 -0.00000000000E+00 -0.15292148895E+02  0.15292148895E+02  0.00000000000E+00 0. -1.
         23    2    1    2    0    0 -0.47036025458E+01  0.73733798600E+02  0.30375621561E+03  0.32620521835E+03  0.93183737995E+02 0.  0.
          5    1    1    2  502    0 -0.33810543417E+02  0.10913321471E+02  0.16447515788E+03  0.16832053764E+03  0.41800000000E+01 0. -1.
         -5    1    1    2    0  502  0.38514145963E+02 -0.84647120071E+02  0.10078920939E+04  0.10121820091E+04  0.41800000000E+01 0.  1.
        -11    1    3    3    0    0 -0.43337859245E+02  0.10887932839E+02  0.10091540197E+03  0.11036591629E+03  0.00000000000E+00 0.  1.
         11    1    3    3    0    0  0.38634256699E+02  0.62845865761E+02  0.20284081364E+03  0.21583930206E+03  0.00000000000E+00 0. -1.
</event>
<event>
 7    1  0.4274778E-006  0.8755624E+02  0.7561462E-02  0.1308880E+00
          1   -1    0    0  501    0  0.00000000000E+00  0.00000000000E+00  0.40113153263E+03  0.40113153263E+03  0.00000000000E+00 0. -1.
         -1   -1    0    0    0  501 -0.00000000000E+00 -0.00000000000E+00 -0.32041335143E+02  0.32041335143E+02  0.00000000000E+00 0.  1.
         23    2    1    2    0    0  0.28448104217E+02  0.14974956557E+02  0.17587881791E+03  0.20076855593E+03  0.91329680285E+02 0.  0.
          5    1    1    2  502    0  0.22266845347E+02 -0.22583244892E+02 -0.48302776197E+00  0.31992515802E+02  0.41800000000E+01 0.  1.
         -5    1    1    2    0  502 -0.50714949564E+02  0.76082883353E+01  0.19369440734E+03  0.20041179605E+03  0.41800000000E+01 0.  1.
        -11    1    3    3    0    0  0.57328983935E+02 -0.34177539386E+01  0.13924935949E+03  0.15062761221E+03  0.00000000000E+00 0. -1.
         11    1    3    3    0    0 -0.28880879718E+02  0.18392710496E+02  0.36629458422E+02  0.50140943718E+02  0.00000000000E+00 0.  1.
</event>
<event>
 7    1  0.4274778E-006  0.1103782E+03  0.7561462E-02  0.1259871E+00
         -1   -1    0    0    0  501 -0.00000000000E+00  0.00000000000E+00  0.22344939507E+02  0.22344939507E+02  0.00000000000E+00 0.  1.
          1   -1    0    0  501    0  0.00000000000E+00 -0.00000000000E+00 -0.64408012219E+03  0.64408012219E+03  0.00000000000E+00 0. -1.
         23    2    1    2    0    0 -0.18901195298E+02 -0.35830139766E+02 -0.37456714429E+03  0.38645949065E+03  0.86077512972E+02 0.  0.
          5    1    1    2  502    0  0.58374285881E+02 -0.20098808248E+02 -0.13474922014E+03  0.14827792848E+03  0.41800000000E+01 0. -1.
         -5    1    1    2    0  502 -0.39473090583E+02  0.55928948014E+02 -0.11241881826E+03  0.13168764257E+03  0.41800000000E+01 0. -1.
        -11    1    3    3    0    0  0.29944507584E+02 -0.39126682706E+00 -0.72827982984E+02  0.78744788587E+02  0.00000000000E+00 0.  1.
         11    1    3    3    0    0 -0.48845702882E+02 -0.35438872939E+02 -0.30173916130E+03  0.30771470207E+03  0.00000000000E+00 0. -1.
</event>
<event>
 7    1  0.4274778E-006  0.1033957E+03  0.7561462E-02  0.1273313E+00
         -1   -1    0    0    0  501 -0.00000000000E+00  0.00000000000E+00  0.14399699904E+03  0.14399699904E+03  0.00000000000E+00 0.  1.
          1   -1    0    0  501    0  0.00000000000E+00 -0.00000000000E+00 -0.10762134943E+03  0.10762134943E+03  0.00000000000E+00 0. -1.
         23    2    1    2    0    0 -0.18454020188E+02  0.31681987293E+02  0.42117394915E+01  0.10319819865E+03  0.96373389871E+02 0.  0.
          5    1    1    2  502    0 -0.49699842466E+02  0.24872143423E+02  0.18432494749E+02  0.58702019746E+02  0.41800000000E+01 0. -1.
         -5    1    1    2    0  502  0.68153862653E+02 -0.56554130715E+02  0.13731415375E+02  0.89718130073E+02  0.41800000000E+01 0.  1.
        -11    1    3    3    0    0  0.17650851928E+02  0.10438481293E+02  0.42027470530E+02  0.46763476610E+02  0.00000000000E+00 0.  1.
         11    1    3    3    0    0 -0.36104872116E+02  0.21243506000E+02 -0.37815731039E+02  0.56434722040E+02  0.00000000000E+00 0. -1.
</event>
<event>
 7    1  0.4274778E-006  0.1113856E+03  0.7561462E-02  0.1258025E+00
          1   -1    0    0  501    0  0.00000000000E+00  0.00000000000E+00  0.31617944201E+03  0.31617944201E+03  0.00000000000E+00 0. -1.
         -1   -1    0    0    0  501 -0.00000000000E+00 -0.00000000000E+00 -0.65950812236E+02  0.65950812236E+02  0.00000000000E+00 0.  1.
         23    2    1    2    0    0  0.40073319147E+02  0.63481813196E+02  0.19130940537E+03  0.22478309056E+03  0.91062273756E+02 0.  0.
          5    1    1    2  502    0 -0.23199522140E+01 -0.81218863135E+02 -0.43210253079E+01  0.81474103658E+02  0.41800000000E+01 0.  1.
         -5    1    1    2    0  502 -0.37753366933E+02  0.17737049938E+02  0.63240249712E+02  0.75873060034E+02  0.41800000000E+01 0.  1.
        -11    1    3    3    0    0  0.13395300165E+02  0.70615900519E+02  0.69854260382E+02  0.10022802585E+03  0.00000000000E+00 0.  1.
         11    1    3    3    0    0  0.26678018983E+02 -0.71340873229E+01  0.12145514499E+03  0.12455506470E+03  0.00000000000E+00 0. -1.
</event>
<event>
 7    1  0.4274778E-006  0.1023856E+03  0.7561462E-02  0.1275358E+00
          1   -1    0    0  501    0  0.00000000000E+00  0.00000000000E+00  0.10717108188E+03  0.10717108188E+03  0.00000000000E+00 0. -1.
         -1   -1    0    0    0  501 -0.00000000000E+00 -0.00000000000E+00 -0.12516857166E+03  0.12516857166E+03  0.00000000000E+00 0.  1.
         23    2    1    2    0    0 -0.16255677463E+02 -0.35506310235E+02  0.15867720942E+02  0.96993540671E+02  0.87355693848E+02 0.  0.
          5    1    1    2  502    0  0.62131759098E+02  0.86232814845E+01 -0.49221171318E+02  0.79843049654E+02  0.41800000000E+01 0.  1.
         -5    1    1    2    0  502 -0.45876081635E+02  0.26883028751E+02  0.15355960598E+02  0.55503063221E+02  0.41800000000E+01 0.  1.
        -11    1    3    3    0    0  0.32401522857E+02 -0.16136647667E+02 -0.11398803663E+02  0.37949740531E+02  0.00000000000E+00 0. -1.
         11    1    3    3    0    0 -0.48657200320E+02 -0.19369662568E+02  0.27266524605E+02  0.59043800141E+02  0.00000000000E+00 0.  1.
</event>
<event>
 7    1  0.4274778E-006  0.5519490E+02  0.7561462E-02  0.1419179E+00
          1   -1    0    0  501    0  0.00000000000E+00  0.00000000000E+00  0.97669999015E+02  0.97669999015E+02  0.00000000000E+00 0. -1.
         -1   -1    0    0    0  501 -0.00000000000E+00 -0.00000000000E+00 -0.12184732204E+03  0.12184732204E+03  0.00000000000E+00 0.  1.
         23    2    1    2    0    0  0.12065974029E+02 -0.30224386151E+02  0.78563238998E+01  0.86353265336E+02  0.79599392972E+02 0.  0.
          5    1    1    2  502    0 -0.22624079129E+02  0.70246029935E+01  0.45485524518E+02  0.51454828193E+02  0.41800000000E+01 0.  1.
         -5    1    1    2    0  502  0.10558105100E+02  0.23199783157E+02 -0.77519171444E+02  0.81709227528E+02  0.41800000000E+01 0.  1.
        -11    1    3    3    0    0 -0.17664478144E+02  0.60553551133E+00  0.32459675994E+02  0.36959856967E+02  0.00000000000E+00 0. -1.
         11    1    3    3    0    0  0.29730452172E+02 -0.30829921662E+02 -0.24603352094E+02  0.49393408369E+02  0.00000000000E+00 0.  1.
</event>
<event>
 7    1  0.4274778E-006  0.1252983E+03  0.7561462E-02  0.1234604E+00
         -1   -1    0    0    0  501 -0.00000000000E+00  0.00000000000E+00  0.18065843211E+03  0.18065843211E+03  0.00000000000E+00 0.  1.
          1   -1    0    0  501    0  0.00000000000E+00 -0.00000000000E+00 -0.13271436949E+03  0.13271436949E+03  0.00000000000E+00 0. -1.
         23    2    1    2    0    0  0.98776699289E+02  0.39837322506E+02 -0.12079037997E+02  0.13846139835E+03  0.87645918832E+02 0.  0.
          5    1    1    2  502    0 -0.79766411123E+02 -0.63423599309E+02 -0.59792842117E+01  0.10216876985E+03  0.41800000000E+01 0.  1.
         -5    1    1    2    0  502 -0.19010288166E+02  0.23586276804E+02  0.66002384829E+02  0.72742633391E+02  0.41800000000E+01 0.  1.
        -11    1    3    3    0    0  0.72359194410E+02  0.26511473375E+01  0.28105229391E+02  0.77671008214E+02  0.00000000000E+00 0.  1.
         11    1    3    3    0    0  0.26417504879E+02  0.37186175168E+02 -0.40184267388E+02  0.60790390138E+02  0.00000000000E+00 0. -1.
</event>
<event>
 7    1  0.4274778E-006  0.1365967E+03  0.7561462E-02  0.1217983E+00
         -2   -1    0    0    0  501 -0.00000000000E+00  0.00000000000E+00  0.36836433905E+02  0.36836433905E+02  0.00000000000E+00 0.  1.
          2   -1    0    0  501    0  0.00000000000E+00 -0.00000000000E+00 -0.71817776328E+03  0.71817776328E+03  0.00000000000E+00 0. -1.
         23    2    1    2    0    0 -0.49616484591E+02  0.94196998970E+02 -0.44903425953E+03  0.47049985393E+03  0.91670475916E+02 0.  0.
          5    1    1    2  502    0 -0.91611928216E+01 -0.81513425233E+02 -0.19981965056E+03  0.21604104031E+03  0.41800000000E+01 0.  1.
         -5    1    1    2    0  502  0.58777677413E+02 -0.12683573737E+02 -0.32487419279E+02  0.68473302945E+02  0.41800000000E+01 0.  1.
        -11    1    3    3    0    0 -0.31226375288E+01  0.82872818674E+02 -0.35991216404E+03  0.36934322894E+03  0.00000000000E+00 0. -1.
         11    1    3    3    0    0 -0.46493847063E+02  0.11324180296E+02 -0.89122095493E+02  0.10115662499E+03  0.00000000000E+00 0.  1.
</event>
<event>
 7    1  0.4274778E-006  0.1769832E+03  0.7561462E-02  0.1170755E+00
         -2   -1    0    0    0  501 -0.00000000000E+00  0.00000000000E+00  0.20644997317E+03  0.20644997317E+03  0.00000000000E+00 0.  1.
          2   -1    0    0  501    0  0.00000000000E+00 -0.00000000000E+00 -0.25768146494E+03  0.25768146494E+03  0.00000000000E+00 0. -1.
         23    2    1    2    0    0  0.13170656124E+03 -0.85189753122E+02 -0.15500415146E+03  0.23825754074E+03  0.90202308405E+02 0.  0.
          5    1    1    2  502    0 -0.67001746639E+02 -0.35352346032E+01  0.93976865429E+02  0.11554590245E+03  0.41800000000E+01 0.  1.
         -5    1    1    2    0  502 -0.64704814597E+02  0.88724987725E+02  0.97957942591E+01  0.11032799492E+03  0.41800000000E+01 0.  1.
        -11    1    3    3    0    0  0.93186735692E+02 -0.11755612161E+02 -0.10725875149E+03  0.14257069088E+03  0.00000000000E+00 0.  1.
         11    1    3    3    0    0  0.38519825545E+02 -0.73434140961E+02 -0.47745399962E+02  0.95686849861E+02  0.00000000000E+00 0. -1.
</event>
<event>
 7    1  0.4274778E-006  0.8363155E+02  0.7561462E-02  0.1319050E+00
         -1   -1    0    0    0  501 -0.00000000000E+00  0.00000000000E+00  0.60914205423E+02  0.60914205423E+02  0.00000000000E+00 0.  1.
          1   -1    0    0  501    0  0.00000000000E+00 -0.00000000000E+00 -0.33570886731E+03  0.33570886731E+03  0.00000000000E+00 0. -1.
         23    2    1    2    0    0 -0.66873380222E+02  0.46882444717E+02 -0.18391079650E+03  0.22175924131E+03  0.93187807328E+02 0.  0.
          5    1    1    2  502    0  0.11527993209E+02 -0.12886778096E+02 -0.10646267645E+03  0.10793858232E+03  0.41800000000E+01 0. -1.
         -5    1    1    2    0  502  0.55345387014E+02 -0.33995666621E+02  0.15578811060E+02  0.66925249098E+02  0.41800000000E+01 0. -1.
        -11    1    3    3    0    0 -0.10714923871E+02  0.18705061091E+02  0.54598793421E+01  0.22237337664E+02  0.00000000000E+00 0.  1.
         11    1    3    3    0    0 -0.56158456352E+02  0.28177383626E+02 -0.18937067584E+03  0.19952190365E+03  0.00000000000E+00 0. -1.
</event>
<event>
 7    1  0.4274778E-006  0.1834773E+03  0.7561462E-02  0.1164480E+00
          1   -1    0    0  501    0  0.00000000000E+00  0.00000000000E+00  0.10430754729E+04  0.10430754729E+04  0.00000000000E+00 0. -1.
         -1   -1    0    0    0  501 -0.00000000000E+00 -0.00000000000E+00 -0.60329605893E+02  0.60329605893E+02  0.00000000000E+00 0.  1.
         23    2    1    2    0    0  0.11852199182E+03  0.13543513469E+03  0.77867972745E+03  0.80393500876E+03  0.87058842842E+02 0.  0.
          5    1    1    2  502    0 -0.44805041524E+02 -0.78382425818E+02  0.19211851009E+02  0.92400562997E+02  0.41800000000E+01 0.  1.
         -5    1    1    2    0  502 -0.73716950295E+02 -0.57052708868E+02  0.18485428856E+03  0.20706950705E+03  0.41800000000E+01 0.  1.
        -11    1    3    3    0    0  0.44832297552E+01  0.21864120638E+02  0.26116489266E+02  0.34354186527E+02  0.00000000000E+00 0.  1.
         11    1    3    3    0    0  0.11403876206E+03  0.11357101405E+03  0.75256323818E+03  0.76958082223E+03  0.00000000000E+00 0. -1.
</event>
<event>
 7    1  0.4274778E-006  0.1371905E+03  0.7561462E-02  0.1217160E+00
          1   -1    0    0  501    0  0.00000000000E+00  0.00000000000E+00  0.76980450356E+03  0.76980450356E+03  0.00000000000E+00 0. -1.
         -1   -1    0    0    0  501 -0.00000000000E+00 -0.00000000000E+00 -0.25894988430E+02  0.25894988430E+02  0.00000000000E+00 0.  1.
         23    2    1    2    0    0  0.78655449355E+02  0.28121802713E+02  0.42226238620E+03  0.44061891826E+03  0.94138158198E+02 0.  0.
          5    1    1    2  502    0 -0.30685483814E+02  0.48866150703E+02  0.99594327506E+02  0.11517813192E+03  0.41800000000E+01 0. -1.
         -5    1    1    2    0  502 -0.47969965542E+02 -0.76987953416E+02  0.22205280142E+03  0.23990244181E+03  0.41800000000E+01 0. -1.
        -11    1    3    3    0    0  0.64682105405E+02 -0.26084425769E+02  0.24427145219E+03  0.25403290019E+03  0.00000000000E+00 0.  1.
         11    1    3    3    0    0  0.13973343951E+02  0.54206228481E+02  0.17799093401E+03  0.18658601807E+03  0.00000000000E+00 0. -1.
</event>
<event>
 6    1  0.4274778E-006  0.1408986E+03  0.7561462E-02  0.1212125E+00
          2   -1    0    0  501    0  0.00000000000E+00  0.00000000000E+00  0.45713447842E+02  0.45713447842E+02  0.00000000000E+00 0.  1.
         -2   -1    0    0    0  501 -0.00000000000E+00 -0.00000000000E+00 -0.76078701854E+03  0.76078701854E+03  0.00000000000E+00 0. -1.
          5    1    1    2  502    0 -0.21347314731E+02  0.20390703547E+02 -0.37742358345E+02  0.48098301953E+02  0.41800000000E+01 0.  1.
         -5    1    1    2    0  502  0.16819429521E+02 -0.10794370300E+03 -0.44522145971E+03  0.45844776891E+03  0.41800000000E+01 0.  1.
        -11    1    1    2    0    0 -0.30958034594E+02 -0.14808605716E+02  0.91241622851E+01  0.35509788039E+02  0.00000000000E+00 0.  1.
         11    1    1    2    0    0  0.35485919804E+02  0.10236160517E+03 -0.24123391493E+03  0.26444460749E+03  0.00000000000E+00 0. -1.
</event>
<event>
 7    1  0.4274778E-006  0.1068996E+03  0.7561462E-02  0.1266421E+00
         -2   -1    0    0    0  501 -0.00000000000E+00  0.00000000000E+00  0.14192849178E+03  0.14192849178E+03  0.00000000000E+00 0.  1.
          2   -1    0    0  501    0  0.00000000000E+00 -0.00000000000E+00 -0.14804848109E+03  0.14804848109E+03  0.00000000000E+00 0. -1.
         23    2    1    2    0    0 -0.58524533971E+02 -0.11832921163E+02 -0.77550005851E+02  0.13406563450E+03  0.91621241238E+02 0.  0.
          5    1    1    2  502    0 -0.14238824839E+02  0.52508187090E+02  0.35118867204E+02  0.64889606856E+02  0.41800000000E+01 0. -1.
         -5    1    1    2    0  502  0.72763358810E+02 -0.40675265927E+02  0.36311149333E+02  0.91021731523E+02  0.41800000000E+01 0. -1.
        -11    1    3    3    0    0 -0.19627074661E+02 -0.27541496325E+02 -0.84980698579E+02  0.91462971801E+02  0.00000000000E+00 0. -1.
         11    1    3    3    0    0 -0.38897459310E+02  0.15708575162E+02  0.74306927290E+01  0.42602662696E+02  0.00000000000E+00 0.  1.
</event>
<event>
 7    1  0.4274778E-006  0.1865445E+03  0.7561462E-02  0.1161615E+00
         -2   -1    0    0    0  501 -0.00000000000E+00  0.00000000000E+00  0.26494113117E+02  0.26494113117E+02  0.00000000000E+00 0.  1.
          2   -1    0    0  501    0  0.00000000000E+00 -0.00000000000E+00 -0.14700471342E+04  0.14700471342E+04  0.00000000000E+00 0. -1.
         23    2    1    2    0    0 -0.13089459460E+03  0.97560948585E+02 -0.77767219066E+03  0.79962174165E+03  0.89271272047E+02 0.  0.
          5    1    1    2  502    0 -0.11165553922E+02 -0.40866037706E+02 -0.25384618983E+03  0.25739087615E+03  0.41800000000E+01 0. -1.
         -5    1    1    2    0  502  0.14206014852E+03 -0.56694910879E+02 -0.41203464055E+03  0.43952862948E+03  0.41800000000E+01 0. -1.
        -11    1    3    3    0    0 -0.66897909358E+02  0.79194122942E+01 -0.18689270058E+03  0.19866285233E+03  0.00000000000E+00 0.  1.
         11    1    3    3    0    0 -0.63996685237E+02  0.89641536291E+02 -0.59077949008E+03  0.60095888932E+03  0.00000000000E+00 0. -1.
</event>
<event>
 7    1  0.4274778E-006  0.8473805E+02  0.7561462E-02  0.1316119E+00
         -2   -1    0    0    0  501 -0.00000000000E+00  0.00000000000E+00  0.53034846913E+02  0.53034846913E+02  0.00000000000E+00 0.  1.
          2   -1    0    0  501    0  0.00000000000E+00 -0.00000000000E+00 -0.25803155988E+03  0.25803155988E+03  0.00000000000E+00 0. -1.
         23    2    1    2    0    0  0.26504548904E+02  0.38985411321E+02 -0.86151306207E+02  0.13219897923E+03  0.88499543165E+02 0.  0.
          5    1    1    2  502    0 -0.14257348506E+02 -0.77785995613E+02 -0.37081901822E+02  0.87444113254E+02  0.41800000000E+01 0. -1.
         -5    1    1    2    0  502 -0.12247200398E+02  0.38800584292E+02 -0.81763504938E+02  0.91423314306E+02  0.41800000000E+01 0. -1.
        -11    1    3    3    0    0  0.34512408676E+01  0.17606364882E+02 -0.97223918509E+02  0.98865491847E+02  0.00000000000E+00 0. -1.
         11    1    3    3    0    0  0.23053308037E+02  0.21379046439E+02  0.11072612302E+02  0.33333487385E+02  0.00000000000E+00 0.  1.
</event>
<event>
 7    1  0.4274778E-006  0.3203232E+03  0.7561462E-02  0.1075501E+00
         -2   -1    0    0    0  501 -0.00000000000E+00  0.00000000000E+00  0.77736247961E+02  0.77736247961E+02  0.00000000000E+00 0. -1.
          2   -1    0    0  501    0  0.00000000000E+00 -0.00000000000E+00 -0.15654342446E+04  0.15654342446E+04  0.00000000000E+00 0.  1.
         23    2    1    2    0    0 -0.26455479578E+03 -0.18040487532E+03 -0.93937541182E+03  0.99599169587E+03  0.83893592675E+02 0.  0.
          5    1    1    2  502    0  0.16541139865E+03  0.11641813570E+03 -0.45051346086E+03  0.49385621788E+03  0.41800000000E+01 0. -1.
         -5    1    1    2    0  502  0.99143397132E+02  0.63986739627E+02 -0.97809123939E+02  0.15332257880E+03  0.41800000000E+01 0. -1.
        -11    1    3    3    0    0 -0.37780965946E+02 -0.28114825270E+02 -0.67344453801E+02  0.82177370642E+02  0.00000000000E+00 0. -1.
         11    1    3    3    0    0 -0.22677382983E+03 -0.15229005005E+03 -0.87203095802E+03  0.91381432523E+03  0.00000000000E+00 0.  1.
</event>
<event>
 7    1  0.4274778E-006  0.1168883E+03  0.7561462E-02  0.1248320E+00
          1   -1    0    0  501    0  0.00000000000E+00  0.00000000000E+00  0.17327278102E+02  0.17327278102E+02  0.00000000000E+00 0. -1.
         -1   -1    0    0    0  501 -0.00000000000E+00 -0.00000000000E+00 -0.89473317021E+03  0.89473317021E+03  0.00000000000E+00 0.  1.
         23    2    1    2    0    0 -0.42199981637E+02 -0.43234349086E+02 -0.34789063480E+03  0.36462563286E+03  0.90961040903E+02 0.  0.
          5    1    1    2  502    0  0.41763505162E+02  0.82212453422E+02 -0.44205907279E+03  0.45159359395E+03  0.41800000000E+01 0.  1.
         -5    1    1    2    0  502  0.43647647538E+00 -0.38978104336E+02 -0.87456184515E+02  0.95841221503E+02  0.41800000000E+01 0.  1.
        -11    1    3    3    0    0  0.21313223804E+02 -0.30944976590E+02 -0.19540763818E+03  0.19898741202E+03  0.00000000000E+00 0.  1.
         11    1    3    3    0    0 -0.63513205441E+02 -0.12289372496E+02 -0.15248299663E+03  0.16563822084E+03  0.00000000000E+00 0. -1.
</event>
<event>
 7    1  0.4274778E-006  0.1232362E+03  0.7561462E-02  0.1237852E+00
          1   -1    0    0  501    0  0.00000000000E+00  0.00000000000E+00  0.54852126042E+03  0.54852126042E+03  0.00000000000E+00 0. -1.
         -1   -1    0    0    0  501 -0.00000000000E+00 -0.00000000000E+00 -0.32333140443E+02  0.32333140443E+02  0.00000000000E+00 0.  1.
         23    2    1    2    0    0 -0.58990613699E+02  0.38756805141E+02  0.30214460143E+03  0.32308600968E+03  0.90062350777E+02 0.  0.
          5    1    1    2  502    0 -0.63355166936E+01  0.36425563500E+02  0.97776930713E+02  0.10461721191E+03  0.41800000000E+01 0.  1.
         -5    1    1    2    0  502  0.65326130393E+02 -0.75182368641E+02  0.11626658783E+03  0.15315117927E+03  0.41800000000E+01 0.  1.
        -11    1    3    3    0    0 -0.20622387116E+02  0.61575583769E+02  0.13095030150E+03  0.14616708532E+03  0.00000000000E+00 0.  1.
         11    1    3    3    0    0 -0.38368226583E+02 -0.22818778627E+02  0.17119429993E+03  0.17691892437E+03  0.00000000000E+00 0. -1.
</event>
<event>
 7    1  0.4274778E-006  0.1246468E+03  0.7561462E-02  0.1235622E+00
          1   -1    0    0  501    0  0.00000000000E+00  0.00000000000E+00  0.28963896500E+03  0.28963896500E+03  0.00000000000E+00 0. -1.
         -1   -1    0    0    0  501 -0.00000000000E+00 -0.00000000000E+00 -0.64909874000E+02  0.64909874000E+02  0.00000000000E+00 0.  1.
         23    2    1    2    0    0  0.77629629334E+02 -0.24537291332E+01  0.15145491864E+03  0.19008433179E+03  0.84623168660E+02 0.  0.
          5    1    1    2  502    0  0.23271401326E+02  0.33680933942E+02  0.15290619911E+02  0.43900329021E+02  0.41800000000E+01 0. -1.
         -5    1    1    2    0  502 -0.10090103066E+03 -0.31227204809E+02  0.57983552450E+02  0.12056417819E+03  0.41800000000E+01 0. -1.
        -11    1    3    3    0    0  0.89981396747E+02 -0.88363433911E+00  0.15303766319E+03  0.17753297982E+03  0.00000000000E+00 0. -1.
         11    1    3    3    0    0 -0.12351767413E+02 -0.15700947941E+01 -0.15827445491E+01  0.12551351966E+02  0.00000000000E+00 0.  1.
</event>
<event>
 7    1  0.4274778E-006  0.1503626E+03  0.7561462E-02  0.1200028E+00
         -2   -1    0    0    0  501 -0.00000000000E+00  0.00000000000E+00  0.17962774689E+02  0.17962774689E+02  0.00000000000E+00 0. -1.
          2   -1    0    0  501    0  0.00000000000E+00 -0.00000000000E+00 -0.15526089124E+04  0.15526089124E+04  0.00000000000E+00 0.  1.
         23    2    1    2    0    0 -0.10255497500E+03  0.73996803546E+02 -0.70861087627E+03  0.72560116428E+03  0.91512981572E+02 0.  0.
          5    1    1    2  502    0  0.10801226700E+03 -0.48888131874E+02 -0.37799711025E+03  0.39617671186E+03  0.41800000000E+01 0. -1.
         -5    1    1    2    0  502 -0.54572920026E+01 -0.25108671672E+02 -0.44803815118E+03  0.44879381094E+03  0.41800000000E+01 0. -1.
        -11    1    3    3    0    0 -0.25185982201E+02  0.74547381156E+02 -0.34872485211E+03  0.35749219322E+03  0.00000000000E+00 0.  1.
         11    1    3    3    0    0 -0.77368992802E+02 -0.55057760981E+00 -0.35988602416E+03  0.36810897106E+03  0.00000000000E+00 0. -1.
</event>
<event>
 7    1  0.4274778E-006  0.1054239E+03  0.7561462E-02  0.1269287E+00
         -2   -1    0    0    0  501 -0.00000000000E+00  0.00000000000E+00  0.20390684513E+03  0.20390684513E+03  0.00000000000E+00 0.  1.
          2   -1    0    0  501    0  0.00000000000E+00 -0.00000000000E+00 -0.81720179753E+02  0.81720179753E+02  0.00000000000E+00 0. -1.
         23    2    1    2    0    0 -0.38361274938E+02 -0.53233456108E+02  0.80897463974E+02  0.13846674119E+03  0.91231850108E+02 0.  0.
          5    1    1    2  502    0 -0.20325856821E+02 -0.21796168410E+02 -0.17822509665E+02  0.34976101321E+02  0.41800000000E+01 0. -1.
         -5    1    1    2    0  502  0.58687131759E+02  0.75029624518E+02  0.59111711072E+02  0.11218418238E+03  0.41800000000E+01 0. -1.
        -11    1    3    3    0    0 -0.37154181108E+02 -0.53852166236E+01  0.82432175031E+02  0.90578679678E+02  0.00000000000E+00 0.  1.
         11    1    3    3    0    0 -0.12070938305E+01 -0.47848239484E+02 -0.15347110572E+01  0.47888061511E+02  0.00000000000E+00 0. -1.
</event>
<event>
 7    1  0.4274778E-006  0.1344032E+03  0.7561462E-02  0.1221065E+00
          1   -1    0    0  501    0  0.00000000000E+00  0.00000000000E+00  0.24119408123E+03  0.24119408123E+03  0.00000000000E+00 0. -1.
         -1   -1    0    0    0  501 -0.00000000000E+00 -0.00000000000E+00 -0.88505649956E+02  0.88505649956E+02  0.00000000000E+00 0.  1.
         23    2    1    2    0    0  0.95471081891E+02  0.22236015028E+02  0.64440354987E+02  0.14792115437E+03  0.90105164767E+02 0.  0.
          5    1    1    2  502    0 -0.50321179228E+02 -0.71121038661E+02  0.72124256773E+02  0.11318040482E+03  0.41800000000E+01 0. -1.
         -5    1    1    2    0  502 -0.45149902664E+02  0.48885023633E+02  0.16123819514E+02  0.68598172001E+02  0.41800000000E+01 0. -1.
        -11    1    3    3    0    0  0.53521741519E+02 -0.18308362921E+02  0.69210601753E+02  0.89386130708E+02  0.00000000000E+00 0. -1.
         11    1    3    3    0    0  0.41949340373E+02  0.40544377949E+02 -0.47702467654E+01  0.58535023663E+02  0.00000000000E+00 0.  1.
</event>
<event>
 7    1  0.4274778E-006  0.1206962E+03  0.7561462E-02  0.1241953E+00
         -2   -1    0    0    0  501 -0.00000000000E+00  0.00000000000E+00  0.99227760589E+03  0.99227760589E+03  0.00000000000E+00 0.  1.
          2   -1    0    0  501    0  0.00000000000E+00 -0.00000000000E+00 -0.17999509052E+02  0.17999509052E+02  0.00000000000E+00 0. -1.
         23    2    1    2    0    0 -0.28706672119E+02  0.69666366621E+02  0.50446306598E+03  0.51828921221E+03  0.91995906963E+02 0.  0.
          5    1    1    2  502    0 -0.19538990122E+02  0.16419071854E+02  0.23730913479E+02  0.35099668233E+02  0.41800000000E+01 0.  1.
         -5    1    1    2    0  502  0.48245662240E+02 -0.86085438474E+02  0.44608411738E+03  0.45688823449E+03  0.41800000000E+01 0.  1.
        -11    1    3    3    0    0 -0.49742472006E+01  0.87143685434E+02  0.41555928282E+03  0.42462722780E+03  0.00000000000E+00 0.  1.
         11    1    3    3    0    0 -0.23732424918E+02 -0.17477318813E+02  0.88903783154E+02  0.93661984415E+02  0.00000000000E+00 0. -1.
</event>
<event>
 7    1  0.4274778E-006  0.1548302E+03  0.7561462E-02  0.1194660E+00
          3   -1    0    0  501    0  0.00000000000E+00  0.00000000000E+00  0.20524211759E+03  0.20524211759E+03  0.00000000000E+00 0. -1.
         -3   -1    0    0    0  501 -0.00000000000E+00 -0.00000000000E+00 -0.12291662018E+03  0.12291662018E+03  0.00000000000E+00 0.  1.
         23    2    1    2    0    0 -0.88886433468E+02 -0.72559777532E+02  0.45102158254E+02  0.15436118133E+03  0.92884068879E+02 0.  0.
          5    1    1    2  502    0 -0.83287782919E+01  0.70337757525E+02  0.27062322616E+02  0.75938201104E+02  0.41800000000E+01 0. -1.
         -5    1    1    2    0  502  0.97215211760E+02  0.22220200071E+01  0.10161016536E+02  0.97859355339E+02  0.41800000000E+01 0. -1.
        -11    1    3    3    0    0 -0.10304029852E+03 -0.49482978388E+02  0.17391240782E+02  0.11562146654E+03  0.00000000000E+00 0.  1.
         11    1    3    3    0    0  0.14153865052E+02 -0.23076799144E+02  0.27710917472E+02  0.38739714787E+02  0.00000000000E+00 0. -1.
</event>
<event>
 7    1  0.4274778E-006  0.1701695E+03  0.7561462E-02  0.1177671E+00
          2   -1    0    0  501    0  0.00000000000E+00  0.00000000000E+00  0.83841241306E+03  0.83841241306E+03  0.00000000000E+00 0. -1.
         -2   -1    0    0    0  501 -0.00000000000E+00 -0.00000000000E+00 -0.45836420610E+02  0.45836420610E+02  0.00000000000E+00 0.  1.
         23    2    1    2    0    0  0.15167360225E+03  0.52114139407E+02  0.43451020753E+03  0.47244839605E+03  0.93207303049E+02 0.  0.
          5    1    1    2  502    0 -0.76643204594E+02 -0.16963771517E+02  0.30102966420E+03  0.31112422195E+03  0.41800000000E+01 0.  1.
         -5    1    1    2    0  502 -0.75030397655E+02 -0.35150367890E+02  0.57036120728E+02  0.10067621568E+03  0.41800000000E+01 0.  1.
        -11    1    3    3    0    0  0.58270724418E+02 -0.19092168161E+02  0.21397878059E+03  0.22259134474E+03  0.00000000000E+00 0. -1.
         11    1    3    3    0    0  0.93402877831E+02  0.71206307568E+02  0.22053142693E+03  0.24985705131E+03  0.00000000000E+00 0.  1.
</event>
<event>
 7    1  0.4274778E-006  0.1485588E+03  0.7561462E-02  0.1202255E+00
          1   -1    0    0  501    0  0.00000000000E+00  0.00000000000E+00  0.36482988106E+03  0.36482988106E+03  0.00000000000E+00 0. -1.
         -1   -1    0    0    0  501 -0.00000000000E+00 -0.00000000000E+00 -0.21689992286E+03  0.21689992286E+03  0.00000000000E+00 0.  1.
         23    2    1    2    0    0  0.60313231399E+02  0.21234057972E+02  0.30953920798E+03  0.32813039398E+03  0.88127538691E+02 0.  0.
          5    1    1    2  502    0  0.65465330746E+02 -0.21744026592E+02 -0.48919476131E+02  0.84670536593E+02  0.41800000000E+01 0. -1.
         -5    1    1    2    0  502 -0.12577856214E+03  0.50996861986E+00 -0.11268977366E+03  0.16892887335E+03  0.41800000000E+01 0.  1.
        -11    1    3    3    0    0  0.65458725563E+02 -0.13676694746E+02  0.25120270217E+03  0.25995133066E+03  0.00000000000E+00 0. -1.
         11    1    3    3    0    0 -0.51454941643E+01  0.34910752718E+02  0.58336505809E+02  0.68179063323E+02  0.00000000000E+00 0.  1.
</event>
<event>
 7    1  0.4274778E-006  0.1278753E+03  0.7561462E-02  0.1230643E+00
         -2   -1    0    0    0  501 -0.00000000000E+00  0.00000000000E+00  0.41510708848E+03  0.41510708848E+03  0.00000000000E+00 0.  1.
          2   -1    0    0  501    0  0.00000000000E+00 -0.00000000000E+00 -0.47185051867E+02  0.47185051867E+02  0.00000000000E+00 0. -1.
         23    2    1    2    0    0  0.86268108181E+02  0.60722298916E+01  0.15725083564E+03  0.20245281879E+03  0.93703041901E+02 0.  0.
          5    1    1    2  502    0  0.14824266816E+02 -0.39658726226E+02  0.38746326592E+02  0.57544102016E+02  0.41800000000E+01 0.  1.
         -5    1    1    2    0  502 -0.10109237500E+03  0.33586496334E+02  0.17192487439E+03  0.20229521955E+03  0.41800000000E+01 0.  1.
        -11    1    3    3    0    0  0.55274333986E+02  0.33986473017E+02  0.35949185587E+02  0.74180026221E+02  0.00000000000E+00 0. -1.
         11    1    3    3    0    0  0.30993774195E+02 -0.27914243125E+02  0.12130165005E+03  0.12827279257E+03  0.00000000000E+00 0.  1.
</event>
<event>
 7    1  0.4274778E-006  0.9353627E+02  0.7561462E-02  0.1294507E+00
         -1   -1    0    0    0  501 -0.00000000000E+00  0.00000000000E+00  0.49124023082E+02  0.49124023082E+02  0.00000000000E+00 0.  1.
          1   -1    0    0  501    0  0.00000000000E+00 -0.00000000000E+00 -0.27275045147E+03  0.27275045147E+03  0.00000000000E+00 0. -1.
         23    2    1    2    0    0 -0.20922424740E+02 -0.35041316219E+02 -0.11364443665E+03  0.15038176111E+03  0.89632440520E+02 0.  0.
          5    1    1    2  502    0  0.66689378913E+01 -0.44613202114E+02 -0.63738855603E+02  0.78197996452E+02  0.41800000000E+01 0.  1.
         -5    1    1    2    0  502  0.14253486849E+02  0.79654518333E+02 -0.46243136131E+02  0.93294716986E+02  0.41800000000E+01 0.  1.
        -11    1    3    3    0    0 -0.10827973774E+02 -0.45165910716E+02 -0.12420651252E+03  0.13260641862E+03  0.00000000000E+00 0. -1.
         11    1    3    3    0    0 -0.10094450966E+02  0.10124594497E+02  0.10562075868E+02  0.17775342492E+02  0.00000000000E+00 0.  1.
</event>
<event>
 7    1  0.4274778E-006  0.1415079E+03  0.7561462E-02  0.1211314E+00
         -1   -1    0    0    0  501 -0.00000000000E+00  0.00000000000E+00  0.38331886074E+02  0.38331886074E+02  0.00000000000E+00 0.  1.
          1   -1    0    0  501    0  0.00000000000E+00 -0.00000000000E+00 -0.72005276716E+03  0.72005276716E+03  0.00000000000E+00 0. -1.
         23    2    1    2    0    0 -0.89705649058E+02 -0.36828061744E+02 -0.49906681834E+03  0.51669151294E+03  0.92190133809E+02 0.  0.
          5    1    1    2  502    0  0.36768545452E+01 -0.41294461920E+02 -0.41472778245E+02  0.58789587343E+02  0.41800000000E+01 0. -1.
         -5    1    1    2    0  502  0.86028794513E+02  0.78122523664E+02 -0.14118128451E+03  0.18290355295E+03  0.41800000000E+01 0. -1.
        -11    1    3    3    0    0 -0.29296087790E+02 -0.54714226260E+02 -0.15608844423E+03  0.16797472946E+03  0.00000000000E+00 0.  1.
         11    1    3    3    0    0 -0.60409561268E+02  0.17886164517E+02 -0.34297837411E+03  0.34871678348E+03  0.00000000000E+00 0. -1.
</event>
<event>
 7    1  0.4274778E-006  0.1235596E+03  0.7561462E-02  0.1237338E+00
          1   -1    0    0  501    0  0.00000000000E+00  0.00000000000E+00  0.12799015780E+04  0.12799015780E+04  0.00000000000E+00 0. -1.
         -1   -1    0    0    0  501 -0.00000000000E+00 -0.00000000000E+00 -0.15941162593E+02  0.15941162593E+02  0.00000000000E+00 0.  1.
         23    2    1    2    0    0 -0.89660656513E+02 -0.22041942188E+02  0.60749617010E+03  0.62121866918E+03  0.91302561356E+02 0.  0.
          5    1    1    2  502    0  0.10474101633E+03  0.20332292843E+02  0.31135022829E+03  0.32915121099E+03  0.41800000000E+01 0.  1.
         -5    1    1    2    0  502 -0.15080359817E+02  0.17096493452E+01  0.34511401706E+03  0.34547286047E+03  0.41800000000E+01 0.  1.
        -11    1    3    3    0    0  0.71122761498E+01 -0.26781833097E+02  0.74472752941E+02  0.79460946299E+02  0.00000000000E+00 0.  1.
         11    1    3    3    0    0 -0.96772932663E+02  0.47398909088E+01  0.53302341716E+03  0.54175772288E+03  0.00000000000E+00 0. -1.
</event>
<event>
 7    1  0.4274778E-006  0.1979579E+03  0.7561462E-02  0.1151473E+00
         -1   -1    0    0    0  501 -0.00000000000E+00  0.00000000000E+00  0.12028970673E+03  0.12028970673E+03  0.00000000000E+00 0.  1.
          1   -1    0    0  501    0  0.00000000000E+00 -0.00000000000E+00 -0.41984893026E+03  0.41984893026E+03  0.00000000000E+00 0. -1.
         23    2    1    2    0    0  0.45919108280E+01  0.19547736629E+03 -0.13476055567E+03  0.25546687199E+03  0.94182954627E+02 0.  0.
          5    1    1    2  502    0  0.11971554329E+02 -0.21289630827E+02 -0.91713228118E+02  0.95001868959E+02  0.41800000000E+01 0. -1.
         -5    1    1    2    0  502 -0.16563465157E+02 -0.17418773546E+03 -0.73085439745E+02  0.18966989605E+03  0.41800000000E+01 0. -1.
        -11    1    3    3    0    0 -0.53428058277E+01  0.93482461741E+02 -0.11956922311E+03  0.15186940226E+03  0.00000000000E+00 0. -1.
         11    1    3    3    0    0  0.99347166557E+01  0.10199490455E+03 -0.15191332556E+02  0.10359746972E+03  0.00000000000E+00 0.  1.
</event>
<event>
 7    1  0.4274778E-006  0.7357241E+02  0.7561462E-02  0.1348350E+00
          1   -1    0    0  501    0  0.00000000000E+00  0.00000000000E+00  0.21377927207E+03  0.21377927207E+03  0.00000000000E+00 0. -1.
         -1   -1    0    0    0  501 -0.00000000000E+00 -0.00000000000E+00 -0.69780078136E+02  0.69780078136E+02  0.00000000000E+00 0.  1.
         23    2    1    2    0    0 -0.41682484511E+02 -0.21478096486E+02  0.10677933815E+03  0.14488261406E+03  0.85967474417E+02 0.  0.
          5    1    1    2  502    0  0.64036724283E+02  0.27286250617E+02 -0.23493416477E+02  0.73584336291E+02  0.41800000000E+01 0.  1.
         -5    1    1    2    0  502 -0.22354239772E+02 -0.58081541315E+01  0.60713272260E+02  0.65092399854E+02  0.41800000000E+01 0.  1.
        -11    1    3    3    0    0 -0.34822013866E+02 -0.38624372363E+01 -0.14003763003E+01  0.35063544100E+02  0.00000000000E+00 0.  1.
         11    1    3    3    0    0 -0.68604706449E+01 -0.17615659249E+02  0.10817971445E+03  0.10981906996E+03  0.00000000000E+00 0. -1.
</event>
<event>
 7    1  0.4274778E-006  0.1205530E+03  0.7561462E-02  0.1242188E+00
         -2   -1    0    0    0  501 -0.00000000000E+00  0.00000000000E+00  0.75458774690E+02  0.75458774690E+02  0.00000000000E+00 0.  1.
          2   -1    0    0  501    0  0.00000000000E+00 -0.00000000000E+00 -0.20442383363E+03  0.20442383363E+03  0.00000000000E+00 0. -1.
         23    2    1    2    0    0 -0.19508868659E+02  0.48999110299E+02 -0.88060365271E+02  0.13809911227E+03  0.92386298291E+02 0.  0.
          5    1    1    2  502    0 -0.63228619477E+01 -0.87830137665E+02 -0.33839614009E+02  0.94428298416E+02  0.41800000000E+01 0.  1.
         -5    1    1    2    0  502  0.25831730606E+02  0.38831027366E+02 -0.70650796606E+01  0.47355197634E+02  0.41800000000E+01 0.  1.
        -11    1    3    3    0    0  0.29520688349E+02  0.48870262675E+02 -0.52133750994E+02  0.77315597438E+02  0.00000000000E+00 0. -1.
         11    1    3    3    0    0 -0.49029557007E+02  0.12884762430E+00 -0.35926614277E+02  0.60783514833E+02  0.00000000000E+00 0.  1.
</event>
<event>
 7    1  0.4274778E-006  0.7622456E+02  0.7561462E-02  0.1340120E+00
          2   -1    0    0  501    0  0.00000000000E+00  0.00000000000E+00  0.10728848508E+03  0.10728848508E+03  0.00000000000E+00 0. -1.
         -2   -1    0    0    0  501 -0.00000000000E+00 -0.00000000000E+00 -0.11893563422E+03  0.11893563422E+03  0.00000000000E+00 0.  1.
         23    2    1    2    0    0  0.10268219109E+02  0.24266965644E+02  0.10495000146E+02  0.96498943641E+02  0.92236539129E+02 0.  0.
          5    1    1    2  502    0 -0.46955661241E+02 -0.29597402913E+02  0.31824814230E+02  0.64118106511E+02  0.41800000000E+01 0. -1.
         -5    1    1    2    0  502  0.36687442132E+02  0.53304372690E+01 -0.53966963509E+02  0.65607069147E+02  0.41800000000E+01 0. -1.
        -11    1    3    3    0    0  0.32034103922E+02  0.18374217241E+02 -0.31691774177E+02  0.48663787603E+02  0.00000000000E+00 0.  1.
         11    1    3    3    0    0 -0.21765884813E+02  0.58927484030E+01  0.42186774323E+02  0.47835156039E+02  0.00000000000E+00 0. -1.
</event>
<event>
 7    1  0.4274778E-006  0.1140382E+03  0.7561462E-02  0.1253269E+00
         -1   -1    0    0    0  501 -0.00000000000E+00  0.00000000000E+00  0.50418546856E+02  0.50418546856E+02  0.00000000000E+00 0.  1.
          1   -1    0    0  501    0  0.00000000000E+00 -0.00000000000E+00 -0.42238552897E+03  0.42238552897E+03  0.00000000000E+00 0. -1.
         23    2    1    2    0    0  0.94278334747E+02 -0.14713403853E+02 -0.19820404029E+03  0.23839862327E+03  0.91892183215E+02 0.  0.
          5    1    1    2  502    0 -0.92703848433E+02 -0.81752203717E+00 -0.42359693768E+02  0.10201219492E+03  0.41800000000E+01 0.  1.
         -5    1    1    2    0  502 -0.15744863140E+01  0.15530925890E+02 -0.13140324806E+03  0.13239325763E+03  0.41800000000E+01 0.  1.
        -11    1    3    3    0    0  0.16821175775E+02  0.26490290872E+02 -0.13986089563E+02  0.34355467777E+02  0.00000000000E+00 0.  1.
         11    1    3    3    0    0  0.77457158972E+02 -0.41203694725E+02 -0.18421795072E+03  0.20404315549E+03  0.00000000000E+00 0. -1.
</event>
<event>
 7    1  0.4274778E-006  0.8729955E+02  0.7561462E-02  0.1309526E+00
         -1   -1    0    0    0  501 -0.00000000000E+00  0.00000000000E+00  0.39237349754E+02  0.39237349754E+02  0.00000000000E+00 0.  1.
          1   -1    0    0  501    0  0.00000000000E+00 -0.00000000000E+00 -0.36047427749E+03  0.36047427749E+03  0.00000000000E+00 0. -1.
         23    2    1    2    0    0  0.27815456646E+02 -0.21781190559E+02 -0.21685072014E+03  0.23809958633E+03  0.91755426512E+02 0.  0.
          5    1    1    2  502    0 -0.47092471109E+01 -0.47947222211E+02 -0.29589864622E+02  0.56693435373E+02  0.41800000000E+01 0. -1.
         -5    1    1    2    0  502 -0.23106209535E+02  0.69728412769E+02 -0.74796342971E+02  0.10491860554E+03  0.41800000000E+01 0.  1.
        -11    1    3    3    0    0  0.16712436928E+02 -0.32930988149E+02 -0.21911250217E+03  0.22220270956E+03  0.00000000000E+00 0. -1.
         11    1    3    3    0    0  0.11103019719E+02  0.11149797591E+02  0.22617820267E+01  0.15896876773E+02  0.00000000000E+00 0.  1.
</event>
<event>
 7    1  0.4274778E-006  0.8429350E+02  0.7561462E-02  0.1317291E+00
         -2   -1    0    0    0  501 -0.00000000000E+00  0.00000000000E+00  0.47166106121E+02  0.47166106121E+02  0.00000000000E+00 0.  1.
          2   -1    0    0  501    0  0.00000000000E+00 -0.00000000000E+00 -0.28193987275E+03  0.28193987275E+03  0.00000000000E+00 0. -1.
         23    2    1    2    0    0  0.14947747161E+02 -0.96969677398E+01 -0.15113288748E+03  0.17757885779E+03  0.91518493923E+02 0.  0.
          5    1    1    2  502    0  0.67421895555E+01  0.46419339855E+02 -0.95998462671E+02  0.10692702871E+03  0.41800000000E+01 0. -1.
         -5    1    1    2    0  502 -0.21689936716E+02 -0.36722372115E+02  0.12357583524E+02  0.44600092366E+02  0.41800000000E+01 0. -1.
        -11    1    3    3    0    0 -0.13536895329E+02  0.28171547865E+02 -0.17560816506E+02  0.35850605582E+02  0.00000000000E+00 0.  1.
         11    1    3    3    0    0  0.28484642489E+02 -0.37868515604E+02 -0.13357207097E+03  0.14172825221E+03  0.00000000000E+00 0. -1.
</event>
<event>
 7    1  0.4274778E-006  0.4330937E+02  0.7561462E-02  0.1485181E+00
         -2   -1    0    0    0  501 -0.00000000000E+00  0.00000000000E+00  0.97923461640E+02  0.97923461640E+02  0.00000000000E+00 0.  1.
          2   -1    0    0  501    0  0.00000000000E+00 -0.00000000000E+00 -0.16314519624E+03  0.16314519624E+03  0.00000000000E+00 0. -1.
         23    2    1    2    0    0  0.89922546027E+00 -0.16051284978E+01 -0.10585029823E+03  0.13864535301E+03  0.89525768543E+02 0.  0.
          5    1    1    2  502    0 -0.45301263059E+01 -0.51475730248E+01 -0.40265883097E+02  0.41058900302E+02  0.41800000000E+01 0. -1.
         -5    1    1    2    0  502  0.36309008456E+01  0.67527015226E+01  0.80894446726E+02  0.81364404564E+02  0.41800000000E+01 0.  1.
        -11    1    3    3    0    0 -0.10986388244E+02  0.32199626629E+02 -0.95451500647E+02  0.10133363537E+03  0.00000000000E+00 0.  1.
         11    1    3    3    0    0  0.11885613704E+02 -0.33804755126E+02 -0.10398797580E+02  0.37311717642E+02  0.00000000000E+00 0. -1.
</event>
<event>
 7    1  0.4274778E-006  0.1266324E+03  0.7561462E-02  0.1232540E+00
         -2   -1    0    0    0  501 -0.00000000000E+00  0.00000000000E+00  0.54251807260E+02  0.54251807260E+02  0.00000000000E+00 0.  1.
          2   -1    0    0  501    0  0.00000000000E+00 -0.00000000000E+00 -0.45586891425E+03  0.45586891425E+03  0.00000000000E+00 0. -1.
         23    2    1    2    0    0 -0.31137470901E+02  0.76724311190E+02 -0.31280055132E+03  0.33578735965E+03  0.89737416776E+02 0.  0.
          5    1    1    2  502    0  0.18723139927E+02 -0.10682466347E+03 -0.40340571641E+02  0.11578816353E+03  0.41800000000E+01 0.  1.
         -5    1    1    2    0  502  0.12414330974E+02  0.30100352275E+02 -0.48475984026E+02  0.58545198333E+02  0.41800000000E+01 0.  1.
        -11    1    3    3    0    0  0.11875672039E+02  0.66685915241E+02 -0.24997352688E+03  0.25898804416E+03  0.00000000000E+00 0. -1.
         11    1    3    3    0    0 -0.43013142939E+02  0.10038395949E+02 -0.62827024441E+02  0.76799315484E+02  0.00000000000E+00 0.  1.
</event>
<event>
 7    1  0.4274778E-006  0.1821710E+03  0.7561462E-02  0.1165718E+00
          1   -1    0    0  501    0  0.00000000000E+00  0.00000000000E+00  0.78755382975E+03  0.78755382975E+03  0.00000000000E+00 0. -1.
         -1   -1    0    0    0  501 -0.00000000000E+00 -0.00000000000E+00 -0.86212106439E+02  0.86212106439E+02  0.00000000000E+00 0.  1.
         23    2    1    2    0    0 -0.12815140932E+03  0.12284063976E+03  0.60345225397E+03  0.63556038767E+03  0.90938314641E+02 0.  0.
          5    1    1    2  502    0  0.98662356266E-01 -0.10212325096E+02  0.63162389115E+02  0.64119116626E+02  0.41800000000E+01 0.  1.
         -5    1    1    2    0  502  0.12805274696E+03 -0.11262831466E+03  0.34727080225E+02  0.17408643189E+03  0.41800000000E+01 0.  1.
        -11    1    3    3    0    0 -0.89759832757E+02  0.11056488859E+03  0.55268459825E+03  0.57073784464E+03  0.00000000000E+00 0. -1.
         11    1    3    3    0    0 -0.38391576558E+02  0.12275751172E+02  0.50767655723E+02  0.64822543032E+02  0.00000000000E+00 0.  1.
</event>
<event>
 7    1  0.4274778E-006  0.1886327E+03  0.7561462E-02  0.1159700E+00
         -3   -1    0    0    0  501 -0.00000000000E+00  0.00000000000E+00  0.14478785968E+03  0.14478785968E+03  0.00000000000E+00 0.  1.
          3   -1    0    0  501    0  0.00000000000E+00 -0.00000000000E+00 -0.30660558400E+03  0.30660558400E+03  0.00000000000E+00 0. -1.
         23    2    1    2    0    0 -0.17893100814E+03 -0.17487892918E+02 -0.62532517683E+02  0.21091730745E+03  0.90849671101E+02 0.  0.
          5    1    1    2  502    0  0.10324742336E+03  0.49410405285E+02 -0.40049199305E+01  0.11460772384E+03  0.41800000000E+01 0.  1.
         -5    1    1    2    0  502  0.75683584786E+02 -0.31922512367E+02 -0.95280286709E+02  0.12586841239E+03  0.41800000000E+01 0.  1.
        -11    1    3    3    0    0 -0.28380233697E+02  0.30170516397E+01  0.22912142265E+02  0.36599269507E+02  0.00000000000E+00 0.  1.
         11    1    3    3    0    0 -0.15055077444E+03 -0.20504944558E+02 -0.85444659948E+02  0.17431803794E+03  0.00000000000E+00 0. -1.
</event>
<event>
 7    1  0.4274778E-006  0.1300281E+03  0.7561462E-02  0.1227414E+00
          4   -1    0    0  501    0  0.00000000000E+00  0.00000000000E+00  0.52286369933E+03  0.52286369933E+03  0.00000000000E+00 0. -1.
         -4   -1    0    0    0  501 -0.00000000000E+00 -0.00000000000E+00 -0.68307803536E+02  0.68307803536E+02  0.00000000000E+00 0.  1.
         23    2    1    2    0    0  0.25364831617E+02  0.10846827861E+03  0.38962810142E+03  0.41547603628E+03  0.91659899407E+02 0.  0.
          5    1    1    2  502    0  0.11161329800E+01 -0.86919189447E+02  0.95835442405E+02  0.12945306357E+03  0.41800000000E+01 0. -1.
         -5    1    1    2    0  502 -0.26480964597E+02 -0.21549089159E+02 -0.30907648033E+02  0.46242403014E+02  0.41800000000E+01 0.  1.
        -11    1    3    3    0    0  0.43852251439E+02  0.19899942595E+02  0.84976903795E+02  0.97673444959E+02  0.00000000000E+00 0.  1.
         11    1    3    3    0    0 -0.18487419822E+02  0.88568336011E+02  0.30465119762E+03  0.31780259132E+03  0.00000000000E+00 0. -1.
</event>
<event>
 7    1  0.4274778E-006  0.1087919E+03  0.7561462E-02  0.1262824E+00
         -2   -1    0    0    0  501 -0.00000000000E+00  0.00000000000E+00  0.42087306046E+02  0.42087306046E+02  0.00000000000E+00 0.  1.
          2   -1    0    0  501    0  0.00000000000E+00 -0.00000000000E+00 -0.43977835213E+03  0.43977835213E+03  0.00000000000E+00 0. -1.
         23    2    1    2    0    0 -0.11518577738E+02 -0.80953916336E+02 -0.19025202911E+03  0.22620036000E+03  0.91019525813E+02 0.  0.
          5    1    1    2  502    0 -0.26331002970E+02  0.25545490518E+02  0.70691931106E+00  0.36930555616E+02  0.41800000000E+01 0.  1.
         -5    1    1    2    0  502  0.37849580708E+02  0.55408425818E+02 -0.20814593628E+03  0.21873474256E+03  0.41800000000E+01 0.  1.
        -11    1    3    3    0    0  0.20627273609E+02  0.53683285902E+01 -0.78686816084E+02  0.81522502377E+02  0.00000000000E+00 0. -1.
         11    1    3    3    0    0 -0.32145851347E+02 -0.86322244926E+02 -0.11156521302E+03  0.14467785762E+03  0.00000000000E+00 0.  1.
</event>
<event>
 7    1  0.4274778E-006  0.9915128E+02  0.7561462E-02  0.1282091E+00
         -1   -1    0    0    0  501 -0.00000000000E+00  0.00000000000E+00  0.54220690072E+02  0.54220690072E+02  0.00000000000E+00 0.  1.
          1   -1    0    0  501    0  0.00000000000E+00 -0.00000000000E+00 -0.45263868569E+03  0.45263868569E+03  0.00000000000E+00 0. -1.
         23    2    1    2    0    0  0.45784258871E+02 -0.20983790011E+02 -0.36591721461E+03  0.38134809267E+03  0.94839032216E+02 0.  0.
          5    1    1    2  502    0 -0.49622885690E+02 -0.35363321812E+02 -0.31832679431E+02  0.68875156578E+02  0.41800000000E+01 0. -1.
         -5    1    1    2    0  502  0.38386268194E+01  0.56347111824E+02 -0.66810157584E+00  0.56636126514E+02  0.41800000000E+01 0.  1.
        -11    1    3    3    0    0 -0.14471661003E+02 -0.13647782187E+02 -0.14222388380E+02  0.24453369135E+02  0.00000000000E+00 0.  1.
         11    1    3    3    0    0  0.60255919874E+02 -0.73360078245E+01 -0.35169482623E+03  0.35689472354E+03  0.00000000000E+00 0. -1.
</event>
<event>
 7    1  0.4274778E-006  0.1475193E+03  0.7561462E-02  0.1203555E+00
          4   -1    0    0  501    0  0.00000000000E+00  0.00000000000E+00  0.10969450706E+04  0.10969450706E+04  0.00000000000E+00 0. -1.
         -4   -1    0    0    0  501 -0.00000000000E+00 -0.00000000000E+00 -0.35582868459E+02  0.35582868459E+02  0.00000000000E+00 0.  1.
         23    2    1    2    0    0 -0.11250002589E+03  0.52576355366E+02  0.42298433571E+03  0.44884242580E+03  0.84399324495E+02 0.  0.
          5    1    1    2  502    0  0.12961458573E+03 -0.23112879790E+02  0.63575327314E+03  0.64925637676E+03  0.41800000000E+01 0. -1.
         -5    1    1    2    0  502 -0.17114559843E+02 -0.29463475575E+02  0.26245933091E+01  0.34429136522E+02  0.41800000000E+01 0.  1.
        -11    1    3    3    0    0 -0.76709912395E+02  0.17104263116E+02  0.35845058059E+03  0.36696564581E+03  0.00000000000E+00 0.  1.
         11    1    3    3    0    0 -0.35790113493E+02  0.35472092250E+02  0.64533755114E+02  0.81876779990E+02  0.00000000000E+00 0. -1.
</event>
<event>
 7    1  0.4274778E-006  0.9799945E+02  0.7561462E-02  0.1284560E+00
         -2   -1    0    0    0  501 -0.00000000000E+00  0.00000000000E+00  0.37770414932E+02  0.37770414932E+02  0.00000000000E+00 0. -1.
          2   -1    0    0  501    0  0.00000000000E+00 -0.00000000000E+00 -0.39938465030E+03  0.39938465030E+03  0.00000000000E+00 0.  1.
         23    2    1    2    0    0 -0.47437381830E+02 -0.60094372075E+00 -0.22025538093E+03  0.24252610851E+03  0.89754187374E+02 0.  0.
          5    1    1    2  502    0  0.41469669317E+02 -0.48854241460E+02 -0.26701079708E+02  0.69547756538E+02  0.41800000000E+01 0. -1.
         -5    1    1    2    0  502  0.59677125127E+01  0.49455185181E+02 -0.11465777472E+03  0.12508120018E+03  0.41800000000E+01 0. -1.
        -11    1    3    3    0    0 -0.54299429892E+02 -0.22549689027E+02 -0.20863328388E+03  0.21675969114E+03  0.00000000000E+00 0.  1.
         11    1    3    3    0    0  0.68620480616E+01  0.21948745306E+02 -0.11622097055E+02  0.25766417370E+02  0.00000000000E+00 0. -1.
</event>
<event>
 7    1  0.4274778E-006  0.1054330E+03  0.7561462E-02  0.1269269E+00
          1   -1    0    0  501    0  0.00000000000E+00  0.00000000000E+00  0.30434958145E+03  0.30434958145E+03  0.00000000000E+00 0. -1.
         -1   -1    0    0    0  501 -0.00000000000E+00 -0.00000000000E+00 -0.48952105160E+02  0.48952105160E+02  0.00000000000E+00 0.  1.
         23    2    1    2    0    0  0.26193836854E+02 -0.37249908699E+02  0.16321141532E+03  0.19136480014E+03  0.88931703304E+02 0.  0.
          5    1    1    2  502    0 -0.68528394082E+02  0.31031338596E+02  0.20057036677E+02  0.77966928186E+02  0.41800000000E+01 0. -1.
         -5    1    1    2    0  502  0.42334557228E+02  0.62185701033E+01  0.72129024296E+02  0.83969958293E+02  0.41800000000E+01 0. -1.
        -11    1    3    3    0    0  0.43188563017E+02  0.82418415677E+01  0.11418752132E+03  0.12236000144E+03  0.00000000000E+00 0. -1.
         11    1    3    3    0    0 -0.16994726163E+02 -0.45491750267E+02  0.49023894004E+02  0.69004798696E+02  0.00000000000E+00 0.  1.
</event>
<event>
 7    1  0.4274778E-006  0.1185625E+03  0.7561462E-02  0.1245488E+00
          2   -1    0    0  501    0  0.00000000000E+00  0.00000000000E+00  0.26759054036E+03  0.26759054036E+03  0.00000000000E+00 0. -1.
         -2   -1    0    0    0  501 -0.00000000000E+00 -0.00000000000E+00 -0.64619055520E+02  0.64619055520E+02  0.00000000000E+00 0.  1.
         23    2    1    2    0    0  0.23174447179E+02  0.54232537419E+02  0.14823662927E+03  0.18341815231E+03  0.90498050933E+02 0.  0.
          5    1    1    2  502    0  0.42888439269E+02 -0.51830529510E+02  0.83332843722E+01  0.67917140993E+02  0.41800000000E+01 0.  1.
         -5    1    1    2    0  502 -0.66062886448E+02 -0.24020079088E+01  0.46401571199E+02  0.80874302579E+02  0.41800000000E+01 0.  1.
        -11    1    3    3    0    0 -0.20125204244E+02  0.56646752763E+02  0.59147190984E+02  0.84334267328E+02  0.00000000000E+00 0.  1.
         11    1    3    3    0    0  0.43299651423E+02 -0.24142153438E+01  0.89089438287E+02  0.99083884983E+02  0.00000000000E+00 0. -1.
</event>
<event>
 7    1  0.4274778E-006  0.9725404E+02  0.7561462E-02  0.1286179E+00
         -1   -1    0    0    0  501 -0.00000000000E+00  0.00000000000E+00  0.32623167748E+03  0.32623167748E+03  0.00000000000E+00 0.  1.
          1   -1    0    0  501    0  0.00000000000E+00 -0.00000000000E+00 -0.40545885959E+02  0.40545885959E+02  0.00000000000E+00 0. -1.
         23    2    1    2    0    0 -0.10868436285E+02  0.13534657752E+02  0.69709937106E+02  0.11658952291E+03  0.91827728131E+02 0.  0.
          5    1    1    2  502    0  0.64366990527E+02  0.13759388113E+02  0.11855571204E+03  0.13566635356E+03  0.41800000000E+01 0.  1.
         -5    1    1    2    0  502 -0.53498554242E+02 -0.27294045865E+02  0.97420142376E+02  0.11452168697E+03  0.41800000000E+01 0.  1.
        -11    1    3    3    0    0  0.25044632341E+02  0.19760347490E+02  0.73322899310E+02  0.79962194225E+02  0.00000000000E+00 0.  1.
         11    1    3    3    0    0 -0.35913068626E+02 -0.62256897382E+01 -0.36129622042E+01  0.36627328687E+02  0.00000000000E+00 0. -1.
</event>
<event>
 7    1  0.4274778E-006  0.8570093E+02  0.7561462E-02  0.1313610E+00
          2   -1    0    0  501    0  0.00000000000E+00  0.00000000000E+00  0.13926601088E+03  0.13926601088E+03  0.00000000000E+00 0. -1.
         -2   -1    0    0    0  501 -0.00000000000E+00 -0.00000000000E+00 -0.97892677547E+02  0.97892677547E+02  0.00000000000E+00 0.  1.
         23    2    1    2    0    0 -0.65959068274E+01 -0.20438755046E+02  0.53588495781E+02  0.10964720702E+03  0.93217672322E+02 0.  0.
          5    1    1    2  502    0  0.28700394784E+02  0.37580614621E+02  0.43908527709E+02  0.64664104893E+02  0.41800000000E+01 0.  1.
         -5    1    1    2    0  502 -0.22104487956E+02 -0.17141859575E+02 -0.56123690157E+02  0.62847376511E+02  0.41800000000E+01 0.  1.
        -11    1    3    3    0    0 -0.33355457478E+02 -0.47204378185E+02  0.33221153829E+02  0.66666970271E+02  0.00000000000E+00 0. -1.
         11    1    3    3    0    0  0.26759550651E+02  0.26765623139E+02  0.20367341952E+02  0.42980236752E+02  0.00000000000E+00 0.  1.
</event>
<event>
 7    1  0.4274778E-006  0.1217791E+03  0.7561462E-02  0.1240191E+00
          2   -1    0    0  501    0  0.00000000000E+00  0.00000000000E+00  0.13547250584E+03  0.13547250584E+03  0.00000000000E+00 0. -1.
         -2   -1    0    0    0  501 -0.00000000000E+00 -0.00000000000E+00 -0.13905184510E+03  0.13905184510E+03  0.00000000000E+00 0.  1.
         23    2    1    2    0    0 -0.67570285628E+01 -0.79025272912E+02  0.27531850957E+02  0.12317900576E+03  0.90135528224E+02 0.  0.
          5    1    1    2  502    0  0.10549320034E+02 -0.29116432613E+02  0.13738658669E+02  0.34136167672E+02  0.41800000000E+01 0. -1.
         -5    1    1    2    0  502 -0.37922914716E+01  0.10814170553E+03 -0.44849848879E+02  0.11720917751E+03  0.41800000000E+01 0. -1.
        -11    1    3    3    0    0 -0.33005645074E+02 -0.67927585216E+02  0.46736821285E+02  0.88813624539E+02  0.00000000000E+00 0. -1.
         11    1    3    3    0    0  0.26248616511E+02 -0.11097687697E+02 -0.19204970327E+02  0.34365381218E+02  0.00000000000E+00 0.  1.
</event>
<event>
 7    1  0.4274778E-006  0.1378065E+03  0.7561462E-02  0.1216311E+00
         -1   -1    0    0    0  501 -0.00000000000E+00  0.00000000000E+00  0.10653247472E+03  0.10653247472E+03  0.00000000000E+00 0.  1.
          1   -1    0    0  501    0  0.00000000000E+00 -0.00000000000E+00 -0.23165359797E+03  0.23165359797E+03  0.00000000000E+00 0. -1.
         23    2    1    2    0    0 -0.84326453634E+02 -0.26805567760E+02 -0.13424210754E+03  0.18470882480E+03  0.90922589464E+02 0.  0.
          5    1    1    2  502    0  0.11438710372E+03  0.12303624929E+02 -0.86268537959E+01  0.11544558758E+03  0.41800000000E+01 0. -1.
         -5    1    1    2    0  502 -0.30060650089E+02  0.14501942831E+02  0.17747838085E+02  0.38031660315E+02  0.41800000000E+01 0. -1.
        -11    1    3    3    0    0 -0.17887771127E+02  0.32952169776E+02 -0.41108374542E+02  0.55639161625E+02  0.00000000000E+00 0.  1.
         11    1    3    3    0    0 -0.66438682507E+02 -0.59757737536E+02 -0.93133733003E+02  0.12906966317E+03  0.00000000000E+00 0. -1.
</event>
<event>
 7    1  0.4274778E-006  0.2105456E+03  0.7561462E-02  0.1141135E+00
         -2   -1    0    0    0  501 -0.00000000000E+00  0.00000000000E+00  0.12622763095E+03  0.12622763095E+03  0.00000000000E+00 0.  1.
          2   -1    0    0  501    0  0.00000000000E+00 -0.00000000000E+00 -0.43670907665E+03  0.43670907665E+03  0.00000000000E+00 0. -1.
         23    2    1    2    0    0 -0.12363993567E+03  0.16048237704E+03 -0.22449625390E+03  0.31581025965E+03  0.91083066786E+02 0.  0.
          5    1    1    2  502    0  0.11302686956E+03 -0.13263962925E+03 -0.11213023560E+03  0.20726554616E+03  0.41800000000E+01 0. -1.
         -5    1    1    2    0  502  0.10613066107E+02 -0.27842747789E+02  0.26145043790E+02  0.39860901789E+02  0.41800000000E+01 0.  1.
        -11    1    3    3    0    0 -0.91774544765E+02  0.56131247038E+02 -0.76783336933E+02  0.13217021144E+03  0.00000000000E+00 0.  1.
         11    1    3    3    0    0 -0.31865390901E+02  0.10435113000E+03 -0.14771291696E+03  0.18364004821E+03  0.00000000000E+00 0. -1.
</event>
<event>
 7    1  0.4274778E-006  0.1911978E+03  0.7561462E-02  0.1157385E+00
          1   -1    0    0  501    0  0.00000000000E+00  0.00000000000E+00  0.80193217152E+02  0.80193217152E+02  0.00000000000E+00 0. -1.
         -1   -1    0    0    0  501 -0.00000000000E+00 -0.00000000000E+00 -0.62011660052E+03  0.62011660052E+03  0.00000000000E+00 0.  1.
         23    2    1    2    0    0  0.11436968641E+03  0.12811367604E+03 -0.11749582952E+03  0.22746145584E+03  0.91868954387E+02 0.  0.
          5    1    1    2  502    0 -0.67032632590E+02 -0.12849182245E+03 -0.38788991757E+03  0.41410093313E+03  0.41800000000E+01 0. -1.
         -5    1    1    2    0  502 -0.47337053823E+02  0.37814641133E+00 -0.34537636273E+02  0.58747428699E+02  0.41800000000E+01 0. -1.
        -11    1    3    3    0    0  0.29432114297E+02  0.93749158622E+02 -0.35418141070E+02  0.10444902494E+03  0.00000000000E+00 0. -1.
         11    1    3    3    0    0  0.84937572115E+02  0.34364517413E+02 -0.82077688452E+02  0.12301243090E+03  0.00000000000E+00 0.  1.
</event>
<event>
 7    1  0.4274778E-006  0.1148402E+03  0.7561462E-02  0.1251860E+00
         -1   -1    0    0    0  501 -0.00000000000E+00  0.00000000000E+00  0.13862993424E+03  0.13862993424E+03  0.00000000000E+00 0.  1.
          1   -1    0    0  501    0  0.00000000000E+00 -0.00000000000E+00 -0.11938420011E+03  0.11938420011E+03  0.00000000000E+00 0. -1.
         23    2    1    2    0    0 -0.44820019101E+02 -0.21213919175E+02  0.53156875473E+02  0.11666068135E+03  0.91242515768E+02 0.  0.
          5    1    1    2  502    0  0.17885131308E+02  0.69391716194E+02  0.75731195600E+01  0.72179725257E+02  0.41800000000E+01 0. -1.
         -5    1    1    2    0  502  0.26934887793E+02 -0.48177797019E+02 -0.41484260903E+02  0.69173727735E+02  0.41800000000E+01 0.  1.
        -11    1    3    3    0    0 -0.29291817006E+02 -0.56694997013E+02  0.41850683239E+02  0.76313910379E+02  0.00000000000E+00 0.  1.
         11    1    3    3    0    0 -0.15528202095E+02  0.35481077838E+02  0.11306192235E+02  0.40346770970E+02  0.00000000000E+00 0. -1.
</event>
<event>
 7    1  0.4274778E-006  0.1553222E+03  0.7561462E-02  0.1194082E+00
         -1   -1    0    0    0  501 -0.00000000000E+00  0.00000000000E+00  0.47635448192E+02  0.47635448192E+02  0.00000000000E+00 0.  1.
          1   -1    0    0  501    0  0.00000000000E+00 -0.00000000000E+00 -0.64735213912E+03  0.64735213912E+03  0.00000000000E+00 0. -1.
         23    2    1    2    0    0  0.33380255471E+01 -0.11631362133E+03 -0.42290937966E+03  0.44912487091E+03  0.96544318000E+02 0.  0.
          5    1    1    2  502    0 -0.30435970287E+02  0.12890483380E+03 -0.16888582802E+03  0.21466881415E+03  0.41800000000E+01 0.  1.
         -5    1    1    2    0  502  0.27097944739E+02 -0.12591212470E+02 -0.79214832407E+01  0.31193902245E+02  0.41800000000E+01 0.  1.
        -11    1    3    3    0    0 -0.24901785076E+02  0.32422669777E+01 -0.42418793388E+02  0.49294677478E+02  0.00000000000E+00 0.  1.
         11    1    3    3    0    0  0.28239810623E+02 -0.11955588831E+03 -0.38049058628E+03  0.39983019343E+03  0.00000000000E+00 0. -1.
</event>
<event>
 7    1  0.4274778E-006  0.7382906E+02  0.7561462E-02  0.1347536E+00
         -2   -1    0    0    0  501 -0.00000000000E+00  0.00000000000E+00  0.55561475578E+02  0.55561475578E+02  0.00000000000E+00 0.  1.
          2   -1    0    0  501    0  0.00000000000E+00 -0.00000000000E+00 -0.27498220822E+03  0.27498220822E+03  0.00000000000E+00 0. -1.
         23    2    1    2    0    0  0.53245325999E+02  0.89876436680E+01 -0.13135657653E+03  0.16831455366E+03  0.90329376696E+02 0.  0.
          5    1    1    2  502    0  0.15993249258E+01  0.82896165961E+01  0.29673755552E+02  0.31133257974E+02  0.41800000000E+01 0.  1.
         -5    1    1    2    0  502 -0.54844650925E+02 -0.17277260264E+02 -0.11773791166E+03  0.13109587217E+03  0.41800000000E+01 0.  1.
        -11    1    3    3    0    0  0.17028835564E+02  0.32997046450E+02 -0.86284790800E+01  0.38121345285E+02  0.00000000000E+00 0.  1.
         11    1    3    3    0    0  0.36216490436E+02 -0.24009402782E+02 -0.12272809745E+03  0.13019320837E+03  0.00000000000E+00 0. -1.
</event>
<event>
 7    1  0.4274778E-006  0.1194095E+03  0.7561462E-02  0.1244074E+00
          2   -1    0    0  501    0  0.00000000000E+00  0.00000000000E+00  0.16693698534E+03  0.16693698534E+03  0.00000000000E+00 0. -1.
         -2   -1    0    0    0  501 -0.00000000000E+00 -0.00000000000E+00 -0.16564867988E+03  0.16564867988E+03  0.00000000000E+00 0.  1.
         23    2    1    2    0    0 -0.56863469646E+02 -0.10410591102E+03  0.40484368994E+02  0.15579212738E+03  0.92524093787E+02 0.  0.
          5    1    1    2  502    0  0.53456164323E+02  0.86392730334E+02 -0.81696996032E+02  0.13043441616E+03  0.41800000000E+01 0.  1.
         -5    1    1    2    0  502  0.34073053234E+01  0.17713180689E+02  0.42500932492E+02  0.46359121674E+02  0.41800000000E+01 0.  1.
        -11    1    3    3    0    0 -0.36886348771E+02 -0.67355220411E+02 -0.22644092698E+02  0.80062996299E+02  0.00000000000E+00 0.  1.
         11    1    3    3    0    0 -0.19977120876E+02 -0.36750690612E+02  0.63128461692E+02  0.75729131083E+02  0.00000000000E+00 0. -1.
</event>
<event>
 7    1  0.4274778E-006  0.1160435E+03  0.7561462E-02  0.1249771E+00
          2   -1    0    0  501    0  0.00000000000E+00  0.00000000000E+00  0.24192367867E+03  0.24192367867E+03  0.00000000000E+00 0. -1.
         -2   -1    0    0    0  501 -0.00000000000E+00 -0.00000000000E+00 -0.77261743049E+02  0.77261743049E+02  0.00000000000E+00 0.  1.
         23    2    1    2    0    0  0.53347200410E+02 -0.17993943599E+02  0.14687126687E+03  0.18085750077E+03  0.89266795365E+02 0.  0.
          5    1    1    2  502    0 -0.84304097082E+00  0.59486127938E+02  0.34938700328E+02  0.69119427919E+02  0.41800000000E+01 0.  1.
         -5    1    1    2    0  502 -0.52504159439E+02 -0.41492184340E+02 -0.17148031582E+02  0.69208493025E+02  0.41800000000E+01 0.  1.
        -11    1    3    3    0    0  0.21836219757E+02  0.36451253082E+02  0.63820683406E+02  0.76671989507E+02  0.00000000000E+00 0. -1.
         11    1    3    3    0    0  0.31510980653E+02 -0.54445196681E+02  0.83050583467E+02  0.10418551127E+03  0.00000000000E+00 0.  1.
</event>
<event>
 7    1  0.4274778E-006  0.1060318E+03  0.7561462E-02  0.1268100E+00
          1   -1    0    0  501    0  0.00000000000E+00  0.00000000000E+00  0.33149274807E+02  0.33149274807E+02  0.00000000000E+00 0. -1.
         -1   -1    0    0    0  501 -0.00000000000E+00 -0.00000000000E+00 -0.49401975492E+03  0.49401975492E+03  0.00000000000E+00 0.  1.
         23    2    1    2    0    0  0.61649599319E+02 -0.28409330584E+02 -0.20034461696E+03  0.23028453226E+03  0.91023277761E+02 0.  0.
          5    1    1    2  502    0 -0.11666479132E+02  0.65515827619E+02 -0.19642189444E+03  0.20743062315E+03  0.41800000000E+01 0. -1.
         -5    1    1    2    0  502 -0.49983120187E+02 -0.37106497035E+02 -0.64103968720E+02  0.89453874324E+02  0.41800000000E+01 0. -1.
        -11    1    3    3    0    0  0.97443617862E+01  0.13244251730E+02  0.26534510058E+01  0.16655437333E+02  0.00000000000E+00 0. -1.
         11    1    3    3    0    0  0.51905237533E+02 -0.41653582314E+02 -0.20299806796E+03  0.21362909493E+03  0.00000000000E+00 0.  1.
</event>
<event>
 7    1  0.4274778E-006  0.6870769E+02  0.7561462E-02  0.1364544E+00
         -2   -1    0    0    0  501 -0.00000000000E+00  0.00000000000E+00  0.64996039588E+03  0.64996039588E+03  0.00000000000E+00 0.  1.
          2   -1    0    0  501    0  0.00000000000E+00 -0.00000000000E+00 -0.20497406239E+02  0.20497406239E+02  0.00000000000E+00 0. -1.
         23    2    1    2    0    0  0.19677196776E+02  0.30895133939E+02  0.31174617645E+03  0.32704526824E+03  0.91821716235E+02 0.  0.
          5    1    1    2  502    0 -0.41328031958E+01 -0.14249230865E+02 -0.76602481872E+01  0.17212566478E+02  0.41800000000E+01 0. -1.
         -5    1    1    2    0  502 -0.15544393580E+02 -0.16645903075E+02  0.32537706139E+03  0.32619996741E+03  0.41800000000E+01 0. -1.
        -11    1    3    3    0    0  0.26307984206E+02 -0.28670801190E+02  0.12527229937E+03  0.13117649890E+03  0.00000000000E+00 0. -1.
         11    1    3    3    0    0 -0.66307874305E+01  0.59565935129E+02  0.18647387708E+03  0.19586876934E+03  0.00000000000E+00 0.  1.
</event>
<event>
 7    1  0.4274778E-006  0.1225972E+03  0.7561462E-02  0.1238873E+00
          1   -1    0    0  501    0  0.00000000000E+00  0.00000000000E+00  0.41034507702E+03  0.41034507702E+03  0.00000000000E+00 0. -1.
         -1   -1    0    0    0  501 -0.00000000000E+00 -0.00000000000E+00 -0.43139857323E+02  0.43139857323E+02  0.00000000000E+00 0.  1.
         23    2    1    2    0    0  0.58442131811E+02 -0.48164159458E+02  0.19082472010E+03  0.22436197249E+03  0.90492827734E+02 0.  0.
          5    1    1    2  502    0 -0.74394275631E+02 -0.24362374689E+01  0.44292217244E+02  0.86716298399E+02  0.41800000000E+01 0. -1.
         -5    1    1    2    0  502  0.15952143819E+02  0.50600396927E+02  0.13208828235E+03  0.14240666346E+03  0.41800000000E+01 0. -1.
        -11    1    3    3    0    0  0.29865948678E+02 -0.73434982190E+02  0.11811280165E+03  0.14225085382E+03  0.00000000000E+00 0.  1.
         11    1    3    3    0    0  0.28576183133E+02  0.25270822732E+02  0.72711918453E+02  0.82111118670E+02  0.00000000000E+00 0. -1.
</event>
<event>
 7    1  0.4274778E-006  0.2614118E+03  0.7561462E-02  0.1106298E+00
         -2   -1    0    0    0  501 -0.00000000000E+00  0.00000000000E+00  0.46685970573E+03  0.46685970573E+03  0.00000000000E+00 0.  1.
          2   -1    0    0  501    0  0.00000000000E+00 -0.00000000000E+00 -0.20936150092E+03  0.20936150092E+03  0.00000000000E+00 0. -1.
         23    2    1    2    0    0  0.22298497599E+03 -0.11497427771E+03 -0.32164344772E+02  0.27311639831E+03  0.10303707050E+03 0.  0.
          5    1    1    2  502    0 -0.20408079224E+03  0.12745194267E+03  0.20742837983E+03  0.31770579568E+03  0.41800000000E+01 0.  1.
         -5    1    1    2    0  502 -0.18904183753E+02 -0.12477664959E+02  0.82234169756E+02  0.85399012650E+02  0.41800000000E+01 0.  1.
        -11    1    3    3    0    0  0.21747107175E+03 -0.93057374339E+02 -0.52964371685E+02  0.24240166385E+03  0.00000000000E+00 0. -1.
         11    1    3    3    0    0  0.55139042397E+01 -0.21916903374E+02  0.20800026913E+02  0.30714734462E+02  0.00000000000E+00 0.  1.
</event>
<event>
 7    1  0.4274778E-006  0.1032173E+03  0.7561462E-02  0.1273672E+00
         -1   -1    0    0    0  501 -0.00000000000E+00  0.00000000000E+00  0.61734504073E+03  0.61734504073E+03  0.00000000000E+00 0.  1.
          1   -1    0    0  501    0  0.00000000000E+00 -0.00000000000E+00 -0.23224603534E+02  0.23224603534E+02  0.00000000000E+00 0. -1.
         23    2    1    2    0    0  0.31004305339E+02  0.35733983412E+02  0.20774373266E+03  0.23170507435E+03  0.91058214885E+02 0.  0.
          5    1    1    2  502    0 -0.15337434095E+02  0.33527000682E+02  0.37294335355E+02  0.52608331174E+02  0.41800000000E+01 0. -1.
         -5    1    1    2    0  502 -0.15666871244E+02 -0.69260984093E+02  0.34908236918E+03  0.35625623874E+03  0.41800000000E+01 0. -1.
        -11    1    3    3    0    0  0.31890822043E+02 -0.23085654930E+02  0.11804574834E+03  0.12443781859E+03  0.00000000000E+00 0.  1.
         11    1    3    3    0    0 -0.88651670389E+00  0.58819638341E+02  0.89697984321E+02  0.10726725576E+03  0.00000000000E+00 0. -1.
</event>
<event>
 7    1  0.4274778E-006  0.1334402E+03  0.7561462E-02  0.1222439E+00
          1   -1    0    0  501    0  0.00000000000E+00  0.00000000000E+00  0.62870886242E+03  0.62870886242E+03  0.00000000000E+00 0. -1.
         -1   -1    0    0    0  501 -0.00000000000E+00 -0.00000000000E+00 -0.46891976300E+02  0.46891976300E+02  0.00000000000E+00 0.  1.
         23    2    1    2    0    0  0.73160602401E+02  0.85629608119E+02  0.40782021026E+03  0.43351161900E+03  0.94499187204E+02 0.  0.
          5    1    1    2  502    0 -0.78354399946E+02 -0.97291128118E+02  0.82843578700E+02  0.14995168066E+03  0.41800000000E+01 0. -1.
         -5    1    1    2    0  502  0.51937975446E+01  0.11661519999E+02  0.91153097155E+02  0.92137539052E+02  0.41800000000E+01 0. -1.
        -11    1    3    3    0    0  0.81438572270E+02  0.58981747037E+02  0.38360652314E+03  0.39656657969E+03  0.00000000000E+00 0. -1.
         11    1    3    3    0    0 -0.82779698691E+01  0.26647861082E+02  0.24213687127E+02  0.36945039311E+02  0.00000000000E+00 0.  1.
</event>
<event>
 7    1  0.4274778E-006  0.1139973E+03  0.7561462E-02  0.1253342E+00
         -1   -1    0    0    0  501 -0.00000000000E+00  0.00000000000E+00  0.50793979489E+03  0.50793979489E+03  0.00000000000E+00 0.  1.
          1   -1    0    0  501    0  0.00000000000E+00 -0.00000000000E+00 -0.32111401020E+02  0.32111401020E+02  0.00000000000E+00 0. -1.
         23    2    1    2    0    0 -0.10189063075E+02 -0.39123244895E+02  0.98058282266E+02  0.14006146797E+03  0.91473180719E+02 0.  0.
          5    1    1    2  502    0 -0.50727415282E+02 -0.71955259180E+01  0.10913048840E+03  0.12063159683E+03  0.41800000000E+01 0. -1.
         -5    1    1    2    0  502  0.60916478357E+02  0.46318770813E+02  0.26863962320E+03  0.27935813111E+03  0.41800000000E+01 0. -1.
        -11    1    3    3    0    0  0.18554497146E+02  0.24148971045E+02  0.32132481193E+02  0.44271192829E+02  0.00000000000E+00 0.  1.
         11    1    3    3    0    0 -0.28743560220E+02 -0.63272215940E+02  0.65925801073E+02  0.95790275139E+02  0.00000000000E+00 0. -1.
</event>
<event>
 7    1  0.4274778E-006  0.1451706E+03  0.7561462E-02  0.1206536E+00
          2   -1    0    0  501    0  0.00000000000E+00  0.00000000000E+00  0.39067953161E+03  0.39067953161E+03  0.00000000000E+00 0. -1.
         -2   -1    0    0    0  501 -0.00000000000E+00 -0.00000000000E+00 -0.67374922130E+02  0.67374922130E+02  0.00000000000E+00 0.  1.
         23    2    1    2    0    0 -0.45752219547E+02  0.97259678906E+02  0.25081339861E+03  0.28735002926E+03  0.90055358860E+02 0.  0.
          5    1    1    2  502    0  0.70229946816E+02 -0.20631944182E+02  0.26568257604E+02  0.77982480485E+02  0.41800000000E+01 0. -1.
         -5    1    1    2    0  502 -0.24477727269E+02 -0.76627734725E+02  0.45922953267E+02  0.92721943994E+02  0.41800000000E+01 0.  1.
        -11    1    3    3    0    0  0.24973844558E+02  0.27058122032E+02  0.41210676832E+02  0.55264407759E+02  0.00000000000E+00 0.  1.
         11    1    3    3    0    0 -0.70726064105E+02  0.70201556874E+02  0.20960272177E+03  0.23208562150E+03  0.00000000000E+00 0. -1.
</event>
<event>
 7    1  0.4274778E-006  0.1083940E+03  0.7561462E-02  0.1263573E+00
         -1   -1    0    0    0  501 -0.00000000000E+00  0.00000000000E+00  0.43364347654E+02  0.43364347654E+02  0.00000000000E+00 0.  1.
          1   -1    0    0  501    0  0.00000000000E+00 -0.00000000000E+00 -0.62258890222E+03  0.62258890222E+03  0.00000000000E+00 0. -1.
         23    2    1    2    0    0 -0.91467536222E+02 -0.96662350444E+01 -0.43689407265E+03  0.45532273310E+03  0.89345477074E+02 0.  0.
          5    1    1    2  502    0  0.40738128329E+02  0.16719805268E+02  0.13739347877E+02  0.46318344833E+02  0.41800000000E+01 0. -1.
         -5    1    1    2    0  502  0.50729407893E+02 -0.70535702238E+01 -0.15606982979E+03  0.16431217194E+03  0.41800000000E+01 0. -1.
        -11    1    3    3    0    0 -0.59147047694E+01  0.27325978340E+02 -0.49272532669E+02  0.56652231204E+02  0.00000000000E+00 0.  1.
         11    1    3    3    0    0 -0.85552831452E+02 -0.36992213384E+02 -0.38762153999E+03  0.39867050189E+03  0.00000000000E+00 0. -1.
</event>
<event>
 7    1  0.4274778E-006  0.1012690E+03  0.7561462E-02  0.1277650E+00
         -2   -1    0    0    0  501 -0.00000000000E+00  0.00000000000E+00  0.92375177011E+03  0.92375177011E+03  0.00000000000E+00 0. -1.
          2   -1    0    0  501    0  0.00000000000E+00 -0.00000000000E+00 -0.25044353996E+02  0.25044353996E+02  0.00000000000E+00 0.  1.
         23    2    1    2    0    0  0.66646587025E+02  0.61885756578E+02  0.24255288423E+03  0.27466098855E+03  0.91297001902E+02 0.  0.
          5    1    1    2  502    0 -0.73643980296E+01  0.13210431768E+02  0.40558268130E+03  0.40588610919E+03  0.41800000000E+01 0. -1.
         -5    1    1    2    0  502 -0.59282188996E+02 -0.75096188346E+02  0.25057185059E+03  0.26824902636E+03  0.41800000000E+01 0. -1.
        -11    1    3    3    0    0  0.27845137269E+02  0.22597357230E+02  0.20445146208E+03  0.20757261999E+03  0.00000000000E+00 0. -1.
         11    1    3    3    0    0  0.38801449756E+02  0.39288399348E+02  0.38101422146E+02  0.67088368560E+02  0.00000000000E+00 0.  1.
</event>
<event>
 7    1  0.4274778E-006  0.1330067E+03  0.7561462E-02  0.1223061E+00
         -1   -1    0    0    0  501 -0.00000000000E+00  0.00000000000E+00  0.21500121193E+03  0.21500121193E+03  0.00000000000E+00 0.  1.
          1   -1    0    0  501    0  0.00000000000E+00 -0.00000000000E+00 -0.19162019675E+03  0.19162019675E+03  0.00000000000E+00 0. -1.
         23    2    1    2    0    0  0.43476192786E+02 -0.85665918306E+02 -0.13069623143E+03  0.18613127570E+03  0.91293581298E+02 0.  0.
          5    1    1    2  502    0 -0.19720623813E+01  0.10396831758E+03  0.13653655260E+03  0.17167703016E+03  0.41800000000E+01 0.  1.
         -5    1    1    2    0  502 -0.41504130405E+02 -0.18302399271E+02  0.17540694007E+02  0.48813102811E+02  0.41800000000E+01 0.  1.
        -11    1    3    3    0    0  0.54676510705E+02 -0.89218383715E+02 -0.73829815344E+02  0.12806358752E+03  0.00000000000E+00 0.  1.
         11    1    3    3    0    0 -0.11200317918E+02  0.35524654093E+01 -0.56866416088E+02  0.58067688181E+02  0.00000000000E+00 0. -1.
</event>
<event>
 7    1  0.4274778E-006  0.8811115E+02  0.7561462E-02  0.1307491E+00
         -1   -1    0    0    0  501 -0.00000000000E+00  0.00000000000E+00  0.55574728848E+02  0.55574728848E+02  0.00000000000E+00 0.  1.
          1   -1    0    0  501    0  0.00000000000E+00 -0.00000000000E+00 -0.21842569998E+03  0.21842569998E+03  0.00000000000E+00 0. -1.
         23    2    1    2    0    0 -0.86023929089E+01 -0.19484866935E+02 -0.63556873855E+02  0.11287778853E+03  0.90819919213E+02 0.  0.
          5    1    1    2  502    0  0.64662354327E+02  0.15336528520E+02 -0.33680353731E+02  0.74620826862E+02  0.41800000000E+01 0.  1.
         -5    1    1    2    0  502 -0.56059961418E+02  0.41483384149E+01 -0.65613743546E+02  0.86501813437E+02  0.41800000000E+01 0.  1.
        -11    1    3    3    0    0 -0.25318226454E+02  0.27299033593E+01  0.14994549598E+02  0.29551674754E+02  0.00000000000E+00 0.  1.
         11    1    3    3    0    0  0.16715833545E+02 -0.22214770294E+02 -0.78551423453E+02  0.83326113775E+02  0.00000000000E+00 0. -1.
</event>
<event>
 7    1  0.4274778E-006  0.1064242E+03  0.7561462E-02  0.1267339E+00
          1   -1    0    0  501    0  0.00000000000E+00  0.00000000000E+00  0.21254160130E+03  0.21254160130E+03  0.00000000000E+00 0. -1.
         -1   -1    0    0    0  501 -0.00000000000E+00 -0.00000000000E+00 -0.93790498887E+02  0.93790498887E+02  0.00000000000E+00 0.  1.
         23    2    1    2    0    0 -0.22701175485E+02  0.80090255693E+02  0.91499778481E+02  0.15362377741E+03  0.91094802812E+02 0.  0.
          5    1    1    2  502    0  0.30773071600E+02 -0.57224015221E+02  0.74801763068E+02  0.99168271195E+02  0.41800000000E+01 0. -1.
         -5    1    1    2    0  502 -0.80718961144E+01 -0.22866240472E+02 -0.47550439140E+02  0.53540051575E+02  0.41800000000E+01 0. -1.
        -11    1    3    3    0    0  0.29082089708E+02  0.16327460300E+01  0.26056040953E+02  0.39081339173E+02  0.00000000000E+00 0. -1.
         11    1    3    3    0    0 -0.51783265193E+02  0.78457509663E+02  0.65443737528E+02  0.11454243824E+03  0.00000000000E+00 0.  1.
</event>
<event>
 7    1  0.4274778E-006  0.1385045E+03  0.7561462E-02  0.1215356E+00
         -2   -1    0    0    0  501 -0.00000000000E+00  0.00000000000E+00  0.55358915762E+02  0.55358915762E+02  0.00000000000E+00 0.  1.
          2   -1    0    0  501    0  0.00000000000E+00 -0.00000000000E+00 -0.40781747073E+03  0.40781747073E+03  0.00000000000E+00 0. -1.
         23    2    1    2    0    0  0.37480609997E+01  0.10075048689E+03 -0.19504751293E+03  0.23825327621E+03  0.92500717587E+02 0.  0.
          5    1    1    2  502    0  0.12304913689E+02 -0.11700648416E+03 -0.75672791865E+02  0.13994917672E+03  0.41800000000E+01 0.  1.
         -5    1    1    2    0  502 -0.16052974689E+02  0.16255997268E+02 -0.81738250175E+02  0.84973933563E+02  0.41800000000E+01 0.  1.
        -11    1    3    3    0    0  0.40027977704E+02  0.89548440019E+02 -0.15145192470E+03  0.18044070384E+03  0.00000000000E+00 0. -1.
         11    1    3    3    0    0 -0.36279916704E+02  0.11202046872E+02 -0.43595588228E+02  0.57812572362E+02  0.00000000000E+00 0.  1.
</event>
<event>
 7    1  0.4274778E-006  0.9599045E+02  0.7561462E-02  0.1288961E+00
         -1   -1    0    0    0  501 -0.00000000000E+00  0.00000000000E+00  0.13376990268E+02  0.13376990268E+02  0.00000000000E+00 0.  1.
          1   -1    0    0  501    0  0.00000000000E+00 -0.00000000000E+00 -0.10900006251E+04  0.10900006251E+04  0.00000000000E+00 0. -1.
         23    2    1    2    0    0 -0.44290267608E+02 -0.28245148732E+02 -0.50320013762E+03  0.51412306936E+03  0.91393302367E+02 0.  0.
          5    1    1    2  502    0  0.55733955479E+02  0.44257473653E+02 -0.15794374455E+03  0.17328790094E+03  0.41800000000E+01 0.  1.
         -5    1    1    2    0  502 -0.11443687871E+02 -0.16012324920E+02 -0.41547975269E+03  0.41596664510E+03  0.41800000000E+01 0.  1.
        -11    1    3    3    0    0  0.25736491058E+02 -0.13281871819E+02 -0.84040387220E+02  0.88890729410E+02  0.00000000000E+00 0. -1.
         11    1    3    3    0    0 -0.70026758666E+02 -0.14963276913E+02 -0.41915975040E+03  0.42523233995E+03  0.00000000000E+00 0.  1.
</event>
<event>
 7    1  0.4274778E-006  0.1382975E+03  0.7561462E-02  0.1215638E+00
          1   -1    0    0  501    0  0.00000000000E+00  0.00000000000E+00  0.27218701414E+03  0.27218701414E+03  0.00000000000E+00 0. -1.
         -1   -1    0    0    0  501 -0.00000000000E+00 -0.00000000000E+00 -0.77698908164E+02  0.77698908164E+02  0.00000000000E+00 0.  1.
         23    2    1    2    0    0  0.91428909410E+02 -0.31438831173E+02  0.93193371230E+02  0.16212121234E+03  0.90833019700E+02 0.  0.
          5    1    1    2  502    0 -0.80247891363E+02  0.76708690752E+02  0.67022452547E+02  0.12974370447E+03  0.41800000000E+01 0.  1.
         -5    1    1    2    0  502 -0.11181018047E+02 -0.45269859579E+02  0.34272282195E+02  0.58021005487E+02  0.41800000000E+01 0.  1.
        -11    1    3    3    0    0  0.47503743249E+02 -0.51788796110E+02  0.89184445200E+02  0.11354536666E+03  0.00000000000E+00 0. -1.
         11    1    3    3    0    0  0.43925166160E+02  0.20349964937E+02  0.40089260295E+01  0.48575845675E+02  0.00000000000E+00 0.  1.
</event>
<event>
 7    1  0.4274778E-006  0.1031395E+03  0.7561462E-02  0.1273829E+00
          2   -1    0    0  501    0  0.00000000000E+00  0.00000000000E+00  0.71586522500E+03  0.71586522500E+03  0.00000000000E+00 0. -1.
         -2   -1    0    0    0  501 -0.00000000000E+00 -0.00000000000E+00 -0.17287082578E+02  0.17287082578E+02  0.00000000000E+00 0.  1.
         23    2    1    2    0    0  0.60081349887E+01 -0.10165760901E+02  0.37917849494E+03  0.38992745155E+03  0.90153458429E+02 0.  0.
          5    1    1    2  502    0  0.48644540224E+02 -0.20040116621E+02  0.80457397844E+02  0.96222465338E+02  0.41800000000E+01 0. -1.
         -5    1    1    2    0  502 -0.54652675213E+02  0.30205877522E+02  0.23894224964E+03  0.24700239069E+03  0.41800000000E+01 0. -1.
        -11    1    3    3    0    0 -0.21504024395E+02 -0.43002362317E+02  0.20262998279E+03  0.20825593906E+03  0.00000000000E+00 0.  1.
         11    1    3    3    0    0  0.27512159384E+02  0.32836601416E+02  0.17654851215E+03  0.18167151249E+03  0.00000000000E+00 0. -1.
</event>
<event>
 7    1  0.4274778E-006  0.1272312E+03  0.7561462E-02  0.1231623E+00
          2   -1    0    0  501    0  0.00000000000E+00  0.00000000000E+00  0.37108777036E+02  0.37108777036E+02  0.00000000000E+00 0. -1.
         -2   -1    0    0    0  501 -0.00000000000E+00 -0.00000000000E+00 -0.48388342471E+03  0.48388342471E+03  0.00000000000E+00 0.  1.
         23    2    1    2    0    0  0.70731149636E+02  0.32400161459E+02 -0.16935826567E+03  0.20689376497E+03  0.89833968199E+02 0.  0.
          5    1    1    2  502    0  0.95057432900E+01 -0.52906314481E+02 -0.17033629469E+03  0.17866550579E+03  0.41800000000E+01 0.  1.
         -5    1    1    2    0  502 -0.80236892926E+02  0.20506153021E+02 -0.10708008731E+03  0.13543293099E+03  0.41800000000E+01 0.  1.
        -11    1    3    3    0    0  0.38573730460E+02 -0.29036933935E+02 -0.84339149960E+02  0.97181111488E+02  0.00000000000E+00 0. -1.
         11    1    3    3    0    0  0.32157419176E+02  0.61437095395E+02 -0.85019115711E+02  0.10971265349E+03  0.00000000000E+00 0.  1.
</event>
<event>
 7    1  0.4274778E-006  0.1095045E+03  0.7561462E-02  0.1261490E+00
          4   -1    0    0  501    0  0.00000000000E+00  0.00000000000E+00  0.66028270946E+02  0.66028270946E+02  0.00000000000E+00 0. -1.
         -4   -1    0    0    0  501 -0.00000000000E+00 -0.00000000000E+00 -0.24035725326E+03  0.24035725326E+03  0.00000000000E+00 0.  1.
         23    2    1    2    0    0  0.34628068536E+02  0.28771940712E+01 -0.21898919200E+02  0.10616117762E+03  0.97894083551E+02 0.  0.
          5    1    1    2  502    0 -0.68029463387E+02  0.32915544664E+02 -0.11814213405E+03  0.14030850725E+03  0.41800000000E+01 0. -1.
         -5    1    1    2    0  502  0.33401394850E+02 -0.35792738735E+02 -0.34287929063E+02  0.59915839338E+02  0.41800000000E+01 0. -1.
        -11    1    3    3    0    0 -0.27462529238E+02 -0.12567985861E+02 -0.28893915781E+02  0.41797166769E+02  0.00000000000E+00 0.  1.
         11    1    3    3    0    0  0.62090597774E+02  0.15445179932E+02  0.69949965805E+01  0.64364010847E+02  0.00000000000E+00 0. -1.
</event>
<event>
 7    1  0.4274778E-006  0.2227415E+03  0.7561462E-02  0.1131856E+00
         -4   -1    0    0    0  501 -0.00000000000E+00  0.00000000000E+00  0.10447913752E+04  0.10447913752E+04  0.00000000000E+00 0.  1.
          4   -1    0    0  501    0  0.00000000000E+00 -0.00000000000E+00 -0.52127016054E+02  0.52127016054E+02  0.00000000000E+00 0. -1.
         23    2    1    2    0    0  0.16931058170E+03 -0.11531469026E+03  0.40872371382E+03  0.46557216926E+03  0.87970561433E+02 0.  0.
          5    1    1    2  502    0 -0.64353559044E+02 -0.19528815916E+02  0.20089692637E+03  0.21189573530E+03  0.41800000000E+01 0. -1.
         -5    1    1    2    0  502 -0.10495702266E+03  0.13484350618E+03  0.38304371894E+03  0.41945048669E+03  0.41800000000E+01 0. -1.
        -11    1    3    3    0    0  0.14108147282E+03 -0.80784084360E+02  0.37781532376E+03  0.41130824101E+03  0.00000000000E+00 0.  1.
         11    1    3    3    0    0  0.28229108878E+02 -0.34530605901E+02  0.30908390067E+02  0.54263928244E+02  0.00000000000E+00 0. -1.
</event>
<event>
 7    1  0.4274778E-006  0.1053308E+03  0.7561462E-02  0.1269469E+00
         -2   -1    0    0    0  501 -0.00000000000E+00  0.00000000000E+00  0.10982285796E+03  0.10982285796E+03  0.00000000000E+00 0.  1.
          2   -1    0    0  501    0  0.00000000000E+00 -0.00000000000E+00 -0.17332062759E+03  0.17332062759E+03  0.00000000000E+00 0. -1.
         23    2    1    2    0    0 -0.72709942673E+02  0.44261367776E+02 -0.40043906966E+02  0.13003559482E+03  0.89777151846E+02 0.  0.
          5    1    1    2  502    0  0.39012934398E+01 -0.55528989225E+01  0.46721138582E+02  0.47396117640E+02  0.41800000000E+01 0.  1.
         -5    1    1    2    0  502  0.68808649233E+02 -0.38708468853E+02 -0.70175001245E+02  0.10571177309E+03  0.41800000000E+01 0.  1.
        -11    1    3    3    0    0 -0.34891476148E+02  0.69774238974E+02 -0.27585085420E+02  0.82745371290E+02  0.00000000000E+00 0. -1.
         11    1    3    3    0    0 -0.37818466524E+02 -0.25512871198E+02 -0.12458821546E+02  0.47290223528E+02  0.00000000000E+00 0.  1.
</event>
<event>
 7    1  0.4274778E-006  0.1346299E+03  0.7561462E-02  0.1220743E+00
         -2   -1    0    0    0  501 -0.00000000000E+00  0.00000000000E+00  0.37084386944E+02  0.37084386944E+02  0.00000000000E+00 0.  1.
          2   -1    0    0  501    0  0.00000000000E+00 -0.00000000000E+00 -0.60442474748E+03  0.60442474748E+03  0.00000000000E+00 0. -1.
         23    2    1    2    0    0 -0.46395362009E+02  0.63249913788E+02 -0.36654639091E+03  0.38578467605E+03  0.91216656229E+02 0.  0.
          5    1    1    2  502    0  0.89636654238E+02 -0.57025614403E+02 -0.17515211450E+03  0.20489603728E+03  0.41800000000E+01 0. -1.
         -5    1    1    2    0  502 -0.43241292229E+02 -0.62242993841E+01 -0.25641855125E+02  0.50828421092E+02  0.41800000000E+01 0.  1.
        -11    1    3    3    0    0  0.83919611413E+01  0.63712801509E+02 -0.22524383710E+03  0.23423179169E+03  0.00000000000E+00 0.  1.
         11    1    3    3    0    0 -0.54787323151E+02 -0.46288772179E+00 -0.14130255381E+03  0.15155288436E+03  0.00000000000E+00 0. -1.
</event>
<event>
 7    1  0.4274778E-006  0.1004526E+03  0.7561462E-02  0.1279347E+00
          2   -1    0    0  501    0  0.00000000000E+00  0.00000000000E+00  0.11026357585E+03  0.11026357585E+03  0.00000000000E+00 0.  1.
         -2   -1    0    0    0  501 -0.00000000000E+00 -0.00000000000E+00 -0.11592265073E+03  0.11592265073E+03  0.00000000000E+00 0. -1.
         23    2    1    2    0    0 -0.24148770108E+02  0.21817204087E+02 -0.15372452289E+02  0.96565193949E+02  0.89606757006E+02 0.  0.
          5    1    1    2  502    0  0.30835755438E+02  0.48975676883E+02  0.41736830647E+01  0.58175190330E+02  0.41800000000E+01 0. -1.
         -5    1    1    2    0  502 -0.66869853298E+01 -0.70792880970E+02  0.55396943390E+01  0.71445842301E+02  0.41800000000E+01 0. -1.
        -11    1    3    3    0    0  0.18723185512E+02  0.21853259638E+02  0.24668104491E+02  0.37903007951E+02  0.00000000000E+00 0.  1.
         11    1    3    3    0    0 -0.42871955620E+02 -0.36055551651E-01 -0.40040556781E+02  0.58662185998E+02  0.00000000000E+00 0. -1.
</event>
<event>
 7    1  0.4274778E-006  0.1438081E+03  0.7561462E-02  0.1208295E+00
          3   -1    0    0  501    0  0.00000000000E+00  0.00000000000E+00  0.55357788966E+02  0.55357788966E+02  0.00000000000E+00 0. -1.
         -3   -1    0    0    0  501 -0.00000000000E+00 -0.00000000000E+00 -0.54264475412E+03  0.54264475412E+03  0.00000000000E+00 0.  1.
         23    2    1    2    0    0  0.99408474522E+02 -0.64587837903E+02 -0.12111472774E+03  0.19330182878E+03  0.92968737345E+02 0.  0.
          5    1    1    2  502    0 -0.92904177714E+02  0.97785168065E+02 -0.32016552223E+03  0.34744288647E+03  0.41800000000E+01 0. -1.
         -5    1    1    2    0  502 -0.65042968074E+01 -0.33197330161E+02 -0.46006715190E+02  0.57257827843E+02  0.41800000000E+01 0. -1.
        -11    1    3    3    0    0  0.26378547499E+02 -0.15617959325E+02  0.12701515364E+02  0.33182479024E+02  0.00000000000E+00 0. -1.
         11    1    3    3    0    0  0.73029927023E+02 -0.48969878579E+02 -0.13381624310E+03  0.16011934976E+03  0.00000000000E+00 0.  1.
</event>
<event>
 7    1  0.4274778E-006  0.8939648E+02  0.7561462E-02  0.1304320E+00
          3   -1    0    0  501    0  0.00000000000E+00  0.00000000000E+00  0.29165850856E+02  0.29165850856E+02  0.00000000000E+00 0. -1.
         -3   -1    0    0    0  501 -0.00000000000E+00 -0.00000000000E+00 -0.44131077377E+03  0.44131077377E+03  0.00000000000E+00 0.  1.
         23    2    1    2    0    0 -0.65003534744E+01 -0.21228577340E+02 -0.12901695328E+03  0.16015111618E+03  0.92250196143E+02 0.  0.
          5    1    1    2  502    0  0.10369401676E+02  0.67404802995E+02 -0.98178047025E+02  0.11961326547E+03  0.41800000000E+01 0. -1.
         -5    1    1    2    0  502 -0.38690482013E+01 -0.46176225656E+02 -0.18494992261E+03  0.19071224298E+03  0.41800000000E+01 0. -1.
        -11    1    3    3    0    0 -0.15370122009E+02  0.18030422834E+02 -0.11517846949E+03  0.11759003628E+03  0.00000000000E+00 0.  1.
         11    1    3    3    0    0  0.88697685344E+01 -0.39259000174E+02 -0.13838483789E+02  0.42561079898E+02  0.00000000000E+00 0. -1.
</event>
<event>
 7    1  0.4274778E-006  0.1456956E+03  0.7561462E-02  0.1205864E+00
          2   -1    0    0  501    0  0.00000000000E+00  0.00000000000E+00  0.78783668117E+02  0.78783668117E+02  0.00000000000E+00 0.  1.
         -2   -1    0    0    0  501 -0.00000000000E+00 -0.00000000000E+00 -0.33204269948E+03  0.33204269948E+03  0.00000000000E+00 0. -1.
         23    2    1    2    0    0  0.10270778974E+03 -0.45420086651E+02 -0.74182290735E+02  0.16521034489E+03  0.95810080136E+02 0.  0.
          5    1    1    2  502    0  0.12585506638E+02  0.23425213622E+02  0.48867114511E+01  0.27358507989E+02  0.41800000000E+01 0.  1.
         -5    1    1    2    0  502 -0.11529329638E+03  0.21994873029E+02 -0.18396345207E+03  0.21825751471E+03  0.41800000000E+01 0.  1.
        -11    1    3    3    0    0  0.11887800624E+03 -0.25879791701E+02 -0.55581671295E+02  0.13375749014E+03  0.00000000000E+00 0.  1.
         11    1    3    3    0    0 -0.16170216497E+02 -0.19540294951E+02 -0.18600619440E+02  0.31452854749E+02  0.00000000000E+00 0. -1.
</event>
<event>
 7    1  0.4274778E-006  0.1123872E+03  0.7561462E-02  0.1256212E+00
          2   -1    0    0  501    0  0.00000000000E+00  0.00000000000E+00  0.43826408069E+03  0.43826408069E+03  0.00000000000E+00 0. -1.
         -2   -1    0    0    0  501 -0.00000000000E+00 -0.00000000000E+00 -0.31243857768E+02  0.31243857768E+02  0.00000000000E+00 0.  1.
         23    2    1    2    0    0  0.36478252571E+02  0.22443735874E+01  0.21937538136E+03  0.24104903230E+03  0.92969768761E+02 0.  0.
          5    1    1    2  502    0  0.31754645028E+02 -0.39978165601E+02  0.88518826552E+02  0.10227250980E+03  0.41800000000E+01 0.  1.
         -5    1    1    2    0  502 -0.68232897599E+02  0.37733792014E+02  0.99126015007E+02  0.12618639636E+03  0.41800000000E+01 0.  1.
        -11    1    3    3    0    0 -0.33104469667E+01  0.40283015607E+02  0.12945131902E+03  0.13561461721E+03  0.00000000000E+00 0.  1.
         11    1    3    3    0    0  0.39788699537E+02 -0.38038642020E+02  0.89924062336E+02  0.10543441509E+03  0.00000000000E+00 0. -1.
</event>
<event>
 7    1  0.4274778E-006  0.1017730E+03  0.7561462E-02  0.1276611E+00
          2   -1    0    0  501    0  0.00000000000E+00  0.00000000000E+00  0.34388700742E+03  0.34388700742E+03  0.00000000000E+00 0. -1.
         -2   -1    0    0    0  501 -0.00000000000E+00 -0.00000000000E+00 -0.52406395993E+02  0.52406395993E+02  0.00000000000E+00 0.  1.
         23    2    1    2    0    0 -0.15725748183E+02 -0.46050999099E+02  0.14256131838E+03  0.17601552286E+03  0.91048015441E+02 0.  0.
          5    1    1    2  502    0  0.49123397424E+02  0.81838310433E+01  0.16067554368E+03  0.16826819664E+03  0.41800000000E+01 0. -1.
         -5    1    1    2    0  502 -0.33397649241E+02  0.37867168056E+02 -0.11756250632E+02  0.52009683909E+02  0.41800000000E+01 0.  1.
        -11    1    3    3    0    0 -0.23025945609E+02  0.23542935896E+02  0.52340721165E+02  0.61838621377E+02  0.00000000000E+00 0.  1.
         11    1    3    3    0    0  0.73001974265E+01 -0.69593934995E+02  0.90220597212E+02  0.11417690148E+03  0.00000000000E+00 0. -1.
</event>
<event>
 7    1  0.4274778E-006  0.1165843E+03  0.7561462E-02  0.1248841E+00
          2   -1    0    0  501    0  0.00000000000E+00  0.00000000000E+00  0.76030966610E+03  0.76030966610E+03  0.00000000000E+00 0. -1.
         -2   -1    0    0    0  501 -0.00000000000E+00 -0.00000000000E+00 -0.24920377687E+02  0.24920377687E+02  0.00000000000E+00 0.  1.
         23    2    1    2    0    0  0.36648708660E+02  0.76862146121E+02  0.32634495165E+03  0.34909381029E+03  0.90080761337E+02 0.  0.
          5    1    1    2  502    0 -0.21726950789E+02  0.82755387860E+01  0.27858850528E+03  0.27958821972E+03  0.41800000000E+01 0. -1.
         -5    1    1    2    0  502 -0.14921757870E+02 -0.85137684907E+02  0.13045583149E+03  0.15654801378E+03  0.41800000000E+01 0. -1.
        -11    1    3    3    0    0  0.61067225817E+02  0.25575147308E+02  0.15397537083E+03  0.16760581449E+03  0.00000000000E+00 0. -1.
         11    1    3    3    0    0 -0.24418517158E+02  0.51286998813E+02  0.17236958082E+03  0.18148799580E+03  0.00000000000E+00 0.  1.
</event>
<event>
 7    1  0.4274778E-006  0.1602453E+03  0.7561462E-02  0.1188420E+00
          1   -1    0    0  501    0  0.00000000000E+00  0.00000000000E+00  0.13793753622E+04  0.13793753622E+04  0.00000000000E+00 0. -1.
         -1   -1    0    0    0  501 -0.00000000000E+00 -0.00000000000E+00 -0.21389992237E+02  0.21389992237E+02  0.00000000000E+00 0.  1.
         23    2    1    2    0    0 -0.11347702384E+03  0.46101166835E+02  0.84636908267E+03  0.86002369294E+03  0.91092128126E+02 0.  0.
          5    1    1    2  502    0  0.96141364991E+02  0.21194826808E+02  0.37059972556E+03  0.38347622056E+03  0.41800000000E+01 0. -1.
         -5    1    1    2    0  502  0.17335658852E+02 -0.67295993643E+02  0.14101656170E+03  0.15726544090E+03  0.41800000000E+01 0. -1.
        -11    1    3    3    0    0 -0.12736820553E+03  0.29597677500E+02  0.74443673273E+03  0.75583379875E+03  0.00000000000E+00 0. -1.
         11    1    3    3    0    0  0.13891181684E+02  0.16503489335E+02  0.10193234994E+03  0.10418989419E+03  0.00000000000E+00 0.  1.
</event>
<event>
 7    1  0.4274778E-006  0.1016427E+03  0.7561462E-02  0.1276879E+00
          1   -1    0    0  501    0  0.00000000000E+00  0.00000000000E+00  0.22635869179E+03  0.22635869179E+03  0.00000000000E+00 0. -1.
         -1   -1    0    0    0  501 -0.00000000000E+00 -0.00000000000E+00 -0.66969420581E+02  0.66969420581E+02  0.00000000000E+00 0.  1.
         23    2    1    2    0    0 -0.49987797712E+01  0.31172253899E+02  0.13158800774E+03  0.16135381704E+03  0.87880335001E+02 0.  0.
          5    1    1    2  502    0  0.34398373307E+02  0.33822846979E+02 -0.12399903736E+02  0.49984628404E+02  0.41800000000E+01 0. -1.
         -5    1    1    2    0  502 -0.29399593536E+02 -0.64995100878E+02  0.40201167204E+02  0.81989666927E+02  0.41800000000E+01 0. -1.
        -11    1    3    3    0    0  0.24989464350E+02  0.44148615784E+02  0.11274994713E+03  0.12363706637E+03  0.00000000000E+00 0. -1.
         11    1    3    3    0    0 -0.29988244121E+02 -0.12976361886E+02  0.18838060616E+02  0.37716750669E+02  0.00000000000E+00 0.  1.
</event>
<event>
 7    1  0.4274778E-006  0.1344524E+03  0.7561462E-02  0.1220995E+00
          2   -1    0    0  501    0  0.00000000000E+00  0.00000000000E+00  0.78009193607E+03  0.78009193607E+03  0.00000000000E+00 0. -1.
         -2   -1    0    0    0  501 -0.00000000000E+00 -0.00000000000E+00 -0.27522416181E+02  0.27522416181E+02  0.00000000000E+00 0.  1.
         23    2    1    2    0    0  0.85239503143E+00 -0.98322467669E+02  0.37020236877E+03  0.39346434380E+03  0.89979785352E+02 0.  0.
          5    1    1    2  502    0 -0.31390888892E+02  0.11662226162E+03  0.32216237362E+03  0.34408168680E+03  0.41800000000E+01 0.  1.
         -5    1    1    2    0  502  0.30538493861E+02 -0.18299793954E+02  0.60204777493E+02  0.70068321652E+02  0.41800000000E+01 0.  1.
        -11    1    3    3    0    0 -0.26568211504E+02 -0.45161406317E+02  0.28242012314E+03  0.28723953147E+03  0.00000000000E+00 0. -1.
         11    1    3    3    0    0  0.27420606536E+02 -0.53161061352E+02  0.87782245627E+02  0.10622481233E+03  0.00000000000E+00 0.  1.
</event>
<event>
 7    1  0.4274778E-006  0.1093000E+03  0.7561462E-02  0.1261872E+00
         -1   -1    0    0    0  501 -0.00000000000E+00  0.00000000000E+00  0.44135683361E+02  0.44135683361E+02  0.00000000000E+00 0.  1.
          1   -1    0    0  501    0  0.00000000000E+00 -0.00000000000E+00 -0.32051999731E+03  0.32051999731E+03  0.00000000000E+00 0. -1.
         23    2    1    2    0    0 -0.65255097928E+01 -0.37390349985E+02 -0.16517543624E+03  0.19302648735E+03  0.92388741377E+02 0.  0.
          5    1    1    2  502    0 -0.52180551735E+02  0.30428574105E+02 -0.90426082658E+02  0.10882581002E+03  0.41800000000E+01 0. -1.
         -5    1    1    2    0  502  0.58706061528E+02  0.69617758808E+01 -0.20782795052E+02  0.62803383298E+02  0.41800000000E+01 0. -1.
        -11    1    3    3    0    0  0.30920499825E+02 -0.50413008575E+02 -0.11251090474E+03  0.12710724774E+03  0.00000000000E+00 0.  1.
         11    1    3    3    0    0 -0.37446009617E+02  0.13022658590E+02 -0.52664531502E+02  0.65919239615E+02  0.00000000000E+00 0. -1.
</event>
<event>
 7    1  0.4274778E-006  0.1588524E+03  0.7561462E-02  0.1189998E+00
          2   -1    0    0  501    0  0.00000000000E+00  0.00000000000E+00  0.67486069414E+03  0.67486069414E+03  0.00000000000E+00 0. -1.
         -2   -1    0    0    0  501 -0.00000000000E+00 -0.00000000000E+00 -0.42458662807E+02  0.42458662807E+02  0.00000000000E+00 0.  1.
         23    2    1    2    0    0  0.19671749509E+02 -0.12296065154E+03  0.36177976531E+03  0.39424703844E+03  0.95078016241E+02 0.  0.
          5    1    1    2  502    0  0.30909924825E+02 -0.75009866813E+01  0.26278129462E+02  0.41469274673E+02  0.41800000000E+01 0.  1.
         -5    1    1    2    0  502 -0.50581674334E+02  0.13046163822E+03  0.24434413655E+03  0.28160304383E+03  0.41800000000E+01 0.  1.
        -11    1    3    3    0    0  0.46091237821E+02 -0.10194134208E+03  0.32771995494E+03  0.34629006381E+03  0.00000000000E+00 0. -1.
         11    1    3    3    0    0 -0.26419488312E+02 -0.21019309460E+02  0.34059810376E+02  0.47956974630E+02  0.00000000000E+00 0.  1.
</event>
<event>
 7    1  0.4274778E-006  0.9363247E+02  0.7561462E-02  0.1294286E+00
          2   -1    0    0  501    0  0.00000000000E+00  0.00000000000E+00  0.22596287603E+02  0.22596287603E+02  0.00000000000E+00 0. -1.
         -2   -1    0    0    0  501 -0.00000000000E+00 -0.00000000000E+00 -0.82836785268E+03  0.82836785268E+03  0.00000000000E+00 0.  1.
         23    2    1    2    0    0 -0.20220863765E+02  0.46692139237E+02 -0.15468381580E+03  0.18831607248E+03  0.94587637068E+02 0.  0.
          5    1    1    2  502    0  0.38793615533E+02 -0.56518533220E+02 -0.20804920257E+03  0.21909183529E+03  0.41800000000E+01 0. -1.
         -5    1    1    2    0  502 -0.18572751768E+02  0.98263939827E+01 -0.44303854671E+03  0.44355623251E+03  0.41800000000E+01 0.  1.
        -11    1    3    3    0    0  0.30502361133E+02  0.32323797307E+02 -0.31941463980E+02  0.54730969553E+02  0.00000000000E+00 0.  1.
         11    1    3    3    0    0 -0.50723224898E+02  0.14368341930E+02 -0.12274235182E+03  0.13358510292E+03  0.00000000000E+00 0. -1.
</event>
<event>
 7    1  0.4274778E-006  0.5421784E+02  0.7561462E-02  0.1423834E+00
          1   -1    0    0  501    0  0.00000000000E+00  0.00000000000E+00  0.11228391124E+03  0.11228391124E+03  0.00000000000E+00 0. -1.
         -1   -1    0    0    0  501 -0.00000000000E+00 -0.00000000000E+00 -0.12219321422E+03  0.12219321422E+03  0.00000000000E+00 0.  1.
         23    2    1    2    0    0  0.14868201913E+02  0.24231490871E+02  0.33296640812E+02  0.99115627144E+02  0.88921384812E+02 0.  0.
          5    1    1    2  502    0  0.32231064127E+01 -0.42254281428E+01  0.43725783491E+02  0.44245442701E+02  0.41800000000E+01 0. -1.
         -5    1    1    2    0  502 -0.18091308326E+02 -0.20006062728E+02 -0.86931727282E+02  0.91116055616E+02  0.41800000000E+01 0. -1.
        -11    1    3    3    0    0 -0.21742006309E+01 -0.23549764500E+02 -0.15860849222E+02  0.28476044220E+02  0.00000000000E+00 0.  1.
         11    1    3    3    0    0  0.17042402544E+02  0.47781255371E+02  0.49157490033E+02  0.70639582924E+02  0.00000000000E+00 0. -1.
</event>
<event>
 7    1  0.4409313E-006  0.2211554E+03  0.7561462E-02  0.1133025E+00
         -1   -1    0    0    0  501 -0.00000000000E+00  0.00000000000E+00  0.13116149734E+03  0.13116149734E+03  0.00000000000E+00 0.  1.
          1   -1    0    0  501    0  0.00000000000E+00 -0.00000000000E+00 -0.41419171065E+03  0.41419171065E+03  0.00000000000E+00 0. -1.
         23    2    1    2    0    0 -0.19343572944E+03  0.40952502375E+01 -0.21891383840E+03  0.30620277144E+03  0.91666330222E+02 0.  0.
          5    1    1    2  502    0  0.13325386003E+03 -0.61368820065E+02 -0.48031887062E+02  0.15442557387E+03  0.41800000000E+01 0. -1.
         -5    1    1    2    0  502  0.60181869407E+02  0.57273569828E+02 -0.16084487844E+02  0.84724862676E+02  0.41800000000E+01 0. -1.
        -11    1    3    3    0    0 -0.50659079595E+02  0.40680870559E+02 -0.85612213581E+02  0.10747430711E+03  0.00000000000E+00 0. -1.
         11    1    3    3    0    0 -0.14277664984E+03 -0.36585620322E+02 -0.13330162482E+03  0.19872846433E+03  0.00000000000E+00 0.  1.
</event>
<event>
 7    1  0.4274778E-006  0.1781230E+03  0.7561462E-02  0.1169632E+00
          2   -1    0    0  501    0  0.00000000000E+00  0.00000000000E+00  0.30556348577E+03  0.30556348577E+03  0.00000000000E+00 0.  1.
         -2   -1    0    0    0  501 -0.00000000000E+00 -0.00000000000E+00 -0.12489109981E+03  0.12489109981E+03  0.00000000000E+00 0. -1.
         23    2    1    2    0    0  0.16004981359E+03 -0.14752911882E+02  0.10997125345E+03  0.21486171767E+03  0.90765025745E+02 0.  0.
          5    1    1    2  502    0 -0.11975815205E+03  0.60531100958E+02  0.75940473505E+02  0.15424155433E+03  0.41800000000E+01 0. -1.
         -5    1    1    2    0  502 -0.40291661541E+02 -0.45778189076E+02 -0.52393409946E+01  0.61351313587E+02  0.41800000000E+01 0. -1.
        -11    1    3    3    0    0  0.12325466159E+03 -0.85299094293E+01  0.12395286964E+03  0.17501081353E+03  0.00000000000E+00 0.  1.
         11    1    3    3    0    0  0.36795151999E+02 -0.62230024528E+01 -0.13981616193E+02  0.39850904150E+02  0.00000000000E+00 0. -1.
</event>
<event>
 7    1  0.4274778E-006  0.1565353E+03  0.7561462E-02  0.1192665E+00
          2   -1    0    0  501    0  0.00000000000E+00  0.00000000000E+00  0.26726866503E+03  0.26726866503E+03  0.00000000000E+00 0.  1.
         -2   -1    0    0    0  501 -0.00000000000E+00 -0.00000000000E+00 -0.10820239194E+03  0.10820239194E+03  0.00000000000E+00 0. -1.
         23    2    1    2    0    0 -0.41507062491E+02 -0.11821547502E+03  0.11563568887E+03  0.19317698518E+03  0.90818501911E+02 0.  0.
          5    1    1    2  502    0  0.35726623752E+02 -0.12290883052E+02  0.34423989874E+02  0.51282949698E+02  0.41800000000E+01 0. -1.
         -5    1    1    2    0  502  0.57804387388E+01  0.13050635808E+03  0.90065943440E+01  0.13101112209E+03  0.41800000000E+01 0. -1.
        -11    1    3    3    0    0 -0.47715271776E+02 -0.30956381660E+02  0.81255022873E+02  0.99183786317E+02  0.00000000000E+00 0.  1.
         11    1    3    3    0    0  0.62082092853E+01 -0.87259093365E+02  0.34380665998E+02  0.93993198860E+02  0.00000000000E+00 0. -1.
</event>
<event>
 7    1  0.4274778E-006  0.1137714E+03  0.7561462E-02  0.1253741E+00
         -2   -1    0    0    0  501 -0.00000000000E+00  0.00000000000E+00  0.32881902787E+02  0.32881902787E+02  0.00000000000E+00 0.  1.
          2   -1    0    0  501    0  0.00000000000E+00 -0.00000000000E+00 -0.51775670163E+03  0.51775670163E+03  0.00000000000E+00 0. -1.
         23    2    1    2    0    0  0.60839789158E+01  0.35022357537E+02 -0.34919676407E+03  0.36270371408E+03  0.91389407698E+02 0.  0.
          5    1    1    2  502    0  0.38546026805E+02  0.31212967881E+02 -0.46018381305E+02  0.67787973596E+02  0.41800000000E+01 0. -1.
         -5    1    1    2    0  502 -0.44630005721E+02 -0.66235325417E+02 -0.89659653468E+02  0.12014691675E+03  0.41800000000E+01 0. -1.
        -11    1    3    3    0    0  0.24683597798E+02  0.61020614440E+02 -0.22212568172E+03  0.23167350705E+03  0.00000000000E+00 0.  1.
         11    1    3    3    0    0 -0.18599618882E+02 -0.25998256903E+02 -0.12707108235E+03  0.13103020703E+03  0.00000000000E+00 0. -1.
</event>
<event>
 7    1  0.4274778E-006  0.1311189E+03  0.7561462E-02  0.1225805E+00
          1   -1    0    0  501    0  0.00000000000E+00  0.00000000000E+00  0.45173287103E+02  0.45173287103E+02  0.00000000000E+00 0. -1.
         -1   -1    0    0    0  501 -0.00000000000E+00 -0.00000000000E+00 -0.38281903485E+03  0.38281903485E+03  0.00000000000E+00 0.  1.
         23    2    1    2    0    0 -0.54681815393E+02  0.49988513674E+02 -0.13432481424E+03  0.17803824667E+03  0.90363206688E+02 0.  0.
          5    1    1    2  502    0 -0.26200788893E+02 -0.58219474279E+02 -0.89435026593E+02  0.10996401641E+03  0.41800000000E+01 0.  1.
         -5    1    1    2    0  502  0.80882604285E+02  0.82309606048E+01 -0.11388590691E+03  0.13999005887E+03  0.41800000000E+01 0.  1.
        -11    1    3    3    0    0 -0.21334310992E+02 -0.26138218354E+02 -0.39297665472E+02  0.51794457191E+02  0.00000000000E+00 0.  1.
         11    1    3    3    0    0 -0.33347504400E+02  0.76126732028E+02 -0.95027148768E+02  0.12624378948E+03  0.00000000000E+00 0. -1.
</event>
<event>
 7    1  0.4274778E-006  0.1144289E+03  0.7561462E-02  0.1252581E+00
          2   -1    0    0  501    0  0.00000000000E+00  0.00000000000E+00  0.97022044904E+03  0.97022044904E+03  0.00000000000E+00 0. -1.
         -2   -1    0    0    0  501 -0.00000000000E+00 -0.00000000000E+00 -0.17432158528E+02  0.17432158528E+02  0.00000000000E+00 0.  1.
         23    2    1    2    0    0 -0.71359812650E+02  0.26369918633E+01  0.47325602885E+03  0.48694780262E+03  0.89709068902E+02 0.  0.
          5    1    1    2  502    0  0.92449323347E+02  0.14629752059E+01  0.20068531213E+03  0.22100019137E+03  0.41800000000E+01 0.  1.
         -5    1    1    2    0  502 -0.21089510697E+02 -0.40999670692E+01  0.27884694954E+03  0.27970461358E+03  0.41800000000E+01 0.  1.
        -11    1    3    3    0    0 -0.18859163895E+02  0.43809164173E+02  0.18177898928E+03  0.18793220020E+03  0.00000000000E+00 0.  1.
         11    1    3    3    0    0 -0.52500648755E+02 -0.41172172310E+02  0.29147703957E+03  0.29901560242E+03  0.00000000000E+00 0. -1.
</event>
<event>
 7    1  0.4274778E-006  0.1075561E+03  0.7561462E-02  0.1265164E+00
         -1   -1    0    0    0  501 -0.00000000000E+00  0.00000000000E+00  0.28734686379E+03  0.28734686379E+03  0.00000000000E+00 0.  1.
          1   -1    0    0  501    0  0.00000000000E+00 -0.00000000000E+00 -0.66515032367E+02  0.66515032367E+02  0.00000000000E+00 0. -1.
         23    2    1    2    0    0 -0.42948962271E+02 -0.31690388838E+02  0.16160038026E+02  0.10812519965E+03  0.92633783603E+02 0.  0.
          5    1    1    2  502    0 -0.28751224561E+02  0.28330393209E+02  0.15634498702E+02  0.43487400966E+02  0.41800000000E+01 0. -1.
         -5    1    1    2    0  502  0.71700186833E+02  0.33599956286E+01  0.18903729469E+03  0.20224929554E+03  0.41800000000E+01 0. -1.
        -11    1    3    3    0    0  0.26915342470E+02 -0.29112091521E+01 -0.89326668470E+01  0.28507952154E+02  0.00000000000E+00 0. -1.
         11    1    3    3    0    0 -0.69864304742E+02 -0.28779179686E+02  0.25092704873E+02  0.79617247492E+02  0.00000000000E+00 0.  1.
</event>
<event>
 7    1  0.4274778E-006  0.9505733E+02  0.7561462E-02  0.1291047E+00
          1   -1    0    0  501    0  0.00000000000E+00  0.00000000000E+00  0.69169568206E+02  0.69169568206E+02  0.00000000000E+00 0. -1.
         -1   -1    0    0    0  501 -0.00000000000E+00 -0.00000000000E+00 -0.19415839281E+03  0.19415839281E+03  0.00000000000E+00 0.  1.
         23    2    1    2    0    0  0.31772915769E+02  0.27102497617E+02 -0.37689283517E+02  0.10517441071E+03  0.88865690917E+02 0.  0.
          5    1    1    2  502    0 -0.61833510328E+02 -0.27010539057E+02 -0.10359723168E+03  0.12370453116E+03  0.41800000000E+01 0.  1.
         -5    1    1    2    0  502  0.30060594560E+02 -0.91958560073E-01  0.16297690587E+02  0.34449019146E+02  0.41800000000E+01 0.  1.
        -11    1    3    3    0    0 -0.27706747498E+02  0.25914697953E+01 -0.29112587617E+02  0.40273096856E+02  0.00000000000E+00 0.  1.
         11    1    3    3    0    0  0.59479663267E+02  0.24511027821E+02 -0.85766959004E+01  0.64901313852E+02  0.00000000000E+00 0. -1.
</event>
<event>
 7    1  0.4274778E-006  0.1699082E+03  0.7561462E-02  0.1177944E+00
          3   -1    0    0  501    0  0.00000000000E+00  0.00000000000E+00  0.63835882213E+02  0.63835882213E+02  0.00000000000E+00 0. -1.
         -3   -1    0    0    0  501 -0.00000000000E+00 -0.00000000000E+00 -0.62127950409E+03  0.62127950409E+03  0.00000000000E+00 0.  1.
         23    2    1    2    0    0 -0.11517957692E+03  0.10240111900E+03 -0.15526600524E+03  0.23661768636E+03  0.90155826207E+02 0.  0.
          5    1    1    2  502    0  0.71275269063E+02 -0.11389643289E+03 -0.19816685093E+03  0.23945800177E+03  0.41800000000E+01 0.  1.
         -5    1    1    2    0  502  0.43904307860E+02  0.11495313888E+02 -0.20401076570E+03  0.20903969817E+03  0.41800000000E+01 0.  1.
        -11    1    3    3    0    0 -0.46242434701E+02  0.15243473541E+02 -0.39083001928E+01  0.48846709849E+02  0.00000000000E+00 0.  1.
         11    1    3    3    0    0 -0.68937142222E+02  0.87157645463E+02 -0.15135770505E+03  0.18777097651E+03  0.00000000000E+00 0. -1.
</event>
<event>
 7    1  0.4274778E-006  0.1566124E+03  0.7561462E-02  0.1192575E+00
          2   -1    0    0  501    0  0.00000000000E+00  0.00000000000E+00  0.47019840768E+03  0.47019840768E+03  0.00000000000E+00 0. -1.
         -2   -1    0    0    0  501 -0.00000000000E+00 -0.00000000000E+00 -0.58440050770E+02  0.58440050770E+02  0.00000000000E+00 0.  1.
         23    2    1    2    0    0  0.11618638486E+03  0.11189222831E+02  0.26743404204E+03  0.30480498688E+03  0.88094485925E+02 0.  0.
          5    1    1    2  502    0  0.17988559787E+02  0.24080272091E+02  0.39965414110E+02  0.50181216727E+02  0.41800000000E+01 0.  1.
         -5    1    1    2    0  502 -0.13417494465E+03 -0.35269494922E+02  0.10435890076E+03  0.17365225484E+03  0.41800000000E+01 0.  1.
        -11    1    3    3    0    0  0.75036331901E+02  0.47829385115E+02  0.18959951425E+03  0.20944229990E+03  0.00000000000E+00 0. -1.
         11    1    3    3    0    0  0.41150052962E+02 -0.36640162284E+02  0.77834527796E+02  0.95362686981E+02  0.00000000000E+00 0.  1.
</event>
<event>
 7    1  0.4274778E-006  0.1272045E+03  0.7561462E-02  0.1231664E+00
         -2   -1    0    0    0  501 -0.00000000000E+00  0.00000000000E+00  0.80996026407E+02  0.80996026407E+02  0.00000000000E+00 0.  1.
          2   -1    0    0  501    0  0.00000000000E+00 -0.00000000000E+00 -0.32250731545E+03  0.32250731545E+03  0.00000000000E+00 0. -1.
         23    2    1    2    0    0 -0.26566640714E+02  0.11554932340E+03 -0.10259617619E+03  0.18213776475E+03  0.92686339009E+02 0.  0.
          5    1    1    2  502    0  0.44393314504E+02 -0.46585115292E+02 -0.13534564601E+03  0.14992283226E+03  0.41800000000E+01 0.  1.
         -5    1    1    2    0  502 -0.17826673790E+02 -0.68964208112E+02 -0.35694668443E+01  0.71442744855E+02  0.41800000000E+01 0.  1.
        -11    1    3    3    0    0 -0.10425807553E+02  0.42856807663E+02  0.11785101751E+02  0.45654047460E+02  0.00000000000E+00 0.  1.
         11    1    3    3    0    0 -0.16140833161E+02  0.72692515741E+02 -0.11438127794E+03  0.13648371729E+03  0.00000000000E+00 0. -1.
</event>
<event>
 7    1  0.4274778E-006  0.1031956E+03  0.7561462E-02  0.1273716E+00
          2   -1    0    0  501    0  0.00000000000E+00  0.00000000000E+00  0.13383533196E+03  0.13383533196E+03  0.00000000000E+00 0. -1.
         -2   -1    0    0    0  501 -0.00000000000E+00 -0.00000000000E+00 -0.81347953737E+02  0.81347953737E+02  0.00000000000E+00 0.  1.
         23    2    1    2    0    0 -0.32160044474E+01 -0.17054295221E+02  0.28630528614E+02  0.86685301201E+02  0.79959005782E+02 0.  0.
          5    1    1    2  502    0  0.42942648110E+02 -0.37982318850E+02  0.38503601810E+01  0.57610981987E+02  0.41800000000E+01 0.  1.
         -5    1    1    2    0  502 -0.39726643663E+02  0.55036614071E+02  0.20006489426E+02  0.70887002506E+02  0.41800000000E+01 0.  1.
        -11    1    3    3    0    0  0.45404311194E+01  0.31453650921E+02  0.49911878135E+01  0.32169234166E+02  0.00000000000E+00 0. -1.
         11    1    3    3    0    0 -0.77564355668E+01 -0.48507946142E+02  0.23639340800E+02  0.54516067036E+02  0.00000000000E+00 0.  1.
</event>
<event>
 7    1  0.4274778E-006  0.2237483E+03  0.7561462E-02  0.1131119E+00
          2   -1    0    0  501    0  0.00000000000E+00  0.00000000000E+00  0.18160721081E+03  0.18160721081E+03  0.00000000000E+00 0. -1.
         -2   -1    0    0    0  501 -0.00000000000E+00 -0.00000000000E+00 -0.34405291765E+03  0.34405291765E+03  0.00000000000E+00 0.  1.
         23    2    1    2    0    0 -0.45286089907E+02 -0.20665176367E+03  0.37410075703E+01  0.22897558769E+03  0.87521673063E+02 0.  0.
          5    1    1    2  502    0  0.79700539308E+01  0.15603806789E+03 -0.17317402744E+03  0.23327690964E+03  0.41800000000E+01 0. -1.
         -5    1    1    2    0  502  0.37316035976E+02  0.50613695783E+02  0.69873130395E+01  0.63407631128E+02  0.41800000000E+01 0. -1.
        -11    1    3    3    0    0 -0.58293347298E+02 -0.70824631337E+02  0.10691526499E+02  0.92350156914E+02  0.00000000000E+00 0.  1.
         11    1    3    3    0    0  0.13007257391E+02 -0.13582713233E+03 -0.69505189289E+01  0.13662543078E+03  0.00000000000E+00 0. -1.
</event>
<event>
 7    1  0.4274778E-006  0.9526223E+02  0.7561462E-02  0.1290587E+00
          2   -1    0    0  501    0  0.00000000000E+00  0.00000000000E+00  0.38572988180E+03  0.38572988180E+03  0.00000000000E+00 0.  1.
         -2   -1    0    0    0  501 -0.00000000000E+00 -0.00000000000E+00 -0.36097554306E+02  0.36097554306E+02  0.00000000000E+00 0. -1.
         23    2    1    2    0    0  0.37611545812E+02  0.15055899163E+02  0.20571034014E+03  0.22688521069E+03  0.86711281335E+02 0.  0.
          5    1    1    2  502    0 -0.45961046417E+02  0.31937299655E+02  0.13500704256E+03  0.14620801222E+03  0.41800000000E+01 0. -1.
         -5    1    1    2    0  502  0.83495006054E+01 -0.46993198817E+02  0.89149447982E+01  0.48734213200E+02  0.41800000000E+01 0. -1.
        -11    1    3    3    0    0  0.45267235203E+02 -0.20805316813E+02  0.67506482558E+02  0.83899397959E+02  0.00000000000E+00 0. -1.
         11    1    3    3    0    0 -0.76556893910E+01  0.35861215976E+02  0.13820385758E+03  0.14298581273E+03  0.00000000000E+00 0.  1.
</event>
<event>
 7    1  0.4274778E-006  0.1021757E+03  0.7561462E-02  0.1275786E+00
          2   -1    0    0  501    0  0.00000000000E+00  0.00000000000E+00  0.33802183624E+03  0.33802183624E+03  0.00000000000E+00 0. -1.
         -2   -1    0    0    0  501 -0.00000000000E+00 -0.00000000000E+00 -0.38935206355E+02  0.38935206355E+02  0.00000000000E+00 0.  1.
         23    2    1    2    0    0 -0.72604259108E+01 -0.31948625003E+02  0.16512336614E+03  0.19075869173E+03  0.89720254128E+02 0.  0.
          5    1    1    2  502    0  0.64704336194E+02  0.21402236847E+02  0.53805610460E+02  0.86932289636E+02  0.41800000000E+01 0.  1.
         -5    1    1    2    0  502 -0.57443910283E+02  0.10546388156E+02  0.80157653278E+02  0.99266061224E+02  0.41800000000E+01 0.  1.
        -11    1    3    3    0    0 -0.14692169039E+02  0.20124514644E+02  0.98079282492E+01  0.26777815021E+02  0.00000000000E+00 0.  1.
         11    1    3    3    0    0  0.74317431285E+01 -0.52073139647E+02  0.15531543789E+03  0.16398087671E+03  0.00000000000E+00 0. -1.
</event>
<event>
 7    1  0.4274778E-006  0.1100834E+03  0.7561462E-02  0.1260416E+00
         -1   -1    0    0    0  501 -0.00000000000E+00  0.00000000000E+00  0.53979375135E+02  0.53979375135E+02  0.00000000000E+00 0.  1.
          1   -1    0    0  501    0  0.00000000000E+00 -0.00000000000E+00 -0.48542725802E+03  0.48542725802E+03  0.00000000000E+00 0. -1.
         23    2    1    2    0    0 -0.79809317641E+02  0.64414390187E+02 -0.30672457830E+03  0.33514352994E+03  0.87877630147E+02 0.  0.
          5    1    1    2  502    0 -0.16497838729E+00 -0.91571177930E+01 -0.10437701548E+03  0.10486140274E+03  0.41800000000E+01 0. -1.
         -5    1    1    2    0  502  0.79974296029E+02 -0.55257272394E+02 -0.20346289107E+02  0.99401700479E+02  0.41800000000E+01 0. -1.
        -11    1    3    3    0    0 -0.36643260843E+02  0.58785214863E+02 -0.26823911300E+03  0.27703907990E+03  0.00000000000E+00 0. -1.
         11    1    3    3    0    0 -0.43166056798E+02  0.56291753246E+01 -0.38485465304E+02  0.58104450037E+02  0.00000000000E+00 0.  1.
</event>
<event>
 7    1  0.4274778E-006  0.1123054E+03  0.7561462E-02  0.1256359E+00
         -2   -1    0    0    0  501 -0.00000000000E+00  0.00000000000E+00  0.82449377949E+02  0.82449377949E+02  0.00000000000E+00 0.  1.
          2   -1    0    0  501    0  0.00000000000E+00 -0.00000000000E+00 -0.24635257136E+03  0.24635257136E+03  0.00000000000E+00 0. -1.
         23    2    1    2    0    0  0.27466883793E+02  0.26440342209E+02 -0.17068904452E+03  0.19785536552E+03  0.92512022700E+02 0.  0.
          5    1    1    2  502    0 -0.26494098802E+02 -0.73895707608E+02  0.20728052247E+02  0.81299676654E+02  0.41800000000E+01 0. -1.
         -5    1    1    2    0  502 -0.97278499138E+00  0.47455365399E+02 -0.13942201139E+02  0.49646907138E+02  0.41800000000E+01 0. -1.
        -11    1    3    3    0    0 -0.11102972590E+02  0.51282842290E+02 -0.10904886231E+03  0.12101595054E+03  0.00000000000E+00 0. -1.
         11    1    3    3    0    0  0.38569856383E+02 -0.24842500081E+02 -0.61640182214E+02  0.76839414983E+02  0.00000000000E+00 0.  1.
</event>
<event>
 7    1  0.4274778E-006  0.1227437E+03  0.7561462E-02  0.1238638E+00
         -1   -1    0    0    0  501 -0.00000000000E+00  0.00000000000E+00  0.66960237145E+02  0.66960237145E+02  0.00000000000E+00 0.  1.
          1   -1    0    0  501    0  0.00000000000E+00 -0.00000000000E+00 -0.35384112120E+03  0.35384112120E+03  0.00000000000E+00 0. -1.
         23    2    1    2    0    0 -0.11498580322E+02  0.61902402830E+02 -0.25429510490E+03  0.27701902092E+03  0.90052277881E+02 0.  0.
          5    1    1    2  502    0 -0.54583968520E+02 -0.36357828047E+02 -0.70688815983E-01  0.65717415322E+02  0.41800000000E+01 0. -1.
         -5    1    1    2    0  502  0.66082548842E+02 -0.25544574783E+02 -0.32515090336E+02  0.78064922097E+02  0.41800000000E+01 0. -1.
        -11    1    3    3    0    0  0.26746539872E+02  0.65139759227E+02 -0.14531626804E+03  0.16147873973E+03  0.00000000000E+00 0. -1.
         11    1    3    3    0    0 -0.38245120194E+02 -0.32373563971E+01 -0.10897883686E+03  0.11554028120E+03  0.00000000000E+00 0.  1.
</event>
<event>
 7    1  0.4274778E-006  0.1225553E+03  0.7561462E-02  0.1238940E+00
          2   -1    0    0  501    0  0.00000000000E+00  0.00000000000E+00  0.16238715928E+03  0.16238715928E+03  0.00000000000E+00 0. -1.
         -2   -1    0    0    0  501 -0.00000000000E+00 -0.00000000000E+00 -0.14372314859E+03  0.14372314859E+03  0.00000000000E+00 0.  1.
         23    2    1    2    0    0  0.73110855476E+02  0.36025568352E+01  0.86979850299E+02  0.14588522818E+03  0.91426636377E+02 0.  0.
          5    1    1    2  502    0 -0.46197002331E+01  0.48578560063E+02 -0.53890787008E+02  0.72821064620E+02  0.41800000000E+01 0. -1.
         -5    1    1    2    0  502 -0.68491155243E+02 -0.52181116898E+02 -0.14425052605E+02  0.87404015068E+02  0.41800000000E+01 0. -1.
        -11    1    3    3    0    0  0.34661963031E+02 -0.39244279217E+02  0.66814806612E+02  0.84886886590E+02  0.00000000000E+00 0.  1.
         11    1    3    3    0    0  0.38448892445E+02  0.42846836052E+02  0.20165043688E+02  0.60998341591E+02  0.00000000000E+00 0. -1.
</event>
<event>
 7    1  0.4274778E-006  0.1095114E+03  0.7561462E-02  0.1261477E+00
         -1   -1    0    0    0  501 -0.00000000000E+00  0.00000000000E+00  0.62183735515E+02  0.62183735515E+02  0.00000000000E+00 0.  1.
          1   -1    0    0  501    0  0.00000000000E+00 -0.00000000000E+00 -0.33349547070E+03  0.33349547070E+03  0.00000000000E+00 0. -1.
         23    2    1    2    0    0  0.82499016359E+02 -0.33558384322E+02 -0.16434451204E+03  0.20849584619E+03  0.92353377749E+02 0.  0.
          5    1    1    2  502    0 -0.48093521206E+02  0.27480873639E+02  0.17180886050E+02  0.58144994998E+02  0.41800000000E+01 0.  1.
         -5    1    1    2    0  502 -0.34405495153E+02  0.60775106831E+01 -0.12414810919E+03  0.12903836503E+03  0.41800000000E+01 0.  1.
        -11    1    3    3    0    0  0.71572653016E+02 -0.63956364019E+02 -0.12434842046E+03  0.15708466135E+03  0.00000000000E+00 0. -1.
         11    1    3    3    0    0  0.10926363342E+02  0.30397979697E+02 -0.39996091582E+02  0.51411184847E+02  0.00000000000E+00 0.  1.
</event>
<event>
 7    1  0.4274778E-006  0.4493900E+03  0.7561462E-02  0.1027904E+00
          2   -1    0    0  501    0  0.00000000000E+00  0.00000000000E+00  0.67116339277E+03  0.67116339277E+03  0.00000000000E+00 0. -1.
         -2   -1    0    0    0  501 -0.00000000000E+00 -0.00000000000E+00 -0.38261298816E+03  0.38261298816E+03  0.00000000000E+00 0.  1.
         23    2    1    2    0    0 -0.40628023791E+03  0.18546263641E+03  0.36478273766E+03  0.58375060856E+03  0.90765114891E+02 0.  0.
          5    1    1    2  502    0  0.14293979025E+03 -0.55476368528E+02 -0.86591464141E+02  0.17613905065E+03  0.41800000000E+01 0.  1.
         -5    1    1    2    0  502  0.26334044766E+03 -0.12998626788E+03  0.10359131089E+02  0.29388672173E+03  0.41800000000E+01 0.  1.
        -11    1    3    3    0    0 -0.12263854084E+03  0.22871004351E+02  0.13698071240E+03  0.18527549787E+03  0.00000000000E+00 0. -1.
         11    1    3    3    0    0 -0.28364169706E+03  0.16259163206E+03  0.22780202525E+03  0.39847511069E+03  0.00000000000E+00 0.  1.
</event>
<event>
 7    1  0.4274778E-006  0.1026840E+03  0.7561462E-02  0.1274751E+00
          1   -1    0    0  501    0  0.00000000000E+00  0.00000000000E+00  0.10921172620E+03  0.10921172620E+03  0.00000000000E+00 0. -1.
         -1   -1    0    0    0  501 -0.00000000000E+00 -0.00000000000E+00 -0.12778347189E+03  0.12778347189E+03  0.00000000000E+00 0.  1.
         23    2    1    2    0    0  0.42124815590E+02 -0.13740503010E+02  0.12794242459E+02  0.10063201510E+03  0.89441647526E+02 0.  0.
          5    1    1    2  502    0 -0.44015132105E+02 -0.36596951541E+02 -0.55952176446E+02  0.80154770073E+02  0.41800000000E+01 0.  1.
         -5    1    1    2    0  502  0.18903165150E+01  0.50337454551E+02  0.24586188292E+02  0.56208412911E+02  0.41800000000E+01 0.  1.
        -11    1    3    3    0    0  0.28307009839E+01 -0.46306156718E+02  0.17035108413E+02  0.49421330786E+02  0.00000000000E+00 0. -1.
         11    1    3    3    0    0  0.39294114607E+02  0.32565653708E+02 -0.42408659537E+01  0.51210684317E+02  0.00000000000E+00 0.  1.
</event>
<event>
 7    1  0.4274778E-006  0.9608521E+02  0.7561462E-02  0.1288750E+00
         -1   -1    0    0    0  501 -0.00000000000E+00  0.00000000000E+00  0.25551900449E+03  0.25551900449E+03  0.00000000000E+00 0.  1.
          1   -1    0    0  501    0  0.00000000000E+00 -0.00000000000E+00 -0.54963721472E+02  0.54963721472E+02  0.00000000000E+00 0. -1.
         23    2    1    2    0    0  0.20068978468E+02  0.38418530699E+02  0.57568570787E+02  0.11562105029E+03  0.90417584179E+02 0.  0.
          5    1    1    2  502    0  0.41339967779E+02 -0.19104625410E+02  0.11644734623E+03  0.12510570128E+03  0.41800000000E+01 0. -1.
         -5    1    1    2    0  502 -0.61408946247E+02 -0.19313905288E+02  0.26539365999E+02  0.69755974399E+02  0.41800000000E+01 0. -1.
        -11    1    3    3    0    0 -0.12044645352E+02 -0.15220941451E+02  0.48765594096E+02  0.52486509770E+02  0.00000000000E+00 0.  1.
         11    1    3    3    0    0  0.32113623820E+02  0.53639472150E+02  0.88029766906E+01  0.63134540515E+02  0.00000000000E+00 0. -1.
</event>
<event>
 7    1  0.4274778E-006  0.1165104E+03  0.7561462E-02  0.1248967E+00
         -1   -1    0    0    0  501 -0.00000000000E+00  0.00000000000E+00  0.53621501711E+02  0.53621501711E+02  0.00000000000E+00 0.  1.
          1   -1    0    0  501    0  0.00000000000E+00 -0.00000000000E+00 -0.35997333834E+03  0.35997333834E+03  0.00000000000E+00 0. -1.
         23    2    1    2    0    0  0.29848675820E+02  0.65680305415E+02 -0.21075483194E+03  0.24041534609E+03  0.90427282849E+02 0.  0.
          5    1    1    2  502    0 -0.22640549890E+02  0.29717528515E+02  0.38791885669E+00  0.37594532600E+02  0.41800000000E+01 0. -1.
         -5    1    1    2    0  502 -0.72081259299E+01 -0.95397833930E+02 -0.95984923545E+02  0.13558496136E+03  0.41800000000E+01 0. -1.
        -11    1    3    3    0    0  0.43316237284E+02  0.72589187230E+02 -0.20866331785E+03  0.22513521877E+03  0.00000000000E+00 0.  1.
         11    1    3    3    0    0 -0.13467561464E+02 -0.69088818147E+01 -0.20915140871E+01  0.15280127319E+02  0.00000000000E+00 0. -1.
</event>
<event>
 7    1  0.4274778E-006  0.1161510E+03  0.7561462E-02  0.1249585E+00
         -1   -1    0    0    0  501 -0.00000000000E+00  0.00000000000E+00  0.15755190948E+03  0.15755190948E+03  0.00000000000E+00 0.  1.
          1   -1    0    0  501    0  0.00000000000E+00 -0.00000000000E+00 -0.12417015967E+03  0.12417015967E+03  0.00000000000E+00 0. -1.
         23    2    1    2    0    0 -0.74746895829E+02 -0.28356011094E+02 -0.30494491990E+02  0.12010542465E+03  0.84286637060E+02 0.  0.
          5    1    1    2  502    0  0.10886195129E+03  0.23559581316E+02  0.60309034924E+02  0.12673054250E+03  0.41800000000E+01 0.  1.
         -5    1    1    2    0  502 -0.34115055460E+02  0.47964297780E+01  0.35672068775E+01  0.34886101997E+02  0.41800000000E+01 0.  1.
        -11    1    3    3    0    0 -0.62334191638E+02 -0.35582486897E+02 -0.55863465650E+02  0.90952688885E+02  0.00000000000E+00 0. -1.
         11    1    3    3    0    0 -0.12412704191E+02  0.72264758029E+01  0.25368973660E+02  0.29152735762E+02  0.00000000000E+00 0.  1.
</event>
<event>
 7    1  0.4274778E-006  0.2057675E+03  0.7561462E-02  0.1144962E+00
         -1   -1    0    0    0  501 -0.00000000000E+00  0.00000000000E+00  0.19817738507E+03  0.19817738507E+03  0.00000000000E+00 0.  1.
          1   -1    0    0  501    0  0.00000000000E+00 -0.00000000000E+00 -0.22979785861E+03  0.22979785861E+03  0.00000000000E+00 0. -1.
         23    2    1    2    0    0 -0.11797981042E+03 -0.13899804979E+03 -0.29111335039E+02  0.20685756427E+03  0.93289273524E+02 0.  0.
          5    1    1    2  502    0  0.14206367117E+03  0.10801519982E+03 -0.16436105670E+02  0.17926792248E+03  0.41800000000E+01 0. -1.
         -5    1    1    2    0  502 -0.24083860753E+02  0.30982849975E+02  0.13926967169E+02  0.41849756939E+02  0.41800000000E+01 0. -1.
        -11    1    3    3    0    0 -0.12349724172E+03 -0.11437736873E+03 -0.48344977424E+02  0.17513134509E+03  0.00000000000E+00 0. -1.
         11    1    3    3    0    0  0.55174313007E+01 -0.24620681060E+02  0.19233642385E+02  0.31726219179E+02  0.00000000000E+00 0.  1.
</event>
<event>
 7    1  0.4274778E-006  0.1056708E+03  0.7561462E-02  0.1268804E+00
         -1   -1    0    0    0  501 -0.00000000000E+00  0.00000000000E+00  0.46445148564E+02  0.46445148564E+02  0.00000000000E+00 0.  1.
          1   -1    0    0  501    0  0.00000000000E+00 -0.00000000000E+00 -0.38207169331E+03  0.38207169331E+03  0.00000000000E+00 0. -1.
         23    2    1    2    0    0 -0.40050329489E+02  0.54451874298E+02 -0.21243645398E+03  0.24038761420E+03  0.89932878172E+02 0.  0.
          5    1    1    2  502    0  0.61437373533E+01 -0.91387876424E+02 -0.84064900544E+02  0.12439400858E+03  0.41800000000E+01 0. -1.
         -5    1    1    2    0  502  0.33906592136E+02  0.36936002125E+02 -0.39125190226E+02  0.63735219099E+02  0.41800000000E+01 0. -1.
        -11    1    3    3    0    0 -0.25753391659E+02  0.21975385684E+02 -0.19991143510E+03  0.20275782757E+03  0.00000000000E+00 0. -1.
         11    1    3    3    0    0 -0.14296937831E+02  0.32476488614E+02 -0.12525018880E+02  0.37629786632E+02  0.00000000000E+00 0.  1.
</event>
<event>
 7    1  0.4274778E-006  0.1086027E+03  0.7561462E-02  0.1263180E+00
          3   -1    0    0  501    0  0.00000000000E+00  0.00000000000E+00  0.19758142408E+02  0.19758142408E+02  0.00000000000E+00 0. -1.
         -3   -1    0    0    0  501 -0.00000000000E+00 -0.00000000000E+00 -0.10637555009E+04  0.10637555009E+04  0.00000000000E+00 0.  1.
         23    2    1    2    0    0 -0.62005416707E+02 -0.57296370296E+01 -0.22067870777E+03  0.24842195562E+03  0.95587005010E+02 0.  0.
          5    1    1    2  502    0  0.68127698113E+02  0.47932585083E+02 -0.69082226580E+03  0.69583891188E+03  0.41800000000E+01 0.  1.
         -5    1    1    2    0  502 -0.61222814065E+01 -0.42202948053E+02 -0.13249638491E+03  0.13925277580E+03  0.41800000000E+01 0.  1.
        -11    1    3    3    0    0 -0.18056605738E+02  0.29525586425E+02 -0.19975112182E+02  0.39960059700E+02  0.00000000000E+00 0. -1.
         11    1    3    3    0    0 -0.43948810969E+02 -0.35255223454E+02 -0.20070359559E+03  0.20846189592E+03  0.00000000000E+00 0.  1.
</event>
<event>
 7    1  0.4274778E-006  0.1144289E+03  0.7561462E-02  0.1252581E+00
         -3   -1    0    0    0  501 -0.00000000000E+00  0.00000000000E+00  0.35483291640E+03  0.35483291640E+03  0.00000000000E+00 0.  1.
          3   -1    0    0  501    0  0.00000000000E+00 -0.00000000000E+00 -0.38867427504E+02  0.38867427504E+02  0.00000000000E+00 0. -1.
         23    2    1    2    0    0  0.37860069675E+02 -0.22345258038E+02  0.15011891116E+03  0.18135489268E+03  0.91767173750E+02 0.  0.
          5    1    1    2  502    0 -0.57015309176E+02  0.63153774033E+02  0.89315263384E+02  0.12342541606E+03  0.41800000000E+01 0.  1.
         -5    1    1    2    0  502  0.19155239500E+02 -0.40808515995E+02  0.76531314351E+02  0.88920035169E+02  0.41800000000E+01 0.  1.
        -11    1    3    3    0    0  0.17383922517E+02  0.34142647715E+02  0.82091247127E+02  0.90591909185E+02  0.00000000000E+00 0.  1.
         11    1    3    3    0    0  0.20476147158E+02 -0.56487905753E+02  0.68027664031E+02  0.90762983492E+02  0.00000000000E+00 0. -1.
</event>
<event>
 7    1  0.4274778E-006  0.9335804E+02  0.7561462E-02  0.1294918E+00
         -2   -1    0    0    0  501 -0.00000000000E+00  0.00000000000E+00  0.36573985514E+02  0.36573985514E+02  0.00000000000E+00 0.  1.
          2   -1    0    0  501    0  0.00000000000E+00 -0.00000000000E+00 -0.51807065069E+03  0.51807065069E+03  0.00000000000E+00 0. -1.
         23    2    1    2    0    0 -0.71466863256E+02  0.37765335510E+02 -0.18082546142E+03  0.21911001455E+03  0.93688942094E+02 0.  0.
          5    1    1    2  502    0  0.32734804758E+02  0.94353776946E+01 -0.25953236889E+03  0.26179212497E+03  0.41800000000E+01 0. -1.
         -5    1    1    2    0  502  0.38732058498E+02 -0.47200713205E+02 -0.41138834872E+02  0.73742496684E+02  0.41800000000E+01 0. -1.
        -11    1    3    3    0    0 -0.71316468126E+01 -0.91257946110E+01  0.80752186751E+01  0.14119124271E+02  0.00000000000E+00 0.  1.
         11    1    3    3    0    0 -0.64335216444E+02  0.46891130121E+02 -0.18890068009E+03  0.20499089028E+03  0.00000000000E+00 0. -1.
</event>
<event>
 7    1  0.4274778E-006  0.1122226E+03  0.7561462E-02  0.1256509E+00
          1   -1    0    0  501    0  0.00000000000E+00  0.00000000000E+00  0.15388126824E+03  0.15388126824E+03  0.00000000000E+00 0. -1.
         -1   -1    0    0    0  501 -0.00000000000E+00 -0.00000000000E+00 -0.10480332485E+03  0.10480332485E+03  0.00000000000E+00 0.  1.
         23    2    1    2    0    0 -0.39108320796E+02 -0.42089417624E+01  0.75598346395E+02  0.12491422375E+03  0.91330593842E+02 0.  0.
          5    1    1    2  502    0  0.21422476710E+02  0.64465341214E+02 -0.16610559777E+02  0.70057732067E+02  0.41800000000E+01 0. -1.
         -5    1    1    2    0  502  0.17685844086E+02 -0.60256399452E+02 -0.99098432236E+01  0.63712637276E+02  0.41800000000E+01 0. -1.
        -11    1    3    3    0    0 -0.60794071700E+02  0.16988223183E+02  0.29355522413E+02  0.69615124628E+02  0.00000000000E+00 0.  1.
         11    1    3    3    0    0  0.21685750904E+02 -0.21197164945E+02  0.46242823983E+02  0.55299099124E+02  0.00000000000E+00 0. -1.
</event>
<event>
 7    1  0.4274778E-006  0.8767197E+02  0.7561462E-02  0.1308589E+00
          2   -1    0    0  501    0  0.00000000000E+00  0.00000000000E+00  0.46755730397E+03  0.46755730397E+03  0.00000000000E+00 0. -1.
         -2   -1    0    0    0  501 -0.00000000000E+00 -0.00000000000E+00 -0.33074692899E+02  0.33074692899E+02  0.00000000000E+00 0.  1.
         23    2    1    2    0    0  0.36281383594E+02  0.15743423620E+02  0.28732001125E+03  0.30348006853E+03  0.89348581100E+02 0.  0.
          5    1    1    2  502    0 -0.57331588916E+02  0.20441729880E+02  0.14226721098E+03  0.15479730982E+03  0.41800000000E+01 0.  1.
         -5    1    1    2    0  502  0.21050205323E+02 -0.36185153500E+02  0.48953888369E+01  0.42354618518E+02  0.41800000000E+01 0.  1.
        -11    1    3    3    0    0 -0.11787608857E+02 -0.11951516586E+02  0.78038660271E+01  0.18511801540E+02  0.00000000000E+00 0.  1.
         11    1    3    3    0    0  0.48068992451E+02  0.27694940206E+02  0.27951614523E+03  0.28496826699E+03  0.00000000000E+00 0. -1.
</event>
<event>
 7    1  0.4274778E-006  0.1189701E+03  0.7561462E-02  0.1244806E+00
          1   -1    0    0  501    0  0.00000000000E+00  0.00000000000E+00  0.16277281277E+03  0.16277281277E+03  0.00000000000E+00 0. -1.
         -1   -1    0    0    0  501 -0.00000000000E+00 -0.00000000000E+00 -0.11658179979E+03  0.11658179979E+03  0.00000000000E+00 0.  1.
         23    2    1    2    0    0  0.77836324678E+02  0.12891300555E+02  0.16527040536E+02  0.12851616832E+03  0.10009287378E+03 0.  0.
          5    1    1    2  502    0 -0.95553084257E+02  0.13202038297E+02 -0.13208430011E+02  0.97450606717E+02  0.41800000000E+01 0.  1.
         -5    1    1    2    0  502  0.17716759579E+02 -0.26093338852E+02  0.42872402456E+02  0.53387837518E+02  0.41800000000E+01 0.  1.
        -11    1    3    3    0    0  0.11775111349E+02  0.37325100669E+02  0.38332369420E+02  0.54783089841E+02  0.00000000000E+00 0. -1.
         11    1    3    3    0    0  0.66061213329E+02 -0.24433800114E+02 -0.21805328884E+02  0.73733078480E+02  0.00000000000E+00 0.  1.
</event>
<event>
 7    1  0.4274778E-006  0.1292351E+03  0.7561462E-02  0.1228595E+00
          2   -1    0    0  501    0  0.00000000000E+00  0.00000000000E+00  0.15348021890E+03  0.15348021890E+03  0.00000000000E+00 0. -1.
         -2   -1    0    0    0  501 -0.00000000000E+00 -0.00000000000E+00 -0.16555329821E+03  0.16555329821E+03  0.00000000000E+00 0.  1.
         23    2    1    2    0    0  0.36002902754E+02 -0.89525477743E+02  0.60048326050E+02  0.14536489299E+03  0.90631840324E+02 0.  0.
          5    1    1    2  502    0 -0.34542677484E+02  0.11965333921E+03 -0.70507597009E+02  0.14317441038E+03  0.41800000000E+01 0.  1.
         -5    1    1    2    0  502 -0.14602252701E+01 -0.30127861467E+02 -0.16138083482E+01  0.30494213743E+02  0.41800000000E+01 0.  1.
        -11    1    3    3    0    0  0.11504418311E+02 -0.72899125732E+02  0.80630184703E+02  0.10930627090E+03  0.00000000000E+00 0. -1.
         11    1    3    3    0    0  0.24498484443E+02 -0.16626352011E+02 -0.20581858653E+02  0.36058622087E+02  0.00000000000E+00 0.  1.
</event>
<event>
 7    1  0.4274778E-006  0.6287473E+02  0.7561462E-02  0.1386149E+00
          4   -1    0    0  501    0  0.00000000000E+00  0.00000000000E+00  0.12984329754E+03  0.12984329754E+03  0.00000000000E+00 0.  1.
         -4   -1    0    0    0  501 -0.00000000000E+00 -0.00000000000E+00 -0.10483610217E+03  0.10483610217E+03  0.00000000000E+00 0. -1.
         23    2    1    2    0    0  0.20081483628E+02 -0.37424778260E+02  0.25228915266E+02  0.10257583768E+03  0.89896742415E+02 0.  0.
          5    1    1    2  502    0 -0.12437790439E+02 -0.13322405124E+01  0.59186347862E+02  0.60638021645E+02  0.41800000000E+01 0.  1.
         -5    1    1    2    0  502 -0.76436931890E+01  0.38757018772E+02 -0.59408067757E+02  0.71465540397E+02  0.41800000000E+01 0.  1.
        -11    1    3    3    0    0 -0.77380893529E+01 -0.43648616475E+02  0.48550966066E+02  0.65744019142E+02  0.00000000000E+00 0.  1.
         11    1    3    3    0    0  0.27819572981E+02  0.62238382151E+01 -0.23322050800E+02  0.36831818534E+02  0.00000000000E+00 0. -1.
</event>
<event>
 7    1  0.4274778E-006  0.1062215E+03  0.7561462E-02  0.1267731E+00
          2   -1    0    0  501    0  0.00000000000E+00  0.00000000000E+00  0.69198093216E+03  0.69198093216E+03  0.00000000000E+00 0.  1.
         -2   -1    0    0    0  501 -0.00000000000E+00 -0.00000000000E+00 -0.19555368770E+02  0.19555368770E+02  0.00000000000E+00 0. -1.
         23    2    1    2    0    0  0.36077350001E+02 -0.18598523992E+02  0.34239711012E+03  0.35626976611E+03  0.89693282639E+02 0.  0.
          5    1    1    2  502    0  0.40334968900E+02 -0.11400285648E+02  0.62296271627E+02  0.75200891535E+02  0.41800000000E+01 0. -1.
         -5    1    1    2    0  502 -0.76412318901E+02  0.29998809641E+02  0.26773218165E+03  0.28006564329E+03  0.41800000000E+01 0. -1.
        -11    1    3    3    0    0  0.47479568127E+02 -0.41165091492E+02  0.30307082424E+03  0.30951704098E+03  0.00000000000E+00 0.  1.
         11    1    3    3    0    0 -0.11402218125E+02  0.22566567500E+02  0.39326285874E+02  0.46752725135E+02  0.00000000000E+00 0. -1.
</event>
<event>
 7    1  0.4274778E-006  0.1960974E+03  0.7561462E-02  0.1153074E+00
          2   -1    0    0  501    0  0.00000000000E+00  0.00000000000E+00  0.85570382802E+03  0.85570382802E+03  0.00000000000E+00 0. -1.
         -2   -1    0    0    0  501 -0.00000000000E+00 -0.00000000000E+00 -0.54265324316E+02  0.54265324316E+02  0.00000000000E+00 0.  1.
         23    2    1    2    0    0  0.11731410315E+03 -0.13346209201E+03  0.49340577892E+03  0.53299829601E+03  0.95200798691E+02 0.  0.
          5    1    1    2  502    0 -0.11579573008E+03  0.46130184929E+02  0.21998198726E+03  0.25287584342E+03  0.41800000000E+01 0. -1.
         -5    1    1    2    0  502 -0.15183730708E+01  0.87331907082E+02  0.88050737532E+02  0.12409501292E+03  0.41800000000E+01 0. -1.
        -11    1    3    3    0    0  0.37533134325E+02 -0.23880491276E+02  0.40208139969E+02  0.59964227299E+02  0.00000000000E+00 0.  1.
         11    1    3    3    0    0  0.79780968826E+02 -0.10958160073E+03  0.45319763895E+03  0.47303406871E+03  0.00000000000E+00 0. -1.
</event>
<event>
 7    1  0.4274778E-006  0.7574479E+02  0.7561462E-02  0.1341580E+00
         -1   -1    0    0    0  501 -0.00000000000E+00  0.00000000000E+00  0.11764277888E+02  0.11764277888E+02  0.00000000000E+00 0.  1.
          1   -1    0    0  501    0  0.00000000000E+00 -0.00000000000E+00 -0.10523218298E+04  0.10523218298E+04  0.00000000000E+00 0. -1.
         23    2    1    2    0    0 -0.55316311765E+01 -0.12445029383E+02 -0.37035083229E+03  0.38216952146E+03  0.93318414341E+02 0.  0.
          5    1    1    2  502    0  0.65495697330E+01 -0.23453541462E+02 -0.23173575365E+02  0.33874067751E+02  0.41800000000E+01 0. -1.
         -5    1    1    2    0  502 -0.10179385565E+01  0.35898570845E+02 -0.64703314429E+03  0.64804251851E+03  0.41800000000E+01 0. -1.
        -11    1    3    3    0    0 -0.13429903775E+02 -0.50245984270E+02 -0.15812429123E+03  0.16645814107E+03  0.00000000000E+00 0.  1.
         11    1    3    3    0    0  0.78982725989E+01  0.37800954887E+02 -0.21222654107E+03  0.21571138040E+03  0.00000000000E+00 0. -1.
</event>
<event>
 7    1  0.4274778E-006  0.1564978E+03  0.7561462E-02  0.1192708E+00
          1   -1    0    0  501    0  0.00000000000E+00  0.00000000000E+00  0.15705778944E+03  0.15705778944E+03  0.00000000000E+00 0. -1.
         -1   -1    0    0    0  501 -0.00000000000E+00 -0.00000000000E+00 -0.17094618005E+03  0.17094618005E+03  0.00000000000E+00 0.  1.
         23    2    1    2    0    0  0.10987351027E+03  0.46829925561E+02  0.16365112574E+02  0.15242676150E+03  0.93278456921E+02 0.  0.
          5    1    1    2  502    0 -0.10435478189E+03 -0.80833826516E+02 -0.41107100445E+01  0.13213023253E+03  0.41800000000E+01 0. -1.
         -5    1    1    2    0  502 -0.55187283845E+01  0.34003900955E+02 -0.26142793138E+02  0.43446975455E+02  0.41800000000E+01 0. -1.
        -11    1    3    3    0    0  0.12419144470E+03  0.41287627479E+02  0.12483970308E+01  0.13088063881E+03  0.00000000000E+00 0.  1.
         11    1    3    3    0    0 -0.14317934430E+02  0.55422980817E+01  0.15116715543E+02  0.21546122695E+02  0.00000000000E+00 0. -1.
</event>
<event>
 7    1  0.4274778E-006  0.3789575E+03  0.7561462E-02  0.1051320E+00
          2   -1    0    0  501    0  0.00000000000E+00  0.00000000000E+00  0.15540572927E+04  0.15540572927E+04  0.00000000000E+00 0. -1.
         -2   -1    0    0    0  501 -0.00000000000E+00 -0.00000000000E+00 -0.12416322078E+03  0.12416322078E+03  0.00000000000E+00 0.  1.
         23    2    1    2    0    0 -0.36049454190E+02  0.15881003649E+03  0.67967380547E+03  0.70484269223E+03  0.91249921109E+02 0.  0.
          5    1    1    2  502    0  0.30469271821E+03 -0.89350338407E+02  0.53519488753E+03  0.62231195998E+03  0.41800000000E+01 0. -1.
         -5    1    1    2    0  502 -0.26864326402E+03 -0.69459698086E+02  0.21502537890E+03  0.35106586125E+03  0.41800000000E+01 0.  1.
        -11    1    3    3    0    0 -0.13908146413E+02  0.58560712391E+02  0.10463932085E+03  0.12071528918E+03  0.00000000000E+00 0.  1.
         11    1    3    3    0    0 -0.22141307777E+02  0.10024932410E+03  0.57503448462E+03  0.58412740305E+03  0.00000000000E+00 0. -1.
</event>
<event>
 7    1  0.4274778E-006  0.2459743E+03  0.7561462E-02  0.1115876E+00
         -2   -1    0    0    0  501 -0.00000000000E+00  0.00000000000E+00  0.10201575781E+03  0.10201575781E+03  0.00000000000E+00 0.  1.
          2   -1    0    0  501    0  0.00000000000E+00 -0.00000000000E+00 -0.70152777495E+03  0.70152777495E+03  0.00000000000E+00 0. -1.
         23    2    1    2    0    0 -0.20214943744E+03 -0.12683285987E+03 -0.37303935261E+03  0.45156868380E+03  0.88345617849E+02 0.  0.
          5    1    1    2  502    0  0.12552403813E+03  0.97838019096E+02 -0.67177067651E+02  0.17279697031E+03  0.41800000000E+01 0.  1.
         -5    1    1    2    0  502  0.76625399310E+02  0.28994840777E+02 -0.15929559688E+03  0.17917787865E+03  0.41800000000E+01 0.  1.
        -11    1    3    3    0    0 -0.72372191425E+02 -0.90623996059E+02 -0.21154852401E+03  0.24125343679E+03  0.00000000000E+00 0. -1.
         11    1    3    3    0    0 -0.12977724602E+03 -0.36208863813E+02 -0.16149082860E+03  0.21031524701E+03  0.00000000000E+00 0.  1.
</event>
<event>
 7    1  0.4274778E-006  0.1458673E+03  0.7561462E-02  0.1205645E+00
          1   -1    0    0  501    0  0.00000000000E+00  0.00000000000E+00  0.52645040682E+03  0.52645040682E+03  0.00000000000E+00 0. -1.
         -1   -1    0    0    0  501 -0.00000000000E+00 -0.00000000000E+00 -0.56217128633E+02  0.56217128633E+02  0.00000000000E+00 0.  1.
         23    2    1    2    0    0  0.12381846533E+03 -0.46180656287E+02  0.23948835963E+03  0.28880717088E+03  0.92688953943E+02 0.  0.
          5    1    1    2  502    0 -0.53229058732E+02  0.20505818487E+02  0.67769832935E+01  0.57595322621E+02  0.41800000000E+01 0.  1.
         -5    1    1    2    0  502 -0.70589406601E+02  0.25674837800E+02  0.22396793526E+03  0.23626504194E+03  0.41800000000E+01 0.  1.
        -11    1    3    3    0    0  0.11762461511E+03 -0.68520278372E+02  0.18582776538E+03  0.23035307034E+03  0.00000000000E+00 0.  1.
         11    1    3    3    0    0  0.61938502240E+01  0.22339622084E+02  0.53660594247E+02  0.58454100544E+02  0.00000000000E+00 0. -1.
</event>
<event>
 7    1  0.4274778E-006  0.2319358E+03  0.7561462E-02  0.1125285E+00
          1   -1    0    0  501    0  0.00000000000E+00  0.00000000000E+00  0.57769668337E+03  0.57769668337E+03  0.00000000000E+00 0. -1.
         -1   -1    0    0    0  501 -0.00000000000E+00 -0.00000000000E+00 -0.17566830060E+03  0.17566830060E+03  0.00000000000E+00 0.  1.
         23    2    1    2    0    0 -0.17951774648E+03 -0.14649113642E+03  0.42338805294E+03  0.49114467420E+03  0.90991061488E+02 0.  0.
          5    1    1    2  502    0  0.54571881824E+02  0.48984294023E+02  0.49486832274E+02  0.88566191716E+02  0.41800000000E+01 0. -1.
         -5    1    1    2    0  502  0.12494586466E+03  0.97506842402E+02 -0.70846502437E+02  0.17365411805E+03  0.41800000000E+01 0.  1.
        -11    1    3    3    0    0 -0.10067377365E+03 -0.87859931256E+02  0.15128702413E+03  0.20184731827E+03  0.00000000000E+00 0.  1.
         11    1    3    3    0    0 -0.78843972831E+02 -0.58631205168E+02  0.27210102881E+03  0.28929735593E+03  0.00000000000E+00 0. -1.
</event>
<event>
 7    1  0.4274778E-006  0.1129387E+03  0.7561462E-02  0.1255223E+00
         -1   -1    0    0    0  501 -0.00000000000E+00  0.00000000000E+00  0.36015843885E+03  0.36015843885E+03  0.00000000000E+00 0.  1.
          1   -1    0    0  501    0  0.00000000000E+00 -0.00000000000E+00 -0.75897272196E+02  0.75897272196E+02  0.00000000000E+00 0. -1.
         23    2    1    2    0    0 -0.59906565135E+02  0.48689704915E+02  0.39164574841E+01  0.12057096879E+03  0.92533971952E+02 0.  0.
          5    1    1    2  502    0 -0.20710068726E+02 -0.14165262468E+02  0.42793321102E+01  0.25794315086E+02  0.41800000000E+01 0. -1.
         -5    1    1    2    0  502  0.80616633861E+02 -0.34524442446E+02  0.27606537706E+03  0.28969042716E+03  0.41800000000E+01 0.  1.
        -11    1    3    3    0    0 -0.47660928842E+02  0.71980282509E+02 -0.15706293979E+02  0.87746298376E+02  0.00000000000E+00 0. -1.
         11    1    3    3    0    0 -0.12245636294E+02 -0.23290577595E+02  0.19622751463E+02  0.32824670416E+02  0.00000000000E+00 0.  1.
</event>
<event>
 7    1  0.4274778E-006  0.1708713E+03  0.7561462E-02  0.1176942E+00
         -1   -1    0    0    0  501 -0.00000000000E+00  0.00000000000E+00  0.11865910779E+04  0.11865910779E+04  0.00000000000E+00 0.  1.
          1   -1    0    0  501    0  0.00000000000E+00 -0.00000000000E+00 -0.32054410272E+02  0.32054410272E+02  0.00000000000E+00 0. -1.
         23    2    1    2    0    0 -0.80630986773E+02  0.13706922929E+03  0.44808106481E+03  0.48378761673E+03  0.89355961278E+02 0.  0.
          5    1    1    2  502    0  0.68205328841E+02 -0.11290008353E+03  0.69064524644E+03  0.70314061508E+03  0.41800000000E+01 0.  1.
         -5    1    1    2    0  502  0.12425657932E+02 -0.24169145760E+02  0.15810356365E+02  0.31717256347E+02  0.41800000000E+01 0.  1.
        -11    1    3    3    0    0 -0.10037479460E+03  0.11285520610E+03  0.37804076376E+03  0.40709484890E+03  0.00000000000E+00 0. -1.
         11    1    3    3    0    0  0.19743807832E+02  0.24214023187E+02  0.70040301051E+02  0.76692767833E+02  0.00000000000E+00 0.  1.
</event>
<event>
 7    1  0.4274778E-006  0.1680093E+03  0.7561462E-02  0.1179940E+00
         -1   -1    0    0    0  501 -0.00000000000E+00  0.00000000000E+00  0.22594773570E+03  0.22594773570E+03  0.00000000000E+00 0.  1.
          1   -1    0    0  501    0  0.00000000000E+00 -0.00000000000E+00 -0.15211378047E+03  0.15211378047E+03  0.00000000000E+00 0. -1.
         23    2    1    2    0    0  0.65882634834E+02  0.13262218524E+03  0.10433811975E+02  0.17411187221E+03  0.90977546807E+02 0.  0.
          5    1    1    2  502    0 -0.91185850987E+02 -0.13378428440E+03  0.71486764957E+02  0.17703368080E+03  0.41800000000E+01 0.  1.
         -5    1    1    2    0  502  0.25303216154E+02  0.11620991573E+01 -0.80866217115E+01  0.26915963161E+02  0.41800000000E+01 0.  1.
        -11    1    3    3    0    0  0.25031572757E+02  0.60967574064E+02  0.49908509877E+02  0.82670938546E+02  0.00000000000E+00 0.  1.
         11    1    3    3    0    0  0.40851062077E+02  0.71654611176E+02 -0.39474697902E+02  0.91440933668E+02  0.00000000000E+00 0. -1.
</event>
<event>
 7    1  0.4274778E-006  0.2052983E+03  0.7561462E-02  0.1145344E+00
          1   -1    0    0  501    0  0.00000000000E+00  0.00000000000E+00  0.32207294388E+03  0.32207294388E+03  0.00000000000E+00 0. -1.
         -1   -1    0    0    0  501 -0.00000000000E+00 -0.00000000000E+00 -0.16362188035E+03  0.16362188035E+03  0.00000000000E+00 0.  1.
         23    2    1    2    0    0  0.84136355058E+02  0.15263748089E+03  0.18430002697E+03  0.26961112190E+03  0.91359347087E+02 0.  0.
          5    1    1    2  502    0  0.65981554165E+01  0.18515814592E+02  0.25303849859E+01  0.20254537593E+02  0.41800000000E+01 0. -1.
         -5    1    1    2    0  502 -0.90734510475E+02 -0.17115329548E+03 -0.28379348427E+02  0.19582916474E+03  0.41800000000E+01 0. -1.
        -11    1    3    3    0    0  0.78881045987E+02  0.48773370967E+02  0.89739126724E+02  0.12905104415E+03  0.00000000000E+00 0. -1.
         11    1    3    3    0    0  0.52553090709E+01  0.10386410992E+03  0.94560900245E+02  0.14056007775E+03  0.00000000000E+00 0.  1.
</event>
<event>
 7    1  0.4274778E-006  0.1102328E+03  0.7561462E-02  0.1260139E+00
         -2   -1    0    0    0  501 -0.00000000000E+00  0.00000000000E+00  0.11858220262E+03  0.11858220262E+03  0.00000000000E+00 0.  1.
          2   -1    0    0  501    0  0.00000000000E+00 -0.00000000000E+00 -0.14383412307E+03  0.14383412307E+03  0.00000000000E+00 0. -1.
         23    2    1    2    0    0 -0.47925498474E+01  0.85680687063E+00 -0.79919623618E+02  0.12563496360E+03  0.96815779642E+02 0.  0.
          5    1    1    2  502    0  0.47963522057E+02 -0.43049569093E+02  0.23599207340E+02  0.68761615995E+02  0.41800000000E+01 0. -1.
         -5    1    1    2    0  502 -0.43170972209E+02  0.42192762222E+02  0.31068495827E+02  0.68019746092E+02  0.41800000000E+01 0. -1.
        -11    1    3    3    0    0  0.22464702002E+02 -0.40222661229E+02 -0.49894391214E+02  0.67911527644E+02  0.00000000000E+00 0. -1.
         11    1    3    3    0    0 -0.27257251849E+02  0.41079468099E+02 -0.30025232404E+02  0.57723435957E+02  0.00000000000E+00 0.  1.
</event>
<event>
 7    1  0.4274778E-006  0.1023338E+03  0.7561462E-02  0.1275463E+00
          4   -1    0    0  501    0  0.00000000000E+00  0.00000000000E+00  0.84414425636E+02  0.84414425636E+02  0.00000000000E+00 0. -1.
         -4   -1    0    0    0  501 -0.00000000000E+00 -0.00000000000E+00 -0.14003269938E+03  0.14003269938E+03  0.00000000000E+00 0.  1.
         23    2    1    2    0    0  0.15976108154E+02 -0.98977335903E+00 -0.22903573166E+02  0.94172434802E+02  0.89931407915E+02 0.  0.
          5    1    1    2  502    0 -0.48309790984E+02  0.43332555914E+02  0.44483748438E+01  0.65182871567E+02  0.41800000000E+01 0.  1.
         -5    1    1    2    0  502  0.32333682831E+02 -0.42342782555E+02 -0.37163075422E+02  0.65091818646E+02  0.41800000000E+01 0.  1.
        -11    1    3    3    0    0  0.38226165649E+02 -0.30735383398E+02 -0.28311481383E+02  0.56634296243E+02  0.00000000000E+00 0.  1.
         11    1    3    3    0    0 -0.22250057495E+02  0.29745610039E+02  0.54079082171E+01  0.37538138558E+02  0.00000000000E+00 0. -1.
</event>
<event>
 7    1  0.4274778E-006  0.1323520E+03  0.7561462E-02  0.1224007E+00
          1   -1    0    0  501    0  0.00000000000E+00  0.00000000000E+00  0.17213918155E+03  0.17213918155E+03  0.00000000000E+00 0. -1.
         -1   -1    0    0    0  501 -0.00000000000E+00 -0.00000000000E+00 -0.11316879294E+03  0.11316879294E+03  0.00000000000E+00 0.  1.
         23    2    1    2    0    0 -0.77229925682E+01  0.84391729145E+02  0.46618106191E+02  0.13371149653E+03  0.92325012416E+02 0.  0.
          5    1    1    2  502    0  0.41622489535E+02  0.10900818466E+02  0.24421992924E+02  0.49650434205E+02  0.41800000000E+01 0.  1.
         -5    1    1    2    0  502 -0.33899496967E+02 -0.95292547611E+02 -0.12069710508E+02  0.10194604375E+03  0.41800000000E+01 0.  1.
        -11    1    3    3    0    0 -0.39938929789E+02  0.77669174232E+02  0.49987056849E+02  0.10062964072E+03  0.00000000000E+00 0. -1.
         11    1    3    3    0    0  0.32215937221E+02  0.67225549128E+01 -0.33689506577E+01  0.33081855814E+02  0.00000000000E+00 0.  1.
</event>
<event>
 7    1  0.4274778E-006  0.1189174E+03  0.7561462E-02  0.1244894E+00
          3   -1    0    0  501    0  0.00000000000E+00  0.00000000000E+00  0.69722386002E+02  0.69722386002E+02  0.00000000000E+00 0. -1.
         -3   -1    0    0    0  501 -0.00000000000E+00 -0.00000000000E+00 -0.24353468044E+03  0.24353468044E+03  0.00000000000E+00 0.  1.
         23    2    1    2    0    0  0.42997350937E+02  0.58478125272E+02 -0.72491740518E+02  0.13667322783E+03  0.90310882175E+02 0.  0.
          5    1    1    2  502    0 -0.67130009033E+02 -0.69045291670E+02 -0.30807655901E+02  0.10119424132E+03  0.41800000000E+01 0. -1.
         -5    1    1    2    0  502  0.24132658096E+02  0.10567166398E+02 -0.70512898017E+02  0.75389597288E+02  0.41800000000E+01 0. -1.
        -11    1    3    3    0    0 -0.26725294161E+02  0.27905020859E+02 -0.15761083868E+02  0.41729405721E+02  0.00000000000E+00 0.  1.
         11    1    3    3    0    0  0.69722645098E+02  0.30573104414E+02 -0.56730656650E+02  0.94943822110E+02  0.00000000000E+00 0. -1.
</event>
<event>
 7    1  0.4274778E-006  0.1015891E+03  0.7561462E-02  0.1276989E+00
          2   -1    0    0  501    0  0.00000000000E+00  0.00000000000E+00  0.66503931706E+03  0.66503931706E+03  0.00000000000E+00 0. -1.
         -2   -1    0    0    0  501 -0.00000000000E+00 -0.00000000000E+00 -0.33496510039E+02  0.33496510039E+02  0.00000000000E+00 0.  1.
         23    2    1    2    0    0 -0.76449453099E+02  0.14298600050E+02  0.44857773608E+03  0.46364660326E+03  0.87733793740E+02 0.  0.
          5    1    1    2  502    0  0.68888205047E+02  0.15569789269E+02  0.19022871397E+03  0.20295920563E+03  0.41800000000E+01 0. -1.
         -5    1    1    2    0  502  0.75612480526E+01 -0.29868389320E+02 -0.72636430285E+01  0.31930018207E+02  0.41800000000E+01 0. -1.
        -11    1    3    3    0    0  0.53240379170E+01  0.18701054380E+02  0.22354970566E+02  0.29628019233E+02  0.00000000000E+00 0.  1.
         11    1    3    3    0    0 -0.81773491016E+02 -0.44024543297E+01  0.42622276552E+03  0.43401858403E+03  0.00000000000E+00 0. -1.
</event>
<event>
 7    1  0.4274778E-006  0.1218282E+03  0.7561462E-02  0.1240111E+00
         -1   -1    0    0    0  501 -0.00000000000E+00  0.00000000000E+00  0.29062092626E+02  0.29062092626E+02  0.00000000000E+00 0.  1.
          1   -1    0    0  501    0  0.00000000000E+00 -0.00000000000E+00 -0.69955838617E+03  0.69955838617E+03  0.00000000000E+00 0. -1.
         23    2    1    2    0    0 -0.28594410290E+02 -0.85741190502E+02 -0.23625589489E+03  0.26777241142E+03  0.87840903912E+02 0.  0.
          5    1    1    2  502    0  0.27161980272E+02  0.99957074157E+02 -0.43373634517E+03  0.44595277706E+03  0.41800000000E+01 0. -1.
         -5    1    1    2    0  502  0.14324300175E+01 -0.14215883654E+02 -0.50405349224E+00  0.14895290321E+02  0.41800000000E+01 0. -1.
        -11    1    3    3    0    0 -0.45443802372E+02 -0.87352641780E+01 -0.72134799455E+02  0.85702236299E+02  0.00000000000E+00 0.  1.
         11    1    3    3    0    0  0.16849392082E+02 -0.77005926324E+02 -0.16412109544E+03  0.18207017512E+03  0.00000000000E+00 0. -1.
</event>
<event>
 7    1  0.4274778E-006  0.1164367E+03  0.7561462E-02  0.1249094E+00
          2   -1    0    0  501    0  0.00000000000E+00  0.00000000000E+00  0.42067102929E+03  0.42067102929E+03  0.00000000000E+00 0. -1.
         -2   -1    0    0    0  501 -0.00000000000E+00 -0.00000000000E+00 -0.42991989215E+02  0.42991989215E+02  0.00000000000E+00 0.  1.
         23    2    1    2    0    0 -0.39157526732E+02 -0.23702091788E+02  0.28219757578E+03  0.29977669150E+03  0.90196961897E+02 0.  0.
          5    1    1    2  502    0  0.83818798900E+02  0.22379880351E+02  0.51109354600E+02  0.10077742119E+03  0.41800000000E+01 0. -1.
         -5    1    1    2    0  502 -0.44661272168E+02  0.13222114369E+01  0.44372109694E+02  0.63108905817E+02  0.41800000000E+01 0. -1.
        -11    1    3    3    0    0 -0.57204199808E+02  0.14393929745E+02  0.16600570004E+03  0.17617434017E+03  0.00000000000E+00 0.  1.
         11    1    3    3    0    0  0.18046673077E+02 -0.38096021533E+02  0.11619187574E+03  0.12360235133E+03  0.00000000000E+00 0. -1.
</event>
<event>
 7    1  0.4274778E-006  0.1126338E+03  0.7561462E-02  0.1255769E+00
         -2   -1    0    0    0  501 -0.00000000000E+00  0.00000000000E+00  0.20562157673E+02  0.20562157673E+02  0.00000000000E+00 0.  1.
          2   -1    0    0  501    0  0.00000000000E+00 -0.00000000000E+00 -0.87811707641E+03  0.87811707641E+03  0.00000000000E+00 0. -1.
         23    2    1    2    0    0 -0.61096072019E+02 -0.45275609304E+02 -0.29706016622E+03  0.31938113612E+03  0.89313811601E+02 0.  0.
          5    1    1    2  502    0 -0.29363045237E+02  0.73089587776E+01 -0.28867019403E+03  0.29028186754E+03  0.41800000000E+01 0.  1.
         -5    1    1    2    0  502  0.90459117256E+02  0.37966650527E+02 -0.27182455848E+03  0.28901623041E+03  0.41800000000E+01 0.  1.
        -11    1    3    3    0    0 -0.47976781573E+02  0.14475203732E+01 -0.57246281620E+02  0.74706115176E+02  0.00000000000E+00 0.  1.
         11    1    3    3    0    0 -0.13119290446E+02 -0.46723129677E+02 -0.23981388460E+03  0.24467502095E+03  0.00000000000E+00 0. -1.
</event>
<event>
 7    1  0.4274778E-006  0.1288921E+03  0.7561462E-02  0.1229109E+00
         -1   -1    0    0    0  501 -0.00000000000E+00  0.00000000000E+00  0.31628916013E+03  0.31628916013E+03  0.00000000000E+00 0.  1.
          1   -1    0    0  501    0  0.00000000000E+00 -0.00000000000E+00 -0.74317997967E+02  0.74317997967E+02  0.00000000000E+00 0. -1.
         23    2    1    2    0    0 -0.89364372193E+02  0.57407703437E+02  0.84818035967E+02  0.16339400462E+03  0.90674506281E+02 0.  0.
          5    1    1    2  502    0  0.99638644995E+02 -0.77961387915E+02  0.15962847673E+03  0.20372668104E+03  0.41800000000E+01 0. -1.
         -5    1    1    2    0  502 -0.10274272802E+02  0.20553684478E+02 -0.24753505403E+01  0.23486472437E+02  0.41800000000E+01 0. -1.
        -11    1    3    3    0    0 -0.23812348159E+02  0.25671029429E+02 -0.16425704007E+02  0.38676005855E+02  0.00000000000E+00 0. -1.
         11    1    3    3    0    0 -0.65552024034E+02  0.31736674008E+02  0.10124373997E+03  0.12471799877E+03  0.00000000000E+00 0.  1.
</event>
<event>
 7    1  0.4274778E-006  0.1093629E+03  0.7561462E-02  0.1261754E+00
          1   -1    0    0  501    0  0.00000000000E+00  0.00000000000E+00  0.69018042562E+02  0.69018042562E+02  0.00000000000E+00 0. -1.
         -1   -1    0    0    0  501 -0.00000000000E+00 -0.00000000000E+00 -0.22104682004E+03  0.22104682004E+03  0.00000000000E+00 0.  1.
         23    2    1    2    0    0  0.61737016303E+02  0.63221130261E+01 -0.69193234137E+02  0.12770272979E+03  0.87572000376E+02 0.  0.
          5    1    1    2  502    0 -0.98765769236E+02 -0.61120089893E+01 -0.43489956090E+02  0.10817061758E+03  0.41800000000E+01 0.  1.
         -5    1    1    2    0  502  0.37028752933E+02 -0.21010403687E+00 -0.39345587255E+02  0.54191515239E+02  0.41800000000E+01 0.  1.
        -11    1    3    3    0    0  0.41680489033E+02  0.30024640913E+02  0.53755006499E+00  0.51371501711E+02  0.00000000000E+00 0. -1.
         11    1    3    3    0    0  0.20056527271E+02 -0.23702527887E+02 -0.69730784202E+02  0.76331228078E+02  0.00000000000E+00 0.  1.
</event>
<event>
 7    1  0.4274778E-006  0.1026939E+03  0.7561462E-02  0.1274731E+00
          4   -1    0    0  501    0  0.00000000000E+00  0.00000000000E+00  0.26854774356E+02  0.26854774356E+02  0.00000000000E+00 0. -1.
         -4   -1    0    0    0  501 -0.00000000000E+00 -0.00000000000E+00 -0.83631375352E+03  0.83631375352E+03  0.00000000000E+00 0.  1.
         23    2    1    2    0    0 -0.91248452523E+02 -0.40249465078E+02 -0.28525605192E+03  0.31509651768E+03  0.89266459386E+02 0.  0.
          5    1    1    2  502    0  0.60752375551E+01  0.91262672584E+01  0.37915565760E+01  0.12330675841E+02  0.41800000000E+01 0.  1.
         -5    1    1    2    0  502  0.85173214968E+02  0.31123197820E+02 -0.52799448383E+03  0.53574133436E+03  0.41800000000E+01 0.  1.
        -11    1    3    3    0    0 -0.74214071249E+02 -0.20907133036E+02 -0.27774803096E+03  0.28825128844E+03  0.00000000000E+00 0.  1.
         11    1    3    3    0    0 -0.17034381275E+02 -0.19342332042E+02 -0.75080209518E+01  0.26845229238E+02  0.00000000000E+00 0. -1.
</event>
<event>
 7    1  0.4274778E-006  0.1178765E+03  0.7561462E-02  0.1246642E+00
          3   -1    0    0  501    0  0.00000000000E+00  0.00000000000E+00  0.30604742831E+03  0.30604742831E+03  0.00000000000E+00 0. -1.
         -3   -1    0    0    0  501 -0.00000000000E+00 -0.00000000000E+00 -0.69328647895E+02  0.69328647895E+02  0.00000000000E+00 0.  1.
         23    2    1    2    0    0 -0.27474877241E+02  0.80768810303E+02  0.16755751072E+03  0.20891614791E+03  0.91060243038E+02 0.  0.
          5    1    1    2  502    0  0.59758406444E+01  0.21572135924E+02  0.56651355232E+02  0.61056663594E+02  0.41800000000E+01 0. -1.
         -5    1    1    2    0  502  0.21499036596E+02 -0.10234094623E+03  0.12509914461E+02  0.10540326470E+03  0.41800000000E+01 0. -1.
        -11    1    3    3    0    0 -0.42881973376E+02  0.23255519202E+02  0.12916603191E+03  0.13807080290E+03  0.00000000000E+00 0. -1.
         11    1    3    3    0    0  0.15407096135E+02  0.57513291102E+02  0.38391478812E+02  0.70845345013E+02  0.00000000000E+00 0.  1.
</event>
<event>
 7    1  0.4274778E-006  0.1576883E+03  0.7561462E-02  0.1191332E+00
         -3   -1    0    0    0  501 -0.00000000000E+00  0.00000000000E+00  0.13850130587E+04  0.13850130587E+04  0.00000000000E+00 0.  1.
          3   -1    0    0  501    0  0.00000000000E+00 -0.00000000000E+00 -0.18142346642E+02  0.18142346642E+02  0.00000000000E+00 0. -1.
         23    2    1    2    0    0  0.58668042174E+01  0.11710909425E+03  0.57308156947E+03  0.59106209157E+03  0.84752294821E+02 0.  0.
          5    1    1    2  502    0 -0.45187058837E+02  0.24937101881E+01  0.21718086063E+03  0.22188530258E+03  0.41800000000E+01 0. -1.
         -5    1    1    2    0  502  0.39320254619E+02 -0.11960280444E+03  0.57660828194E+03  0.59020801118E+03  0.41800000000E+01 0. -1.
        -11    1    3    3    0    0  0.34677331935E+02  0.14858900200E+02  0.12559689632E+03  0.13114070547E+03  0.00000000000E+00 0.  1.
         11    1    3    3    0    0 -0.28810527718E+02  0.10225019405E+03  0.44748467315E+03  0.45992138610E+03  0.00000000000E+00 0. -1.
</event>
<event>
 7    1  0.4274778E-006  0.1166879E+03  0.7561462E-02  0.1248663E+00
          1   -1    0    0  501    0  0.00000000000E+00  0.00000000000E+00  0.66500429754E+02  0.66500429754E+02  0.00000000000E+00 0. -1.
         -1   -1    0    0    0  501 -0.00000000000E+00 -0.00000000000E+00 -0.26985100278E+03  0.26985100278E+03  0.00000000000E+00 0.  1.
         23    2    1    2    0    0  0.29216507443E+02 -0.67893447767E+02 -0.57771050812E+02  0.13067262196E+03  0.90965461913E+02 0.  0.
          5    1    1    2  502    0 -0.45280070367E+01  0.90328552815E+02 -0.14630180893E+03  0.17205069601E+03  0.41800000000E+01 0.  1.
         -5    1    1    2    0  502 -0.24688500406E+02 -0.22435105049E+02  0.72228671985E+00  0.33628114561E+02  0.41800000000E+01 0.  1.
        -11    1    3    3    0    0  0.10447582365E+02  0.18262842472E+02  0.59687896493E+01  0.21870295890E+02  0.00000000000E+00 0. -1.
         11    1    3    3    0    0  0.18768925078E+02 -0.86156290239E+02 -0.63739840461E+02  0.10880232607E+03  0.00000000000E+00 0.  1.
</event>
<event>
 6    1  0.4274778E-006  0.8179096E+02  0.7561462E-02  0.1324044E+00
          4   -1    0    0  501    0  0.00000000000E+00  0.00000000000E+00  0.71056523213E+02  0.71056523213E+02  0.00000000000E+00 0. -1.
         -4   -1    0    0    0  501 -0.00000000000E+00 -0.00000000000E+00 -0.27401592245E+03  0.27401592245E+03  0.00000000000E+00 0.  1.
          5    1    1    2  502    0 -0.47079134801E+02 -0.13259261180E+02  0.76870495015E+01  0.49687182157E+02  0.41800000000E+01 0. -1.
         -5    1    1    2    0  502  0.90522457983E+01  0.56186224888E+02 -0.22525920116E+03  0.23237472997E+03  0.41800000000E+01 0.  1.
        -11    1    1    2    0    0  0.30478113118E+02 -0.32487088262E+02  0.14164946285E+01  0.44568292989E+02  0.00000000000E+00 0. -1.
         11    1    1    2    0    0  0.75487758850E+01 -0.10439875446E+02  0.13196257793E+02  0.18442240548E+02  0.00000000000E+00 0.  1.
</event>
<event>
 7    1  0.4274778E-006  0.1076302E+03  0.7561462E-02  0.1265022E+00
          1   -1    0    0  501    0  0.00000000000E+00  0.00000000000E+00  0.47267849016E+02  0.47267849016E+02  0.00000000000E+00 0. -1.
         -1   -1    0    0    0  501 -0.00000000000E+00 -0.00000000000E+00 -0.39674305748E+03  0.39674305748E+03  0.00000000000E+00 0.  1.
         23    2    1    2    0    0  0.32188012674E+02  0.23182314353E+02 -0.40722493220E+02  0.10881700098E+03  0.92786477404E+02 0.  0.
          5    1    1    2  502    0  0.10100805828E+01  0.48806062025E+02 -0.14817335804E+03  0.15606366773E+03  0.41800000000E+01 0. -1.
         -5    1    1    2    0  502 -0.33198093257E+02 -0.71988376378E+02 -0.16057935721E+03  0.17913023779E+03  0.41800000000E+01 0.  1.
        -11    1    3    3    0    0 -0.24664093887E+02  0.16414949288E+02 -0.42179599982E+02  0.51544997255E+02  0.00000000000E+00 0.  1.
         11    1    3    3    0    0  0.56852106561E+02  0.67673650650E+01  0.14571067618E+01  0.57272003723E+02  0.00000000000E+00 0. -1.
</event>
<event>
 7    1  0.4274778E-006  0.2063032E+03  0.7561462E-02  0.1144527E+00
         -1   -1    0    0    0  501 -0.00000000000E+00  0.00000000000E+00  0.13603561699E+03  0.13603561699E+03  0.00000000000E+00 0.  1.
          1   -1    0    0  501    0  0.00000000000E+00 -0.00000000000E+00 -0.60142433831E+03  0.60142433831E+03  0.00000000000E+00 0. -1.
         23    2    1    2    0    0  0.12921457752E+03 -0.13573561490E+03 -0.46819375703E+03  0.51212584039E+03  0.89145488294E+02 0.  0.
          5    1    1    2  502    0 -0.15829591187E+02  0.88218131995E+02 -0.35508368241E+02  0.96495240220E+02  0.41800000000E+01 0.  1.
         -5    1    1    2    0  502 -0.11338498634E+03  0.47517482909E+02  0.38313403945E+02  0.12883887469E+03  0.41800000000E+01 0.  1.
        -11    1    3    3    0    0  0.76822415714E+02 -0.31151449753E+02 -0.26504943845E+03  0.27771082298E+03  0.00000000000E+00 0. -1.
         11    1    3    3    0    0  0.52392161808E+02 -0.10458416515E+03 -0.20314431858E+03  0.23441501742E+03  0.00000000000E+00 0.  1.
</event>
<event>
 7    1  0.4274778E-006  0.7703725E+02  0.7561462E-02  0.1337676E+00
          2   -1    0    0  501    0  0.00000000000E+00  0.00000000000E+00  0.28309590935E+03  0.28309590935E+03  0.00000000000E+00 0. -1.
         -2   -1    0    0    0  501 -0.00000000000E+00 -0.00000000000E+00 -0.59763614824E+02  0.59763614824E+02  0.00000000000E+00 0.  1.
         23    2    1    2    0    0  0.54387897684E+02 -0.19770888656E+02  0.15507552536E+03  0.18905837208E+03  0.91354901539E+02 0.  0.
          5    1    1    2  502    0  0.15040659279E+02 -0.10392176880E+02 -0.26490041110E+02  0.32456331430E+02  0.41800000000E+01 0. -1.
         -5    1    1    2    0  502 -0.69428556963E+02  0.30163065535E+02  0.94746810282E+02  0.12134482067E+03  0.41800000000E+01 0. -1.
        -11    1    3    3    0    0  0.26193273497E+02 -0.16890043456E+02  0.15755562672E+03  0.16060864440E+03  0.00000000000E+00 0. -1.
         11    1    3    3    0    0  0.28194624187E+02 -0.28808452001E+01 -0.24801013650E+01  0.28449727677E+02  0.00000000000E+00 0.  1.
</event>
<event>
 7    1  0.4274778E-006  0.9738222E+02  0.7561462E-02  0.1285899E+00
          1   -1    0    0  501    0  0.00000000000E+00  0.00000000000E+00  0.59228655497E+02  0.59228655497E+02  0.00000000000E+00 0. -1.
         -1   -1    0    0    0  501 -0.00000000000E+00 -0.00000000000E+00 -0.28919613238E+03  0.28919613238E+03  0.00000000000E+00 0.  1.
         23    2    1    2    0    0 -0.84428308806E+01  0.75074782053E+02 -0.85813110938E+02  0.14316503845E+03  0.86167476072E+02 0.  0.
          5    1    1    2  502    0  0.38485403627E+02 -0.70185534302E+02 -0.15348229040E+03  0.17315144060E+03  0.41800000000E+01 0.  1.
         -5    1    1    2    0  502 -0.30042572747E+02 -0.48892477504E+01  0.93279244515E+01  0.32108308822E+02  0.41800000000E+01 0.  1.
        -11    1    3    3    0    0  0.14492308756E+02  0.28854382641E+02  0.10455998616E+02  0.33940098964E+02  0.00000000000E+00 0. -1.
         11    1    3    3    0    0 -0.22935139637E+02  0.46220399412E+02 -0.96269109554E+02  0.10922493949E+03  0.00000000000E+00 0.  1.
</event>
<event>
 7    1  0.4274778E-006  0.1521223E+03  0.7561462E-02  0.1197889E+00
         -2   -1    0    0    0  501 -0.00000000000E+00  0.00000000000E+00  0.28109078176E+03  0.28109078176E+03  0.00000000000E+00 0.  1.
          2   -1    0    0  501    0  0.00000000000E+00 -0.00000000000E+00 -0.90265746916E+02  0.90265746916E+02  0.00000000000E+00 0. -1.
         23    2    1    2    0    0  0.78682650794E+02 -0.73132822764E+02  0.50457036286E+02  0.15481299312E+03  0.99407147770E+02 0.  0.
          5    1    1    2  502    0 -0.28818967875E+02 -0.30974432996E+02  0.68130565079E+02  0.80306878328E+02  0.41800000000E+01 0. -1.
         -5    1    1    2    0  502 -0.49863682919E+02  0.10410725576E+03  0.72237433478E+02  0.13623665722E+03  0.41800000000E+01 0. -1.
        -11    1    3    3    0    0 -0.23657152116E+02 -0.19630959573E+02  0.13366750459E+02  0.33521715914E+02  0.00000000000E+00 0.  1.
         11    1    3    3    0    0  0.10233980291E+03 -0.53501863191E+02  0.37090285827E+02  0.12129127721E+03  0.00000000000E+00 0. -1.
</event>
<event>
 7    1  0.4274778E-006  0.1441449E+03  0.7561462E-02  0.1207858E+00
          1   -1    0    0  501    0  0.00000000000E+00  0.00000000000E+00  0.85974536701E+03  0.85974536701E+03  0.00000000000E+00 0. -1.
         -1   -1    0    0    0  501 -0.00000000000E+00 -0.00000000000E+00 -0.36564605524E+02  0.36564605524E+02  0.00000000000E+00 0.  1.
         23    2    1    2    0    0 -0.71565724507E+02 -0.97523701522E+02  0.57253038021E+03  0.59117620766E+03  0.84057997599E+02 0.  0.
          5    1    1    2  502    0  0.17512071333E+02  0.83502432817E+02  0.54926492991E+02  0.10155649148E+03  0.41800000000E+01 0. -1.
         -5    1    1    2    0  502  0.54053653174E+02  0.14021268705E+02  0.19572388829E+03  0.20357727340E+03  0.41800000000E+01 0. -1.
        -11    1    3    3    0    0 -0.44705639805E+02  0.10337843877E+01  0.19584889040E+03  0.20088915055E+03  0.00000000000E+00 0.  1.
         11    1    3    3    0    0 -0.26860084703E+02 -0.98557485910E+02  0.37668148982E+03  0.39028705711E+03  0.00000000000E+00 0. -1.
</event>
<event>
 7    1  0.4274778E-006  0.9004595E+02  0.7561462E-02  0.1302740E+00
         -1   -1    0    0    0  501 -0.00000000000E+00  0.00000000000E+00  0.17359357271E+02  0.17359357271E+02  0.00000000000E+00 0.  1.
          1   -1    0    0  501    0  0.00000000000E+00 -0.00000000000E+00 -0.85100048985E+03  0.85100048985E+03  0.00000000000E+00 0. -1.
         23    2    1    2    0    0  0.35549255127E+02  0.41819598510E+02 -0.37972734366E+03  0.39433572009E+03  0.91077858208E+02 0.  0.
          5    1    1    2  502    0 -0.18440368978E+01  0.10571773946E+02 -0.36607303259E+03  0.36625414737E+03  0.41800000000E+01 0. -1.
         -5    1    1    2    0  502 -0.33705218229E+02 -0.52391372456E+02 -0.87840756329E+02  0.10776997966E+03  0.41800000000E+01 0. -1.
        -11    1    3    3    0    0 -0.26846330888E+02  0.33898934384E+02 -0.16671406573E+03  0.17223078397E+03  0.00000000000E+00 0. -1.
         11    1    3    3    0    0  0.62395586015E+02  0.79206641254E+01 -0.21301327793E+03  0.22210493612E+03  0.00000000000E+00 0.  1.
</event>
<event>
 7    1  0.4274778E-006  0.1017612E+03  0.7561462E-02  0.1276635E+00
         -2   -1    0    0    0  501 -0.00000000000E+00  0.00000000000E+00  0.34215683260E+03  0.34215683260E+03  0.00000000000E+00 0.  1.
          2   -1    0    0  501    0  0.00000000000E+00 -0.00000000000E+00 -0.53151148850E+02  0.53151148850E+02  0.00000000000E+00 0. -1.
         23    2    1    2    0    0 -0.56610052248E+02 -0.54201087803E+02  0.10551573788E+03  0.15981172833E+03  0.90905234376E+02 0.  0.
          5    1    1    2  502    0  0.59470090414E+02  0.73179328498E+02  0.63155813620E+02  0.11356951601E+03  0.41800000000E+01 0. -1.
         -5    1    1    2    0  502 -0.28600381654E+01 -0.18978240695E+02  0.12033413225E+03  0.12192673711E+03  0.41800000000E+01 0. -1.
        -11    1    3    3    0    0 -0.22841675447E+02  0.30278260644E+01  0.88177293355E+02  0.91138054244E+02  0.00000000000E+00 0.  1.
         11    1    3    3    0    0 -0.33768376801E+02 -0.57228913867E+02  0.17338444530E+02  0.68673674089E+02  0.00000000000E+00 0. -1.
</event>
<event>
 7    1  0.4274778E-006  0.7046264E+02  0.7561462E-02  0.1358527E+00
         -2   -1    0    0    0  501 -0.00000000000E+00  0.00000000000E+00  0.27752020087E+03  0.27752020087E+03  0.00000000000E+00 0. -1.
          2   -1    0    0  501    0  0.00000000000E+00 -0.00000000000E+00 -0.76801735073E+02  0.76801735073E+02  0.00000000000E+00 0.  1.
         23    2    1    2    0    0 -0.27959741275E+02  0.27903077787E+02 -0.17368261079E+02  0.99824281314E+02  0.90016119472E+02 0.  0.
          5    1    1    2  502    0  0.44563801403E+02  0.16693689426E+02  0.19623567557E+03  0.20196664187E+03  0.41800000000E+01 0.  1.
         -5    1    1    2    0  502 -0.16604060127E+02 -0.44596767213E+02  0.21851051312E+02  0.52531012764E+02  0.41800000000E+01 0.  1.
        -11    1    3    3    0    0 -0.10236820781E+02  0.25525550727E+02  0.34985520856E+02  0.44500931554E+02  0.00000000000E+00 0. -1.
         11    1    3    3    0    0 -0.17722920494E+02  0.23775270595E+01 -0.52353781935E+02  0.55323349760E+02  0.00000000000E+00 0.  1.
</event>
<event>
 7    1  0.4274778E-006  0.7884348E+02  0.7561462E-02  0.1332366E+00
         -1   -1    0    0    0  501 -0.00000000000E+00  0.00000000000E+00  0.42085003924E+03  0.42085003924E+03  0.00000000000E+00 0.  1.
          1   -1    0    0  501    0  0.00000000000E+00 -0.00000000000E+00 -0.29205349602E+02  0.29205349602E+02  0.00000000000E+00 0. -1.
         23    2    1    2    0    0  0.22553099195E+02  0.99320441362E+01  0.16292018857E+03  0.18819789992E+03  0.90929499651E+02 0.  0.
          5    1    1    2  502    0  0.15690815491E+02 -0.34127136207E+02  0.10887771808E+02  0.39330383820E+02  0.41800000000E+01 0.  1.
         -5    1    1    2    0  502 -0.38243914685E+02  0.24195092071E+02  0.21783672925E+03  0.22252710510E+03  0.41800000000E+01 0.  1.
        -11    1    3    3    0    0  0.16800515068E+02  0.40235146022E+02  0.14731214498E+03  0.15362939934E+03  0.00000000000E+00 0.  1.
         11    1    3    3    0    0  0.57525841270E+01 -0.30303101885E+02  0.15608043593E+02  0.34568500587E+02  0.00000000000E+00 0. -1.
</event>
<event>
 7    1  0.4274778E-006  0.1528262E+03  0.7561462E-02  0.1197043E+00
         -3   -1    0    0    0  501 -0.00000000000E+00  0.00000000000E+00  0.14153898593E+03  0.14153898593E+03  0.00000000000E+00 0.  1.
          3   -1    0    0  501    0  0.00000000000E+00 -0.00000000000E+00 -0.44933651886E+03  0.44933651886E+03  0.00000000000E+00 0. -1.
         23    2    1    2    0    0 -0.12519775505E+03 -0.59951255882E+02 -0.35665801141E+03  0.39472221755E+03  0.96602593014E+02 0.  0.
          5    1    1    2  502    0  0.13580141196E+02  0.12491623883E+02  0.70398493636E+02  0.72896373081E+02  0.41800000000E+01 0. -1.
         -5    1    1    2    0  502  0.11161761385E+03  0.47459631999E+02 -0.21538015159E+02  0.12325691416E+03  0.41800000000E+01 0.  1.
        -11    1    3    3    0    0 -0.12778152078E+02 -0.51023433941E+02 -0.15488114815E+03  0.16356907420E+03  0.00000000000E+00 0.  1.
         11    1    3    3    0    0 -0.11241960297E+03 -0.89278219409E+01 -0.20177686326E+03  0.23115314335E+03  0.00000000000E+00 0. -1.
</event>
<event>
 7    1  0.4274778E-006  0.9455391E+02  0.7561462E-02  0.1292184E+00
         -1   -1    0    0    0  501 -0.00000000000E+00  0.00000000000E+00  0.14852893033E+03  0.14852893033E+03  0.00000000000E+00 0.  1.
          1   -1    0    0  501    0  0.00000000000E+00 -0.00000000000E+00 -0.95997843409E+02  0.95997843409E+02  0.00000000000E+00 0. -1.
         23    2    1    2    0    0 -0.22700131853E+02  0.39450244716E+02 -0.60647817187E+01  0.99146849792E+02  0.87873195299E+02 0.  0.
          5    1    1    2  502    0 -0.28551298305E+02 -0.40232990534E+02 -0.18373760571E+02  0.52810393293E+02  0.41800000000E+01 0. -1.
         -5    1    1    2    0  502  0.51251430158E+02  0.78274581773E+00  0.76969629207E+02  0.92569530649E+02  0.41800000000E+01 0. -1.
        -11    1    3    3    0    0  0.26589219240E+02  0.25743208504E+02 -0.24926354435E+02  0.44620875264E+02  0.00000000000E+00 0. -1.
         11    1    3    3    0    0 -0.49289351093E+02  0.13707036213E+02  0.18861572717E+02  0.54525974528E+02  0.00000000000E+00 0.  1.
</event>
<event>
 7    1  0.4274778E-006  0.1318106E+03  0.7561462E-02  0.1224794E+00
          3   -1    0    0  501    0  0.00000000000E+00  0.00000000000E+00  0.25301810970E+03  0.25301810970E+03  0.00000000000E+00 0. -1.
         -3   -1    0    0    0  501 -0.00000000000E+00 -0.00000000000E+00 -0.12214079371E+03  0.12214079371E+03  0.00000000000E+00 0.  1.
         23    2    1    2    0    0 -0.12804077395E+03 -0.15089671216E+02  0.11360795215E+03  0.19469128374E+03  0.91519348787E+02 0.  0.
          5    1    1    2  502    0  0.12357598906E+02  0.72766163311E+01 -0.45965828995E+02  0.48332072489E+02  0.41800000000E+01 0.  1.
         -5    1    1    2    0  502  0.11568317505E+03  0.78130548851E+01  0.63235192836E+02  0.13213554718E+03  0.41800000000E+01 0.  1.
        -11    1    3    3    0    0 -0.61140114657E+02 -0.22939529697E+02  0.10913903043E+03  0.12718358230E+03  0.00000000000E+00 0. -1.
         11    1    3    3    0    0 -0.66900659297E+02  0.78498584804E+01  0.44689217113E+01  0.67507701441E+02  0.00000000000E+00 0.  1.
</event>
<event>
 7    1  0.4274778E-006  0.1405285E+03  0.7561462E-02  0.1212620E+00
          1   -1    0    0  501    0  0.00000000000E+00  0.00000000000E+00  0.66206108790E+02  0.66206108790E+02  0.00000000000E+00 0. -1.
         -1   -1    0    0    0  501 -0.00000000000E+00 -0.00000000000E+00 -0.40517024137E+03  0.40517024137E+03  0.00000000000E+00 0.  1.
         23    2    1    2    0    0 -0.44861691804E+02  0.10295035997E+03 -0.95203563744E+02  0.17526831790E+03  0.95099509460E+02 0.  0.
          5    1    1    2  502    0  0.78229529238E+02 -0.82547073240E+02 -0.22582019168E+03  0.25287568075E+03  0.41800000000E+01 0.  1.
         -5    1    1    2    0  502 -0.33367837434E+02 -0.20403286734E+02 -0.17940377158E+02  0.43232351511E+02  0.41800000000E+01 0.  1.
        -11    1    3    3    0    0 -0.16842168416E+02 -0.40402436236E+01 -0.54879657994E+02  0.57547884992E+02  0.00000000000E+00 0.  1.
         11    1    3    3    0    0 -0.28019523388E+02  0.10699060360E+03 -0.40323905750E+02  0.11772043291E+03  0.00000000000E+00 0. -1.
</event>
<event>
 7    1  0.4274778E-006  0.1404826E+03  0.7561462E-02  0.1212681E+00
         -2   -1    0    0    0  501 -0.00000000000E+00  0.00000000000E+00  0.35891292975E+02  0.35891292975E+02  0.00000000000E+00 0.  1.
          2   -1    0    0  501    0  0.00000000000E+00 -0.00000000000E+00 -0.61629405515E+03  0.61629405515E+03  0.00000000000E+00 0. -1.
         23    2    1    2    0    0 -0.70473568297E+02 -0.72286363094E+02 -0.26126388213E+03  0.29484850643E+03  0.92113970276E+02 0.  0.
          5    1    1    2  502    0  0.10324232829E+03  0.32024282934E+02 -0.20198433171E+03  0.22912807707E+03  0.41800000000E+01 0.  1.
         -5    1    1    2    0  502 -0.32768759991E+02  0.40262080160E+02 -0.11715454834E+03  0.12820876463E+03  0.41800000000E+01 0.  1.
        -11    1    3    3    0    0 -0.59015395075E+02 -0.13136037742E+02 -0.61685248339E+02  0.86373851402E+02  0.00000000000E+00 0.  1.
         11    1    3    3    0    0 -0.11458173222E+02 -0.59150325352E+02 -0.19957863379E+03  0.20847465502E+03  0.00000000000E+00 0. -1.
</event>
<event>
 7    1  0.4274778E-006  0.1004505E+03  0.7561462E-02  0.1279351E+00
          1   -1    0    0  501    0  0.00000000000E+00  0.00000000000E+00  0.35792060884E+03  0.35792060884E+03  0.00000000000E+00 0. -1.
         -1   -1    0    0    0  501 -0.00000000000E+00 -0.00000000000E+00 -0.33404814322E+02  0.33404814322E+02  0.00000000000E+00 0.  1.
         23    2    1    2    0    0 -0.10408290480E+01 -0.33019636180E+01  0.16401821631E+03  0.18780418471E+03  0.91413621656E+02 0.  0.
          5    1    1    2  502    0 -0.90080577001E+01  0.60513234942E+02  0.52085752724E+02  0.80457409500E+02  0.41800000000E+01 0. -1.
         -5    1    1    2    0  502  0.10048886748E+02 -0.57211271324E+02  0.10841182548E+03  0.12306382895E+03  0.41800000000E+01 0. -1.
        -11    1    3    3    0    0 -0.21495697596E+02 -0.36492953505E+02  0.12762923975E+03  0.13447313304E+03  0.00000000000E+00 0. -1.
         11    1    3    3    0    0  0.20454868548E+02  0.33190989887E+02  0.36388976556E+02  0.53331051665E+02  0.00000000000E+00 0.  1.
</event>
<event>
 7    1  0.4274778E-006  0.2108679E+03  0.7561462E-02  0.1140881E+00
          1   -1    0    0  501    0  0.00000000000E+00  0.00000000000E+00  0.31005580956E+03  0.31005580956E+03  0.00000000000E+00 0. -1.
         -1   -1    0    0    0  501 -0.00000000000E+00 -0.00000000000E+00 -0.16087387082E+03  0.16087387082E+03  0.00000000000E+00 0.  1.
         23    2    1    2    0    0  0.18340617484E+03  0.55572454143E+02  0.11478140350E+03  0.23950429956E+03  0.86379489994E+02 0.  0.
          5    1    1    2  502    0 -0.96142486978E+02  0.35410855643E+02  0.19946027942E+02  0.10446350047E+03  0.41800000000E+01 0.  1.
         -5    1    1    2    0  502 -0.87263687861E+02 -0.90983309786E+02  0.14454507298E+02  0.12696188034E+03  0.41800000000E+01 0.  1.
        -11    1    3    3    0    0  0.71542669837E+02  0.33672632563E+02  0.95354480302E+02  0.12387363200E+03  0.00000000000E+00 0. -1.
         11    1    3    3    0    0  0.11186350500E+03  0.21899821580E+02  0.19426923200E+02  0.11563066756E+03  0.00000000000E+00 0.  1.
</event>
<event>
 7    1  0.4274778E-006  0.1628232E+03  0.7561462E-02  0.1185546E+00
         -2   -1    0    0    0  501 -0.00000000000E+00  0.00000000000E+00  0.12458184502E+03  0.12458184502E+03  0.00000000000E+00 0.  1.
          2   -1    0    0  501    0  0.00000000000E+00 -0.00000000000E+00 -0.22730484958E+03  0.22730484958E+03  0.00000000000E+00 0. -1.
         23    2    1    2    0    0  0.11286237250E+03  0.46011809976E+02 -0.88087934113E+02  0.17662309258E+03  0.92634933533E+02 0.  0.
          5    1    1    2  502    0 -0.14008506368E+03 -0.42860498550E+02 -0.80783484902E+01  0.14677731267E+03  0.41800000000E+01 0. -1.
         -5    1    1    2    0  502  0.27222691174E+02 -0.31513114266E+01 -0.65567219499E+01  0.28486289354E+02  0.41800000000E+01 0. -1.
        -11    1    3    3    0    0  0.82837008113E+02 -0.14239535078E+02 -0.35687264623E+02  0.91314375257E+02  0.00000000000E+00 0. -1.
         11    1    3    3    0    0  0.30025364390E+02  0.60251345054E+02 -0.52400669490E+02  0.85308717319E+02  0.00000000000E+00 0.  1.
</event>
<event>
 7    1  0.4274778E-006  0.9706021E+02  0.7561462E-02  0.1286602E+00
          2   -1    0    0  501    0  0.00000000000E+00  0.00000000000E+00  0.27059906087E+02  0.27059906087E+02  0.00000000000E+00 0. -1.
         -2   -1    0    0    0  501 -0.00000000000E+00 -0.00000000000E+00 -0.45237780607E+03  0.45237780607E+03  0.00000000000E+00 0.  1.
         23    2    1    2    0    0  0.15378276079E+02  0.12389627242E+02 -0.17312089814E+03  0.19725115454E+03  0.92450951081E+02 0.  0.
          5    1    1    2  502    0 -0.58132787944E+02 -0.56570223324E+01 -0.55287847887E+02  0.80533480366E+02  0.41800000000E+01 0. -1.
         -5    1    1    2    0  502  0.42754511865E+02 -0.67326049092E+01 -0.19690915395E+03  0.20165307725E+03  0.41800000000E+01 0. -1.
        -11    1    3    3    0    0  0.38292212294E+02  0.40552109032E+02 -0.82067814571E+02  0.99226474581E+02  0.00000000000E+00 0. -1.
         11    1    3    3    0    0 -0.22913936214E+02 -0.28162481791E+02 -0.91053083566E+02  0.98024679955E+02  0.00000000000E+00 0.  1.
</event>
<event>
 7    1  0.4274778E-006  0.9833365E+02  0.7561462E-02  0.1283840E+00
          3   -1    0    0  501    0  0.00000000000E+00  0.00000000000E+00  0.63959916599E+02  0.63959916599E+02  0.00000000000E+00 0. -1.
         -3   -1    0    0    0  501 -0.00000000000E+00 -0.00000000000E+00 -0.34081965757E+03  0.34081965757E+03  0.00000000000E+00 0.  1.
         23    2    1    2    0    0  0.36691993303E+02 -0.58904133770E+02 -0.40863957288E+02  0.12881300550E+03  0.10053321855E+03 0.  0.
          5    1    1    2  502    0 -0.29210872185E+02  0.10952972796E+02  0.34060722311E+01  0.31659380836E+02  0.41800000000E+01 0. -1.
         -5    1    1    2    0  502 -0.74811211179E+01  0.47951160974E+02 -0.23940185591E+03  0.24430718783E+03  0.41800000000E+01 0. -1.
        -11    1    3    3    0    0 -0.15327950078E+02  0.17995617847E+02  0.65987102790E+01  0.24542438604E+02  0.00000000000E+00 0. -1.
         11    1    3    3    0    0  0.52019943381E+02 -0.76899751617E+02 -0.47462667567E+02  0.10427056690E+03  0.00000000000E+00 0.  1.
</event>
<event>
 7    1  0.4274778E-006  0.1261215E+03  0.7561462E-02  0.1233327E+00
         -1   -1    0    0    0  501 -0.00000000000E+00  0.00000000000E+00  0.40926876543E+03  0.40926876543E+03  0.00000000000E+00 0.  1.
          1   -1    0    0  501    0  0.00000000000E+00 -0.00000000000E+00 -0.55290551614E+02  0.55290551614E+02  0.00000000000E+00 0. -1.
         23    2    1    2    0    0  0.14897180431E+02 -0.88624769727E+02  0.88143949379E+02  0.15732727519E+03  0.94372876997E+02 0.  0.
          5    1    1    2  502    0  0.49421040726E+01 -0.24383934729E+02  0.11465258446E+03  0.11739543513E+03  0.41800000000E+01 0.  1.
         -5    1    1    2    0  502 -0.19839284504E+02  0.11300870446E+03  0.15118167998E+03  0.18983660673E+03  0.41800000000E+01 0.  1.
        -11    1    3    3    0    0 -0.22558876977E+02 -0.91524559575E+01  0.60515442469E+02  0.65228744873E+02  0.00000000000E+00 0.  1.
         11    1    3    3    0    0  0.37456057409E+02 -0.79472313770E+02  0.27628506910E+02  0.92098530317E+02  0.00000000000E+00 0. -1.
</event>
<event>
 7    1  0.4274778E-006  0.1647686E+03  0.7561462E-02  0.1183416E+00
         -2   -1    0    0    0  501 -0.00000000000E+00  0.00000000000E+00  0.60143774903E+02  0.60143774903E+02  0.00000000000E+00 0.  1.
          2   -1    0    0  501    0  0.00000000000E+00 -0.00000000000E+00 -0.89981614178E+03  0.89981614178E+03  0.00000000000E+00 0. -1.
         23    2    1    2    0    0  0.94615838254E+02  0.10400887750E+03 -0.71433031187E+03  0.73384841164E+03  0.92172085660E+02 0.  0.
          5    1    1    2  502    0  0.70735907849E+01  0.71404600103E+01  0.16095353236E+02  0.19430765593E+02  0.41800000000E+01 0. -1.
         -5    1    1    2    0  502 -0.10168942904E+03 -0.11114933751E+03 -0.14143740825E+03  0.20668073945E+03  0.41800000000E+01 0. -1.
        -11    1    3    3    0    0  0.11091210277E+03  0.10340497321E+03 -0.63432528244E+03  0.65219831874E+03  0.00000000000E+00 0.  1.
         11    1    3    3    0    0 -0.16296264517E+02  0.60390428578E+00 -0.80005029428E+02  0.81650092905E+02  0.00000000000E+00 0. -1.
</event>
<event>
 7    1  0.4274778E-006  0.1318089E+03  0.7561462E-02  0.1224796E+00
         -2   -1    0    0    0  501 -0.00000000000E+00  0.00000000000E+00  0.68715403545E+03  0.68715403545E+03  0.00000000000E+00 0.  1.
          2   -1    0    0  501    0  0.00000000000E+00 -0.00000000000E+00 -0.32951015549E+02  0.32951015549E+02  0.00000000000E+00 0. -1.
         23    2    1    2    0    0 -0.11802996142E+02 -0.89884314620E+02  0.37569523040E+03  0.39752920868E+03  0.93080958712E+02 0.  0.
          5    1    1    2  502    0 -0.16725629762E+02 -0.17931135721E+02  0.26721002275E+01  0.25017690517E+02  0.41800000000E+01 0. -1.
         -5    1    1    2    0  502  0.28528625904E+02  0.10781545034E+03  0.27583568928E+03  0.29755815181E+03  0.41800000000E+01 0.  1.
        -11    1    3    3    0    0 -0.50328004062E+02 -0.41104501109E+02  0.15085212671E+03  0.16425240375E+03  0.00000000000E+00 0.  1.
         11    1    3    3    0    0  0.38525007920E+02 -0.48779813512E+02  0.22484310369E+03  0.23327680493E+03  0.00000000000E+00 0. -1.
</event>
<event>
 7    1  0.4274778E-006  0.1217376E+03  0.7561462E-02  0.1240258E+00
         -2   -1    0    0    0  501 -0.00000000000E+00  0.00000000000E+00  0.57139739467E+03  0.57139739467E+03  0.00000000000E+00 0.  1.
          2   -1    0    0  501    0  0.00000000000E+00 -0.00000000000E+00 -0.27018498171E+02  0.27018498171E+02  0.00000000000E+00 0. -1.
         23    2    1    2    0    0 -0.45361623562E+02  0.38852794164E+02  0.22177200892E+03  0.24728755150E+03  0.91657474763E+02 0.  0.
          5    1    1    2  502    0 -0.27040179151E+02  0.25289295810E+02  0.13453373792E+03  0.13959770346E+03  0.41800000000E+01 0. -1.
         -5    1    1    2    0  502  0.72401802712E+02 -0.64142089975E+02  0.18807314966E+03  0.21153063788E+03  0.41800000000E+01 0. -1.
        -11    1    3    3    0    0 -0.38858220498E+02  0.68658455001E+02  0.16037139307E+03  0.17872584720E+03  0.00000000000E+00 0.  1.
         11    1    3    3    0    0 -0.65034030635E+01 -0.29805660836E+02  0.61400615854E+02  0.68561704300E+02  0.00000000000E+00 0. -1.
</event>
<event>
 7    1  0.4274778E-006  0.2357897E+03  0.7561462E-02  0.1122630E+00
          2   -1    0    0  501    0  0.00000000000E+00  0.00000000000E+00  0.10880091451E+04  0.10880091451E+04  0.00000000000E+00 0.  1.
         -2   -1    0    0    0  501 -0.00000000000E+00 -0.00000000000E+00 -0.60801852345E+02  0.60801852345E+02  0.00000000000E+00 0. -1.
         23    2    1    2    0    0  0.22658444495E+03  0.25986935515E+02  0.60963154146E+03  0.65684294074E+03  0.88182770142E+02 0.  0.
          5    1    1    2  502    0 -0.22088035264E+03 -0.82984360279E+01  0.29890318178E+03  0.37177624817E+03  0.41800000000E+01 0. -1.
         -5    1    1    2    0  502 -0.57040923056E+01 -0.17688499487E+02  0.11867256955E+03  0.12019180857E+03  0.41800000000E+01 0. -1.
        -11    1    3    3    0    0  0.12763883452E+03  0.34278130355E+02  0.44857403738E+03  0.46763803236E+03  0.00000000000E+00 0.  1.
         11    1    3    3    0    0  0.98945610434E+02 -0.82911948397E+01  0.16105750408E+03  0.18920490838E+03  0.00000000000E+00 0. -1.
</event>
<event>
 7    1  0.4274778E-006  0.1348880E+03  0.7561462E-02  0.1220378E+00
         -1   -1    0    0    0  501 -0.00000000000E+00  0.00000000000E+00  0.45470007087E+02  0.45470007087E+02  0.00000000000E+00 0.  1.
          1   -1    0    0  501    0  0.00000000000E+00 -0.00000000000E+00 -0.50693267909E+03  0.50693267909E+03  0.00000000000E+00 0. -1.
         23    2    1    2    0    0 -0.74061684980E+02 -0.54163104332E+02 -0.30972648365E+03  0.33540064349E+03  0.90245896980E+02 0.  0.
          5    1    1    2  502    0 -0.34458459809E+02  0.22744461049E+02 -0.32693593223E+02  0.52830288649E+02  0.41800000000E+01 0.  1.
         -5    1    1    2    0  502  0.10852014479E+03  0.31418643283E+02 -0.11904259513E+03  0.16417175404E+03  0.41800000000E+01 0.  1.
        -11    1    3    3    0    0 -0.80613101494E+02 -0.23644769602E+02 -0.14361144137E+03  0.16637846422E+03  0.00000000000E+00 0.  1.
         11    1    3    3    0    0  0.65514165143E+01 -0.30518334730E+02 -0.16611504228E+03  0.16902217927E+03  0.00000000000E+00 0. -1.
</event>
<event>
 7    1  0.4274778E-006  0.1531833E+03  0.7561462E-02  0.1196615E+00
         -1   -1    0    0    0  501 -0.00000000000E+00  0.00000000000E+00  0.14794068355E+03  0.14794068355E+03  0.00000000000E+00 0.  1.
          1   -1    0    0  501    0  0.00000000000E+00 -0.00000000000E+00 -0.28731176845E+03  0.28731176845E+03  0.00000000000E+00 0. -1.
         23    2    1    2    0    0 -0.34539920780E+02 -0.10711036170E+03 -0.20768011288E+03  0.25365026294E+03  0.92421809614E+02 0.  0.
          5    1    1    2  502    0  0.77706890078E+02  0.59695059130E+02  0.64181812899E+02  0.11721193778E+03  0.41800000000E+01 0.  1.
         -5    1    1    2    0  502 -0.43166969297E+02  0.47415302574E+02  0.41272150798E+01  0.64390251287E+02  0.41800000000E+01 0.  1.
        -11    1    3    3    0    0  0.21851898266E+02  0.12364151590E+01 -0.46722152200E+02  0.51594512173E+02  0.00000000000E+00 0.  1.
         11    1    3    3    0    0 -0.56391819046E+02 -0.10834677686E+03 -0.16095796068E+03  0.20205575077E+03  0.00000000000E+00 0. -1.
</event>
<event>
 7    1  0.4274778E-006  0.1166360E+03  0.7561462E-02  0.1248752E+00
         -1   -1    0    0    0  501 -0.00000000000E+00  0.00000000000E+00  0.52121274536E+03  0.52121274536E+03  0.00000000000E+00 0.  1.
          1   -1    0    0  501    0  0.00000000000E+00 -0.00000000000E+00 -0.41311201722E+02  0.41311201722E+02  0.00000000000E+00 0. -1.
         23    2    1    2    0    0 -0.65093220539E+01 -0.93671981426E+02  0.18592292898E+03  0.22953688787E+03  0.96452247210E+02 0.  0.
          5    1    1    2  502    0  0.43004203336E+02  0.81861279017E+01  0.18278317054E+03  0.18799876071E+03  0.41800000000E+01 0.  1.
         -5    1    1    2    0  502 -0.36494881282E+02  0.85485853524E+02  0.11119544411E+03  0.14498829851E+03  0.41800000000E+01 0.  1.
        -11    1    3    3    0    0  0.24289288560E+01 -0.79236666944E+02  0.19484684448E+03  0.21035598848E+03  0.00000000000E+00 0.  1.
         11    1    3    3    0    0 -0.89382509099E+01 -0.14435314482E+02 -0.89239154991E+01  0.19180899388E+02  0.00000000000E+00 0. -1.
</event>
<event>
 7    1  0.4274778E-006  0.1498315E+03  0.7561462E-02  0.1200680E+00
         -2   -1    0    0    0  501 -0.00000000000E+00  0.00000000000E+00  0.11074226388E+03  0.11074226388E+03  0.00000000000E+00 0.  1.
          2   -1    0    0  501    0  0.00000000000E+00 -0.00000000000E+00 -0.30819418394E+03  0.30819418394E+03  0.00000000000E+00 0. -1.
         23    2    1    2    0    0 -0.88777081507E+02  0.99836661676E+02 -0.16574323015E+03  0.23313869680E+03  0.95047905762E+02 0.  0.
          5    1    1    2  502    0  0.15288619263E+02 -0.35691621334E+02  0.46483705576E+02  0.60711127452E+02  0.41800000000E+01 0. -1.
         -5    1    1    2    0  502  0.73488462244E+02 -0.64145040342E+02 -0.78192395485E+02  0.12508662357E+03  0.41800000000E+01 0. -1.
        -11    1    3    3    0    0 -0.10340640405E+03  0.57796040778E+02 -0.10863961992E+03  0.16073529091E+03  0.00000000000E+00 0.  1.
         11    1    3    3    0    0  0.14629322538E+02  0.42040620899E+02 -0.57103610232E+02  0.72403405893E+02  0.00000000000E+00 0. -1.
</event>
<event>
 7    1  0.4274778E-006  0.1125350E+03  0.7561462E-02  0.1255946E+00
         -3   -1    0    0    0  501 -0.00000000000E+00  0.00000000000E+00  0.13473016093E+04  0.13473016093E+04  0.00000000000E+00 0.  1.
          3   -1    0    0  501    0  0.00000000000E+00 -0.00000000000E+00 -0.13351772815E+02  0.13351772815E+02  0.00000000000E+00 0. -1.
         23    2    1    2    0    0  0.33053308843E+02 -0.60306545714E+02  0.33819079530E+03  0.35471469030E+03  0.81976196588E+02 0.  0.
          5    1    1    2  502    0 -0.78315524401E+01 -0.28464553134E+02  0.77391572675E+02  0.82936674155E+02  0.41800000000E+01 0.  1.
         -5    1    1    2    0  502 -0.25221756403E+02  0.88771098849E+02  0.91836746854E+03  0.92300201769E+03  0.41800000000E+01 0.  1.
        -11    1    3    3    0    0 -0.23677517975E+02 -0.31037684424E+02  0.17887923381E+03  0.18308943989E+03  0.00000000000E+00 0.  1.
         11    1    3    3    0    0  0.56730826818E+02 -0.29268861290E+02  0.15931156149E+03  0.17162525040E+03  0.00000000000E+00 0. -1.
</event>
<event>
 7    1  0.4274778E-006  0.1784984E+03  0.7561462E-02  0.1169264E+00
         -1   -1    0    0    0  501 -0.00000000000E+00  0.00000000000E+00  0.52136202871E+02  0.52136202871E+02  0.00000000000E+00 0.  1.
          1   -1    0    0  501    0  0.00000000000E+00 -0.00000000000E+00 -0.71991662431E+03  0.71991662431E+03  0.00000000000E+00 0. -1.
         23    2    1    2    0    0  0.21054319062E+02 -0.14414151545E+03 -0.45025598287E+03  0.48193266789E+03  0.91151442376E+02 0.  0.
          5    1    1    2  502    0 -0.65813207671E+02  0.52266186776E+02 -0.13322919261E+03  0.15757735480E+03  0.41800000000E+01 0. -1.
         -5    1    1    2    0  502  0.44758888609E+02  0.91875328673E+02 -0.84295245966E+02  0.13254280449E+03  0.41800000000E+01 0. -1.
        -11    1    3    3    0    0 -0.31600525905E+02 -0.24949945058E+02 -0.13296396667E+03  0.13892627336E+03  0.00000000000E+00 0. -1.
         11    1    3    3    0    0  0.52654844967E+02 -0.11919157039E+03 -0.31729201619E+03  0.34300639453E+03  0.00000000000E+00 0.  1.
</event>
<event>
 7    1  0.4274778E-006  0.1235616E+03  0.7561462E-02  0.1237335E+00
         -1   -1    0    0    0  501 -0.00000000000E+00  0.00000000000E+00  0.29112193132E+03  0.29112193132E+03  0.00000000000E+00 0.  1.
          1   -1    0    0  501    0  0.00000000000E+00 -0.00000000000E+00 -0.63298635189E+02  0.63298635189E+02  0.00000000000E+00 0. -1.
         23    2    1    2    0    0  0.62548172329E+02 -0.53917315197E+02  0.11536286950E+03  0.16703409061E+03  0.88161471330E+02 0.  0.
          5    1    1    2  502    0 -0.17116322158E+02 -0.39173763321E+02  0.16169161360E+02  0.45896256885E+02  0.41800000000E+01 0. -1.
         -5    1    1    2    0  502 -0.45431850171E+02  0.93091078517E+02  0.96291265276E+02  0.14149021902E+03  0.41800000000E+01 0. -1.
        -11    1    3    3    0    0 -0.10739930619E+02 -0.11863876524E+02 -0.76970657872E+01  0.17757885505E+02  0.00000000000E+00 0. -1.
         11    1    3    3    0    0  0.73288102948E+02 -0.42053438672E+02  0.12305993528E+03  0.14927620510E+03  0.00000000000E+00 0.  1.
</event>
<event>
 7    1  0.4274778E-006  0.8331313E+02  0.7561462E-02  0.1319904E+00
          2   -1    0    0  501    0  0.00000000000E+00  0.00000000000E+00  0.58050770872E+02  0.58050770872E+02  0.00000000000E+00 0.  1.
         -2   -1    0    0    0  501 -0.00000000000E+00 -0.00000000000E+00 -0.23594200685E+03  0.23594200685E+03  0.00000000000E+00 0. -1.
         23    2    1    2    0    0 -0.87216979929E+01  0.42606804238E+02 -0.57967253350E+02  0.11532613508E+03  0.89713472728E+02 0.  0.
          5    1    1    2  502    0  0.61331809080E+02 -0.31626588781E+02 -0.33530347891E+02  0.76834813415E+02  0.41800000000E+01 0.  1.
         -5    1    1    2    0  502 -0.52610111087E+02 -0.10980215457E+02 -0.86393634733E+02  0.10183182922E+03  0.41800000000E+01 0.  1.
        -11    1    3    3    0    0 -0.64005895297E+01  0.24082444167E+02 -0.81536225502E+02  0.85258945176E+02  0.00000000000E+00 0. -1.
         11    1    3    3    0    0 -0.23211084631E+01  0.18524360071E+02  0.23568972152E+02  0.30067189906E+02  0.00000000000E+00 0.  1.
</event>
<event>
 7    1  0.4274778E-006  0.1530151E+03  0.7561462E-02  0.1196816E+00
          2   -1    0    0  501    0  0.00000000000E+00  0.00000000000E+00  0.19947827278E+03  0.19947827278E+03  0.00000000000E+00 0. -1.
         -2   -1    0    0    0  501 -0.00000000000E+00 -0.00000000000E+00 -0.15636856549E+03  0.15636856549E+03  0.00000000000E+00 0.  1.
         23    2    1    2    0    0 -0.96608928711E+02 -0.79636884547E+02  0.93211768102E+02  0.18057712914E+03  0.90798388586E+02 0.  0.
          5    1    1    2  502    0 -0.19301581230E+02  0.39469053665E+02 -0.22159728816E+02  0.49385050535E+02  0.41800000000E+01 0. -1.
         -5    1    1    2    0  502  0.11591050994E+03  0.40167830883E+02 -0.27942331994E+02  0.12588465860E+03  0.41800000000E+01 0.  1.
        -11    1    3    3    0    0 -0.18333209222E+02  0.93973317626E+01 -0.10447265165E+02  0.23098955692E+02  0.00000000000E+00 0.  1.
         11    1    3    3    0    0 -0.78275719489E+02 -0.89034216310E+02  0.10365903327E+03  0.15747817345E+03  0.00000000000E+00 0. -1.
</event>
<event>
 7    1  0.4274778E-006  0.1346543E+03  0.7561462E-02  0.1220708E+00
         -4   -1    0    0    0  501 -0.00000000000E+00  0.00000000000E+00  0.13785579157E+03  0.13785579157E+03  0.00000000000E+00 0.  1.
          4   -1    0    0  501    0  0.00000000000E+00 -0.00000000000E+00 -0.16500946880E+03  0.16500946880E+03  0.00000000000E+00 0. -1.
         23    2    1    2    0    0 -0.52052390240E+02  0.78134307409E+02 -0.59398231074E+02  0.14317560125E+03  0.90314348886E+02 0.  0.
          5    1    1    2  502    0  0.78633572969E+02 -0.29434497354E+02  0.54036530629E+02  0.99935216389E+02  0.41800000000E+01 0. -1.
         -5    1    1    2    0  502 -0.26581182729E+02 -0.48699810055E+02 -0.21791976784E+02  0.59754442738E+02  0.41800000000E+01 0. -1.
        -11    1    3    3    0    0 -0.43675640630E+02 -0.68481741716E+01 -0.27235287166E+02  0.51925137852E+02  0.00000000000E+00 0.  1.
         11    1    3    3    0    0 -0.83767496099E+01  0.84982481580E+02 -0.32162943908E+02  0.91250463398E+02  0.00000000000E+00 0. -1.
</event>
<event>
 7    1  0.4274778E-006  0.8545628E+02  0.7561462E-02  0.1314244E+00
         -1   -1    0    0    0  501 -0.00000000000E+00  0.00000000000E+00  0.42571944401E+02  0.42571944401E+02  0.00000000000E+00 0.  1.
          1   -1    0    0  501    0  0.00000000000E+00 -0.00000000000E+00 -0.33899006432E+03  0.33899006432E+03  0.00000000000E+00 0. -1.
         23    2    1    2    0    0 -0.37867363243E+02 -0.37718866181E+02 -0.12932921222E+03  0.16610307779E+03  0.89484843711E+02 0.  0.
          5    1    1    2  502    0  0.33398277740E+02 -0.10263580494E+02  0.60366474143E+01  0.35702934789E+02  0.41800000000E+01 0. -1.
         -5    1    1    2    0  502  0.44690855035E+01  0.47982446675E+02 -0.17312555511E+03  0.17975599613E+03  0.41800000000E+01 0. -1.
        -11    1    3    3    0    0  0.14674092174E+02 -0.31110022111E+02 -0.99602158365E+02  0.10537434416E+03  0.00000000000E+00 0. -1.
         11    1    3    3    0    0 -0.52541455418E+02 -0.66088440698E+01 -0.29727053854E+02  0.60728733629E+02  0.00000000000E+00 0.  1.
</event>
<event>
 7    1  0.4274778E-006  0.1175726E+03  0.7561462E-02  0.1247156E+00
          2   -1    0    0  501    0  0.00000000000E+00  0.00000000000E+00  0.23629926608E+03  0.23629926608E+03  0.00000000000E+00 0. -1.
         -2   -1    0    0    0  501 -0.00000000000E+00 -0.00000000000E+00 -0.64446427347E+02  0.64446427347E+02  0.00000000000E+00 0.  1.
         23    2    1    2    0    0  0.17540370327E+02  0.48102199015E+02  0.11125759890E+03  0.15262913592E+03  0.91081906416E+02 0.  0.
          5    1    1    2  502    0 -0.23554906383E+01 -0.88727687035E+02  0.26302081244E+02  0.92668347673E+02  0.41800000000E+01 0.  1.
         -5    1    1    2    0  502 -0.15184879689E+02  0.40625488020E+02  0.34293158585E+02  0.55448209834E+02  0.41800000000E+01 0.  1.
        -11    1    3    3    0    0  0.52263465136E+02  0.42879522888E+02  0.59339100160E+02  0.89951387309E+02  0.00000000000E+00 0.  1.
         11    1    3    3    0    0 -0.34723094809E+02  0.52226761265E+01  0.51918498743E+02  0.62677748609E+02  0.00000000000E+00 0. -1.
</event>
<event>
 7    1  0.4274778E-006  0.1678333E+03  0.7561462E-02  0.1180126E+00
          2   -1    0    0  501    0  0.00000000000E+00  0.00000000000E+00  0.10345831042E+04  0.10345831042E+04  0.00000000000E+00 0.  1.
         -2   -1    0    0    0  501 -0.00000000000E+00 -0.00000000000E+00 -0.32629216397E+02  0.32629216397E+02  0.00000000000E+00 0. -1.
         23    2    1    2    0    0  0.11459338724E+03  0.91313218408E+02  0.41384948008E+03  0.44835482610E+03  0.90999503675E+02 0.  0.
          5    1    1    2  502    0 -0.83726672288E+01 -0.55922196168E+02  0.77037933681E+02  0.95654112335E+02  0.41800000000E+01 0.  1.
         -5    1    1    2    0  502 -0.10622072002E+03 -0.35391022240E+02  0.51106647406E+03  0.52320338218E+03  0.41800000000E+01 0.  1.
        -11    1    3    3    0    0 -0.34613371288E+01  0.36681651314E+02  0.14615755727E+03  0.15073007645E+03  0.00000000000E+00 0.  1.
         11    1    3    3    0    0  0.11805472437E+03  0.54631567094E+02  0.26769192281E+03  0.29762474966E+03  0.00000000000E+00 0. -1.
</event>
<event>
 7    1  0.4274778E-006  0.1982321E+03  0.7561462E-02  0.1151239E+00
          1   -1    0    0  501    0  0.00000000000E+00  0.00000000000E+00  0.13986493601E+03  0.13986493601E+03  0.00000000000E+00 0. -1.
         -1   -1    0    0    0  501 -0.00000000000E+00 -0.00000000000E+00 -0.29097249933E+03  0.29097249933E+03  0.00000000000E+00 0.  1.
         23    2    1    2    0    0  0.36058011939E+01  0.12643003989E+03 -0.35658654625E+02  0.16025998693E+03  0.91728768518E+02 0.  0.
          5    1    1    2  502    0  0.95149479783E+02 -0.22385285522E+02 -0.25136268130E+02  0.10101400342E+03  0.41800000000E+01 0. -1.
         -5    1    1    2    0  502 -0.98755280977E+02 -0.10404475436E+03 -0.90312640565E+02  0.16956344499E+03  0.41800000000E+01 0.  1.
        -11    1    3    3    0    0 -0.20671850215E+01  0.14020454286E+03 -0.26293254829E+02  0.14266366862E+03  0.00000000000E+00 0. -1.
         11    1    3    3    0    0  0.56729862154E+01 -0.13774502978E+02 -0.93653997958E+01  0.17596318315E+02  0.00000000000E+00 0.  1.
</event>
<event>
 7    1  0.4274778E-006  0.1074814E+03  0.7561462E-02  0.1265306E+00
          3   -1    0    0  501    0  0.00000000000E+00  0.00000000000E+00  0.68811661465E+02  0.68811661465E+02  0.00000000000E+00 0. -1.
         -3   -1    0    0    0  501 -0.00000000000E+00 -0.00000000000E+00 -0.27743040932E+03  0.27743040932E+03  0.00000000000E+00 0.  1.
         23    2    1    2    0    0  0.65750133366E+02 -0.55438113049E+02 -0.93054659318E+02  0.15545847363E+03  0.90064993119E+02 0.  0.
          5    1    1    2  502    0 -0.60867332325E+02  0.12174212339E+02 -0.13049511040E+03  0.14456655847E+03  0.41800000000E+01 0. -1.
         -5    1    1    2    0  502 -0.48828010406E+01  0.43263900711E+02  0.14931021866E+02  0.46217038683E+02  0.41800000000E+01 0. -1.
        -11    1    3    3    0    0  0.74283866799E+02 -0.26546136978E+02 -0.27894802084E+02  0.83671442191E+02  0.00000000000E+00 0. -1.
         11    1    3    3    0    0 -0.85337334332E+01 -0.28891976071E+02 -0.65159857233E+02  0.71787031435E+02  0.00000000000E+00 0.  1.
</event>
<event>
 7    1  0.4274778E-006  0.8010732E+02  0.7561462E-02  0.1328747E+00
         -1   -1    0    0    0  501 -0.00000000000E+00  0.00000000000E+00  0.16690567984E+03  0.16690567984E+03  0.00000000000E+00 0.  1.
          1   -1    0    0  501    0  0.00000000000E+00 -0.00000000000E+00 -0.10233790940E+03  0.10233790940E+03  0.00000000000E+00 0. -1.
         23    2    1    2    0    0  0.18135614120E+02 -0.70245507358E+02  0.33525192947E+02  0.12134596698E+03  0.91310313418E+02 0.  0.
          5    1    1    2  502    0 -0.97375326494E+01  0.37485696006E+01  0.69572145990E+02  0.70474301798E+02  0.41800000000E+01 0. -1.
         -5    1    1    2    0  502 -0.83980814709E+01  0.66496937757E+02 -0.38529568497E+02  0.77423320466E+02  0.41800000000E+01 0. -1.
        -11    1    3    3    0    0  0.28055235183E+02 -0.33190582006E+02  0.60471153232E+02  0.74467921472E+02  0.00000000000E+00 0.  1.
         11    1    3    3    0    0 -0.99196210622E+01 -0.37054925352E+02 -0.26945960286E+02  0.46878045507E+02  0.00000000000E+00 0. -1.
</event>
<event>
 7    1  0.4274778E-006  0.1342403E+03  0.7561462E-02  0.1221296E+00
         -2   -1    0    0    0  501 -0.00000000000E+00  0.00000000000E+00  0.10975890363E+03  0.10975890363E+03  0.00000000000E+00 0.  1.
          2   -1    0    0  501    0  0.00000000000E+00 -0.00000000000E+00 -0.20222066925E+03  0.20222066925E+03  0.00000000000E+00 0. -1.
         23    2    1    2    0    0  0.40373224085E+02 -0.91188820060E+02 -0.60166004727E+02  0.14877328511E+03  0.92564270167E+02 0.  0.
          5    1    1    2  502    0 -0.51176512451E+02 -0.13791476305E+02 -0.20297194276E+02  0.56909478480E+02  0.41800000000E+01 0. -1.
         -5    1    1    2    0  502  0.10803288367E+02  0.10498029636E+03 -0.11998566611E+02  0.10629680929E+03  0.41800000000E+01 0. -1.
        -11    1    3    3    0    0  0.48300761233E+02 -0.57535190223E+02  0.46995520015E+01  0.75268502301E+02  0.00000000000E+00 0.  1.
         11    1    3    3    0    0 -0.79275371480E+01 -0.33653629837E+02 -0.64865556729E+02  0.73504782812E+02  0.00000000000E+00 0. -1.
</event>
<event>
 7    1  0.4274778E-006  0.8756382E+02  0.7561462E-02  0.1308861E+00
          2   -1    0    0  501    0  0.00000000000E+00  0.00000000000E+00  0.47398899474E+03  0.47398899474E+03  0.00000000000E+00 0. -1.
         -2   -1    0    0    0  501 -0.00000000000E+00 -0.00000000000E+00 -0.27943768602E+02  0.27943768602E+02  0.00000000000E+00 0.  1.
         23    2    1    2    0    0  0.40826276393E+02  0.28281240470E+01  0.20253305448E+03  0.22512566473E+03  0.89370820927E+02 0.  0.
          5    1    1    2  502    0 -0.11538097119E+01 -0.58010952396E+02  0.73985195221E+02  0.94116329012E+02  0.41800000000E+01 0. -1.
         -5    1    1    2    0  502 -0.39672466681E+02  0.55182828349E+02  0.16952697643E+03  0.18269076959E+03  0.41800000000E+01 0. -1.
        -11    1    3    3    0    0  0.89305360534E+01 -0.10940109393E+02 -0.47896293466E+01  0.14912445038E+02  0.00000000000E+00 0.  1.
         11    1    3    3    0    0  0.31895740340E+02  0.13768233440E+02  0.20732268383E+03  0.21021321969E+03  0.00000000000E+00 0. -1.
</event>
<event>
 7    1  0.4274778E-006  0.1227534E+03  0.7561462E-02  0.1238623E+00
         -4   -1    0    0    0  501 -0.00000000000E+00  0.00000000000E+00  0.59527317254E+02  0.59527317254E+02  0.00000000000E+00 0.  1.
          4   -1    0    0  501    0  0.00000000000E+00 -0.00000000000E+00 -0.27115797592E+03  0.27115797592E+03  0.00000000000E+00 0. -1.
         23    2    1    2    0    0 -0.71207202464E+02 -0.10908754644E+02 -0.10439924881E+03  0.15086456766E+03  0.81678932489E+02 0.  0.
          5    1    1    2  502    0  0.33574611037E+02 -0.54975229399E+02 -0.69931492069E+02  0.95170459370E+02  0.41800000000E+01 0. -1.
         -5    1    1    2    0  502  0.37632591427E+02  0.65883984042E+02 -0.37299917783E+02  0.84650266139E+02  0.41800000000E+01 0. -1.
        -11    1    3    3    0    0 -0.48619715913E+02 -0.43548951792E+02 -0.83565519927E+02  0.10603576801E+03  0.00000000000E+00 0. -1.
         11    1    3    3    0    0 -0.22587486551E+02  0.32640197148E+02 -0.20833728883E+02  0.44828799647E+02  0.00000000000E+00 0.  1.
</event>
<event>
 7    1  0.4274778E-006  0.8378992E+02  0.7561462E-02  0.1318628E+00
         -1   -1    0    0    0  501 -0.00000000000E+00  0.00000000000E+00  0.17628695725E+03  0.17628695725E+03  0.00000000000E+00 0.  1.
          1   -1    0    0  501    0  0.00000000000E+00 -0.00000000000E+00 -0.10245836728E+03  0.10245836728E+03  0.00000000000E+00 0. -1.
         23    2    1    2    0    0 -0.41420455574E+02 -0.61827035537E+02  0.10019663323E+02  0.11982006815E+03  0.93371401483E+02 0.  0.
          5    1    1    2  502    0 -0.44396817287E+01  0.10323506649E+02  0.85635568920E+02  0.86470854209E+02  0.41800000000E+01 0. -1.
         -5    1    1    2    0  502  0.45860137303E+02  0.51503528889E+02 -0.21826642271E+02  0.72454402173E+02  0.41800000000E+01 0. -1.
        -11    1    3    3    0    0 -0.45703480168E+02 -0.30645171892E+02 -0.34759614642E+02  0.65085831559E+02  0.00000000000E+00 0. -1.
         11    1    3    3    0    0  0.42830245941E+01 -0.31181863645E+02  0.44779277964E+02  0.54734236590E+02  0.00000000000E+00 0.  1.
</event>
<event>
 7    1  0.4274778E-006  0.1074504E+03  0.7561462E-02  0.1265366E+00
          1   -1    0    0  501    0  0.00000000000E+00  0.00000000000E+00  0.27160406821E+02  0.27160406821E+02  0.00000000000E+00 0. -1.
         -1   -1    0    0    0  501 -0.00000000000E+00 -0.00000000000E+00 -0.57458470453E+03  0.57458470453E+03  0.00000000000E+00 0.  1.
         23    2    1    2    0    0 -0.38740921538E+02  0.10661486820E+02 -0.12922961201E+03  0.16339591377E+03  0.91560939895E+02 0.  0.
          5    1    1    2  502    0  0.14140982493E+02 -0.66713321427E+02 -0.25524938613E+03  0.26423541807E+03  0.41800000000E+01 0.  1.
         -5    1    1    2    0  502  0.24599939045E+02  0.56051834607E+02 -0.16294529957E+03  0.17411377951E+03  0.41800000000E+01 0.  1.
        -11    1    3    3    0    0 -0.34567064684E+02 -0.29134879910E+02 -0.11014829836E+03  0.11906456576E+03  0.00000000000E+00 0.  1.
         11    1    3    3    0    0 -0.41738568542E+01  0.39796366730E+02 -0.19081313650E+02  0.44331348013E+02  0.00000000000E+00 0. -1.
</event>
<event>
 7    1  0.4274778E-006  0.1344922E+03  0.7561462E-02  0.1220938E+00
         -2   -1    0    0    0  501 -0.00000000000E+00  0.00000000000E+00  0.83192039439E+02  0.83192039439E+02  0.00000000000E+00 0.  1.
          2   -1    0    0  501    0  0.00000000000E+00 -0.00000000000E+00 -0.26296851314E+03  0.26296851314E+03  0.00000000000E+00 0. -1.
         23    2    1    2    0    0 -0.62942773470E+02 -0.78642434962E+02 -0.73091325349E+02  0.15335114866E+03  0.89598033709E+02 0.  0.
          5    1    1    2  502    0  0.71334443632E+02 -0.53178615855E+01 -0.26691847660E+02  0.76464433769E+02  0.41800000000E+01 0.  1.
         -5    1    1    2    0  502 -0.83916701619E+01  0.83960296547E+02 -0.79993300691E+02  0.11634497015E+03  0.41800000000E+01 0.  1.
        -11    1    3    3    0    0 -0.40783329786E+02 -0.11841834942E+02 -0.71250901125E+02  0.82946970737E+02  0.00000000000E+00 0. -1.
         11    1    3    3    0    0 -0.22159443684E+02 -0.66800600019E+02 -0.18404242236E+01  0.70404177920E+02  0.00000000000E+00 0.  1.
</event>
<event>
 7    1  0.4274778E-006  0.1111901E+03  0.7561462E-02  0.1258382E+00
          3   -1    0    0  501    0  0.00000000000E+00  0.00000000000E+00  0.87842654076E+02  0.87842654076E+02  0.00000000000E+00 0. -1.
         -3   -1    0    0    0  501 -0.00000000000E+00 -0.00000000000E+00 -0.16513575909E+03  0.16513575909E+03  0.00000000000E+00 0.  1.
         23    2    1    2    0    0 -0.15159779032E+02 -0.33627073982E+02  0.24773715188E+01  0.10005752693E+03  0.92977267765E+02 0.  0.
          5    1    1    2  502    0 -0.51171349187E+02 -0.78933524440E+01 -0.28165386962E+02  0.59089537256E+02  0.41800000000E+01 0.  1.
         -5    1    1    2    0  502  0.66331128219E+02  0.41520426426E+02 -0.51605089567E+02  0.93831348975E+02  0.41800000000E+01 0.  1.
        -11    1    3    3    0    0  0.29017962457E+02 -0.37846224872E+02  0.20820574399E+02  0.52037248203E+02  0.00000000000E+00 0. -1.
         11    1    3    3    0    0 -0.44177741488E+02  0.42191508905E+01 -0.18343202880E+02  0.48020278728E+02  0.00000000000E+00 0.  1.
</event>
<event>
 7    1  0.4274778E-006  0.1137459E+03  0.7561462E-02  0.1253786E+00
         -2   -1    0    0    0  501 -0.00000000000E+00  0.00000000000E+00  0.23448381670E+04  0.23448381670E+04  0.00000000000E+00 0.  1.
          2   -1    0    0  501    0  0.00000000000E+00 -0.00000000000E+00 -0.10852392345E+02  0.10852392345E+02  0.00000000000E+00 0. -1.
         23    2    1    2    0    0  0.14348299731E+02  0.42354214323E+02  0.28028477833E+03  0.29769774385E+03  0.89803321498E+02 0.  0.
          5    1    1    2  502    0  0.31203478498E+02 -0.69642212575E+02  0.98234946303E+03  0.98531803737E+03  0.41800000000E+01 0.  1.
         -5    1    1    2    0  502 -0.45551778229E+02  0.27287998253E+02  0.10713515333E+04  0.10726747782E+04  0.41800000000E+01 0.  1.
        -11    1    3    3    0    0 -0.36407168315E+02  0.24981126017E+02  0.94201724214E+02  0.10403606782E+03  0.00000000000E+00 0. -1.
         11    1    3    3    0    0  0.50755468046E+02  0.17373088306E+02  0.18608305412E+03  0.19366167603E+03  0.00000000000E+00 0.  1.
</event>
<event>
 7    1  0.4274778E-006  0.1094982E+03  0.7561462E-02  0.1261502E+00
          3   -1    0    0  501    0  0.00000000000E+00  0.00000000000E+00  0.71967172954E+02  0.71967172954E+02  0.00000000000E+00 0. -1.
         -3   -1    0    0    0  501 -0.00000000000E+00 -0.00000000000E+00 -0.21521144063E+03  0.21521144063E+03  0.00000000000E+00 0.  1.
         23    2    1    2    0    0 -0.32616167797E+02 -0.23863635976E+02 -0.14813628763E+02  0.10339861085E+03  0.94013518198E+02 0.  0.
          5    1    1    2  502    0 -0.54881084988E-01  0.71781027292E+02 -0.84199910061E+02  0.11072315090E+03  0.41800000000E+01 0. -1.
         -5    1    1    2    0  502  0.32671048882E+02 -0.47917391316E+02 -0.44230728852E+02  0.73056851837E+02  0.41800000000E+01 0. -1.
        -11    1    3    3    0    0 -0.39541807945E+02 -0.48948400135E+02  0.14114214361E+02  0.64488072528E+02  0.00000000000E+00 0. -1.
         11    1    3    3    0    0  0.69256401478E+01  0.25084764159E+02 -0.28927843124E+02  0.38910538318E+02  0.00000000000E+00 0.  1.
</event>
<event>
 7    1  0.4274778E-006  0.2903565E+03  0.7561462E-02  0.1090163E+00
          2   -1    0    0  501    0  0.00000000000E+00  0.00000000000E+00  0.93259403153E+03  0.93259403153E+03  0.00000000000E+00 0. -1.
         -2   -1    0    0    0  501 -0.00000000000E+00 -0.00000000000E+00 -0.16474820974E+03  0.16474820974E+03  0.00000000000E+00 0.  1.
         23    2    1    2    0    0 -0.26381966865E+03  0.10480835280E+03  0.72522677303E+03  0.78421022626E+03  0.91903200553E+02 0.  0.
          5    1    1    2  502    0  0.66291821877E+02  0.92842257959E+01 -0.30324758613E+02  0.73606153828E+02  0.41800000000E+01 0. -1.
         -5    1    1    2    0  502  0.19752784677E+03 -0.11409257860E+03  0.72943807379E+02  0.23952586118E+03  0.41800000000E+01 0. -1.
        -11    1    3    3    0    0 -0.14834797656E+03  0.75043907979E+02  0.30470082671E+03  0.34710416890E+03  0.00000000000E+00 0.  1.
         11    1    3    3    0    0 -0.11547169209E+03  0.29764444823E+02  0.42052594632E+03  0.43710605736E+03  0.00000000000E+00 0. -1.
</event>
<event>
 7    1  0.4274778E-006  0.1128055E+03  0.7561462E-02  0.1255461E+00
         -1   -1    0    0    0  501 -0.00000000000E+00  0.00000000000E+00  0.12009342290E+03  0.12009342290E+03  0.00000000000E+00 0.  1.
          1   -1    0    0  501    0  0.00000000000E+00 -0.00000000000E+00 -0.14322259603E+03  0.14322259603E+03  0.00000000000E+00 0. -1.
         23    2    1    2    0    0  0.66376644548E+02  0.16876859142E+02 -0.31785384434E+02  0.11909156518E+03  0.92096704168E+02 0.  0.
          5    1    1    2  502    0 -0.10275957086E+03  0.17522014516E+01  0.51875902072E+01  0.10299020878E+03  0.41800000000E+01 0. -1.
         -5    1    1    2    0  502  0.36382926312E+02 -0.18629060593E+02  0.34686210921E+01  0.41234244966E+02  0.41800000000E+01 0.  1.
        -11    1    3    3    0    0  0.85166667563E+01  0.21986373524E+02 -0.52397120170E+02  0.57457744783E+02  0.00000000000E+00 0. -1.
         11    1    3    3    0    0  0.57859977791E+02 -0.51095143828E+01  0.20611735736E+02  0.61633820402E+02  0.00000000000E+00 0.  1.
</event>
<event>
 7    1  0.4274778E-006  0.1158347E+03  0.7561462E-02  0.1250131E+00
          2   -1    0    0  501    0  0.00000000000E+00  0.00000000000E+00  0.81834793698E+03  0.81834793698E+03  0.00000000000E+00 0. -1.
         -2   -1    0    0    0  501 -0.00000000000E+00 -0.00000000000E+00 -0.21647620843E+02  0.21647620843E+02  0.00000000000E+00 0.  1.
         23    2    1    2    0    0  0.44255993337E+02 -0.39948088696E+02  0.51090280062E+03  0.52237454726E+03  0.91099139432E+02 0.  0.
          5    1    1    2  502    0 -0.52083185912E+02  0.72531288124E+02  0.26054532493E+03  0.27545377971E+03  0.41800000000E+01 0.  1.
         -5    1    1    2    0  502  0.78271925752E+01 -0.32583199428E+02  0.25252190581E+02  0.42167230852E+02  0.41800000000E+01 0.  1.
        -11    1    3    3    0    0 -0.24311408761E+02 -0.30943512429E+02  0.20633852491E+03  0.21005745028E+03  0.00000000000E+00 0. -1.
         11    1    3    3    0    0  0.68567402098E+02 -0.90045762668E+01  0.30456427571E+03  0.31231709697E+03  0.00000000000E+00 0.  1.
</event>
<event>
 7    1  0.4274778E-006  0.1219300E+03  0.7561462E-02  0.1239947E+00
          1   -1    0    0  501    0  0.00000000000E+00  0.00000000000E+00  0.41825233277E+03  0.41825233277E+03  0.00000000000E+00 0. -1.
         -1   -1    0    0    0  501 -0.00000000000E+00 -0.00000000000E+00 -0.65089603420E+02  0.65089603420E+02  0.00000000000E+00 0.  1.
         23    2    1    2    0    0  0.94160656595E+02 -0.32518524165E+02  0.27200861183E+03  0.30401784466E+03  0.92273946997E+02 0.  0.
          5    1    1    2  502    0 -0.62775104232E+02  0.66692585264E+02  0.72621869273E+01  0.91971878308E+02  0.41800000000E+01 0.  1.
         -5    1    1    2    0  502 -0.31385552363E+02 -0.34174061098E+02  0.73891930590E+02  0.87352213226E+02  0.41800000000E+01 0.  1.
        -11    1    3    3    0    0  0.20944776428E+02 -0.24037668330E+02  0.12500012924E+02  0.34245342478E+02  0.00000000000E+00 0.  1.
         11    1    3    3    0    0  0.73215880167E+02 -0.84808558358E+01  0.25950859891E+03  0.26977250218E+03  0.00000000000E+00 0. -1.
</event>
<event>
 7    1  0.4274778E-006  0.9307735E+02  0.7561462E-02  0.1295566E+00
         -3   -1    0    0    0  501 -0.00000000000E+00  0.00000000000E+00  0.99546303504E+02  0.99546303504E+02  0.00000000000E+00 0.  1.
          3   -1    0    0  501    0  0.00000000000E+00 -0.00000000000E+00 -0.17839898350E+03  0.17839898350E+03  0.00000000000E+00 0. -1.
         23    2    1    2    0    0 -0.27779439618E+02 -0.60193746366E+02 -0.73934728882E+02  0.13629019563E+03  0.93347142017E+02 0.  0.
          5    1    1    2  502    0 -0.34650799910E+01  0.52019758761E+02 -0.58800665184E+02  0.78695951020E+02  0.41800000000E+01 0.  1.
         -5    1    1    2    0  502  0.31244519609E+02  0.81739876048E+01  0.53882714069E+02  0.62959140356E+02  0.41800000000E+01 0.  1.
        -11    1    3    3    0    0 -0.34605939434E+02  0.56726106050E+01 -0.58643113296E+02  0.68328356428E+02  0.00000000000E+00 0. -1.
         11    1    3    3    0    0  0.68264998155E+01 -0.65866356971E+02 -0.15291615586E+02  0.67961839201E+02  0.00000000000E+00 0.  1.
</event>
<event>
 7    1  0.4274778E-006  0.1282072E+03  0.7561462E-02  0.1230140E+00
          2   -1    0    0  501    0  0.00000000000E+00  0.00000000000E+00  0.19088034107E+03  0.19088034107E+03  0.00000000000E+00 0. -1.
         -2   -1    0    0    0  501 -0.00000000000E+00 -0.00000000000E+00 -0.13465383605E+03  0.13465383605E+03  0.00000000000E+00 0.  1.
         23    2    1    2    0    0  0.74138712112E+01  0.53005241684E+02  0.10715624538E+03  0.14710131638E+03  0.85392126246E+02 0.  0.
          5    1    1    2  502    0  0.55103894458E+02  0.20821432027E+02  0.15439508147E+02  0.61039512022E+02  0.41800000000E+01 0. -1.
         -5    1    1    2    0  502 -0.62517765669E+02 -0.73826673711E+02 -0.66369248501E+02  0.11739334871E+03  0.41800000000E+01 0.  1.
        -11    1    3    3    0    0  0.39443098629E+02  0.10055366299E+01  0.47174574939E+02  0.61499671983E+02  0.00000000000E+00 0.  1.
         11    1    3    3    0    0 -0.32029227418E+02  0.51999705054E+02  0.59981670438E+02  0.85601644395E+02  0.00000000000E+00 0. -1.
</event>
<event>
 7    1  0.4274778E-006  0.1456954E+03  0.7561462E-02  0.1205865E+00
         -2   -1    0    0    0  501 -0.00000000000E+00  0.00000000000E+00  0.17461734604E+03  0.17461734604E+03  0.00000000000E+00 0.  1.
          2   -1    0    0  501    0  0.00000000000E+00 -0.00000000000E+00 -0.14331551285E+03  0.14331551285E+03  0.00000000000E+00 0. -1.
         23    2    1    2    0    0  0.93134710295E+02 -0.55278230000E+02 -0.20815001476E+02  0.14446118601E+03  0.93306018041E+02 0.  0.
          5    1    1    2  502    0 -0.45503948524E+02 -0.38220042422E+02  0.27484302305E+02  0.65606708858E+02  0.41800000000E+01 0.  1.
         -5    1    1    2    0  502 -0.47630761771E+02  0.93498272422E+02  0.24632532363E+02  0.10786496402E+03  0.41800000000E+01 0.  1.
        -11    1    3    3    0    0 -0.87269430033E+00 -0.29245388347E+02 -0.35296781047E+02  0.45846669313E+02  0.00000000000E+00 0.  1.
         11    1    3    3    0    0  0.94007404596E+02 -0.26032841653E+02  0.14481779571E+02  0.98614516694E+02  0.00000000000E+00 0. -1.
</event>
<event>
 7    1  0.4274778E-006  0.1124458E+03  0.7561462E-02  0.1256106E+00
          1   -1    0    0  501    0  0.00000000000E+00  0.00000000000E+00  0.84210630941E+03  0.84210630941E+03  0.00000000000E+00 0. -1.
         -1   -1    0    0    0  501 -0.00000000000E+00 -0.00000000000E+00 -0.16687043322E+02  0.16687043322E+02  0.00000000000E+00 0.  1.
         23    2    1    2    0    0  0.34180951930E+02  0.38750817618E+02  0.39517352662E+03  0.41087865855E+03  0.99945948248E+02 0.  0.
          5    1    1    2  502    0 -0.45675174821E+02  0.23653294279E+02  0.11117281559E+03  0.12256658293E+03  0.41800000000E+01 0. -1.
         -5    1    1    2    0  502  0.11494222891E+02 -0.62404111897E+02  0.31907292387E+03  0.32534811124E+03  0.41800000000E+01 0.  1.
        -11    1    3    3    0    0  0.57179947069E+01 -0.32484118593E+02  0.16482283785E+03  0.16809069368E+03  0.00000000000E+00 0.  1.
         11    1    3    3    0    0  0.28462957223E+02  0.71234936210E+02  0.23035068877E+03  0.24278796487E+03  0.00000000000E+00 0. -1.
</event>
<event>
 7    1  0.4274778E-006  0.1492439E+03  0.7561462E-02  0.1201405E+00
          2   -1    0    0  501    0  0.00000000000E+00  0.00000000000E+00  0.36242850797E+03  0.36242850797E+03  0.00000000000E+00 0. -1.
         -2   -1    0    0    0  501 -0.00000000000E+00 -0.00000000000E+00 -0.75956894943E+02  0.75956894943E+02  0.00000000000E+00 0.  1.
         23    2    1    2    0    0 -0.25811303754E+02  0.11896506554E+03  0.17224027392E+03  0.22978224476E+03  0.91182552200E+02 0.  0.
          5    1    1    2  502    0  0.73023072932E+02 -0.44156921114E+02  0.64365657158E+02  0.10697015043E+03  0.41800000000E+01 0. -1.
         -5    1    1    2    0  502 -0.47211769178E+02 -0.74808144426E+02  0.49865681944E+02  0.10163300771E+03  0.41800000000E+01 0. -1.
        -11    1    3    3    0    0 -0.31153223872E+02  0.96729104741E+02  0.66150410182E+02  0.12125559710E+03  0.00000000000E+00 0.  1.
         11    1    3    3    0    0  0.53419201176E+01  0.22235960799E+02  0.10608986374E+03  0.10852664766E+03  0.00000000000E+00 0. -1.
</event>
<event>
 7    1  0.4274778E-006  0.1469674E+03  0.7561462E-02  0.1204250E+00
         -1   -1    0    0    0  501 -0.00000000000E+00  0.00000000000E+00  0.49568100279E+02  0.49568100279E+02  0.00000000000E+00 0.  1.
          1   -1    0    0  501    0  0.00000000000E+00 -0.00000000000E+00 -0.53796060580E+03  0.53796060580E+03  0.00000000000E+00 0. -1.
         23    2    1    2    0    0  0.10254941276E+03  0.65454221428E+02 -0.20484037281E+03  0.25458726636E+03  0.89746647287E+02 0.  0.
          5    1    1    2  502    0  0.35611562526E+01 -0.53284280420E+02 -0.39645498907E+02  0.66641836389E+02  0.41800000000E+01 0. -1.
         -5    1    1    2    0  502 -0.10611056901E+03 -0.12169941008E+02 -0.24390663380E+03  0.26629960333E+03  0.41800000000E+01 0. -1.
        -11    1    3    3    0    0  0.50896634212E+02  0.10311467539E+01 -0.14191808181E+03  0.15077225402E+03  0.00000000000E+00 0.  1.
         11    1    3    3    0    0  0.51652778548E+02  0.64423074674E+02 -0.62922290999E+02  0.10381501234E+03  0.00000000000E+00 0. -1.
</event>
<event>
 7    1  0.4274778E-006  0.1072961E+03  0.7561462E-02  0.1265661E+00
          2   -1    0    0  501    0  0.00000000000E+00  0.00000000000E+00  0.40574964602E+03  0.40574964602E+03  0.00000000000E+00 0. -1.
         -2   -1    0    0    0  501 -0.00000000000E+00 -0.00000000000E+00 -0.53590033064E+02  0.53590033064E+02  0.00000000000E+00 0.  1.
         23    2    1    2    0    0  0.92961688600E+02  0.37780579729E+00  0.22799672582E+03  0.26007719741E+03  0.83759317958E+02 0.  0.
          5    1    1    2  502    0 -0.53116100385E+02 -0.36511262080E+02  0.12983481976E+03  0.14501360350E+03  0.41800000000E+01 0. -1.
         -5    1    1    2    0  502 -0.39845588216E+02  0.36133456283E+02 -0.56719326214E+01  0.54248878171E+02  0.41800000000E+01 0. -1.
        -11    1    3    3    0    0  0.67433279251E+02 -0.10601321539E+02  0.63436349835E+02  0.93186939264E+02  0.00000000000E+00 0.  1.
         11    1    3    3    0    0  0.25528409349E+02  0.10979127337E+02  0.16456037598E+03  0.16689025815E+03  0.00000000000E+00 0. -1.
</event>
<event>
 7    1  0.4274778E-006  0.1242032E+03  0.7561462E-02  0.1236320E+00
         -2   -1    0    0    0  501 -0.00000000000E+00  0.00000000000E+00  0.75202426852E+02  0.75202426852E+02  0.00000000000E+00 0.  1.
          2   -1    0    0  501    0  0.00000000000E+00 -0.00000000000E+00 -0.37025790481E+03  0.37025790481E+03  0.00000000000E+00 0. -1.
         23    2    1    2    0    0 -0.35886858017E+02 -0.11502335229E+03 -0.18900995306E+03  0.24196233115E+03  0.91119532413E+02 0.  0.
          5    1    1    2  502    0  0.71785248166E+01  0.87324275849E+02 -0.12996438034E+03  0.15679691620E+03  0.41800000000E+01 0. -1.
         -5    1    1    2    0  502  0.28708333200E+02  0.27699076444E+02  0.23918855443E+02  0.46701084320E+02  0.41800000000E+01 0. -1.
        -11    1    3    3    0    0 -0.78314270874E+01 -0.31879911391E+02  0.81396904807E+00  0.32837821884E+02  0.00000000000E+00 0.  1.
         11    1    3    3    0    0 -0.28055430929E+02 -0.83143440902E+02 -0.18982392211E+03  0.20912450926E+03  0.00000000000E+00 0. -1.
</event>
<event>
 7    1  0.4274778E-006  0.1478132E+03  0.7561462E-02  0.1203186E+00
          1   -1    0    0  501    0  0.00000000000E+00  0.00000000000E+00  0.71302138169E+03  0.71302138169E+03  0.00000000000E+00 0.  1.
         -1   -1    0    0    0  501 -0.00000000000E+00 -0.00000000000E+00 -0.43669791455E+02  0.43669791455E+02  0.00000000000E+00 0. -1.
         23    2    1    2    0    0 -0.11756551812E+02  0.10585085674E+03  0.50710583116E+03  0.52579593781E+03  0.89232414718E+02 0.  0.
          5    1    1    2  502    0  0.67722252501E+02 -0.44620170603E+02  0.78603166895E+02  0.11301855314E+03  0.41800000000E+01 0.  1.
         -5    1    1    2    0  502 -0.55965700689E+02 -0.61230686138E+02  0.83642592179E+02  0.11787668219E+03  0.41800000000E+01 0.  1.
        -11    1    3    3    0    0 -0.27953229849E+02  0.11091980713E+03  0.48270598594E+03  0.49607424398E+03  0.00000000000E+00 0.  1.
         11    1    3    3    0    0  0.16196678037E+02 -0.50689503925E+01  0.24399845214E+02  0.29721693828E+02  0.00000000000E+00 0. -1.
</event>
<event>
 7    1  0.4274778E-006  0.1300400E+03  0.7561462E-02  0.1227396E+00
          1   -1    0    0  501    0  0.00000000000E+00  0.00000000000E+00  0.27505240649E+03  0.27505240649E+03  0.00000000000E+00 0. -1.
         -1   -1    0    0    0  501 -0.00000000000E+00 -0.00000000000E+00 -0.89015038272E+02  0.89015038272E+02  0.00000000000E+00 0.  1.
         23    2    1    2    0    0  0.10693928481E+03 -0.35553535988E+02  0.88870717840E+02  0.16967129767E+03  0.90500166876E+02 0.  0.
          5    1    1    2  502    0  0.68545002817E+00  0.13438096037E+02  0.82235766875E+02  0.83434081887E+02  0.41800000000E+01 0.  1.
         -5    1    1    2    0  502 -0.10762473484E+03  0.22115439951E+02  0.14930883504E+02  0.11096206521E+03  0.41800000000E+01 0.  1.
        -11    1    3    3    0    0  0.11275014168E+03 -0.13883565630E+02  0.93055075893E+02  0.14684888488E+03  0.00000000000E+00 0. -1.
         11    1    3    3    0    0 -0.58108568634E+01 -0.21669970358E+02 -0.41843580530E+01  0.22822412781E+02  0.00000000000E+00 0.  1.
</event>
<event>
 7    1  0.4274778E-006  0.1090948E+03  0.7561462E-02  0.1262255E+00
         -2   -1    0    0    0  501 -0.00000000000E+00  0.00000000000E+00  0.41579184483E+02  0.41579184483E+02  0.00000000000E+00 0. -1.
          2   -1    0    0  501    0  0.00000000000E+00 -0.00000000000E+00 -0.40887544297E+03  0.40887544297E+03  0.00000000000E+00 0.  1.
         23    2    1    2    0    0  0.33974147819E+01  0.39402335117E+02 -0.26708040623E+03  0.28536378035E+03  0.92392950530E+02 0.  0.
          5    1    1    2  502    0  0.25862577169E+02  0.38929853131E+02 -0.28887869088E+02  0.55103427689E+02  0.41800000000E+01 0.  1.
         -5    1    1    2    0  502 -0.29259991951E+02 -0.78332188248E+02 -0.71327983167E+02  0.10998741940E+03  0.41800000000E+01 0.  1.
        -11    1    3    3    0    0  0.27363435186E+02  0.53245804672E+02 -0.10440408198E+03  0.12034984684E+03  0.00000000000E+00 0. -1.
         11    1    3    3    0    0 -0.23966020404E+02 -0.13843469555E+02 -0.16267632424E+03  0.16501393351E+03  0.00000000000E+00 0.  1.
</event>
<event>
 7    1  0.4274778E-006  0.1109686E+03  0.7561462E-02  0.1258787E+00
         -4   -1    0    0    0  501 -0.00000000000E+00  0.00000000000E+00  0.74877790734E+02  0.74877790734E+02  0.00000000000E+00 0.  1.
          4   -1    0    0  501    0  0.00000000000E+00 -0.00000000000E+00 -0.16886174758E+03  0.16886174758E+03  0.00000000000E+00 0. -1.
         23    2    1    2    0    0 -0.12145690576E+01  0.23729980987E+02 -0.23785170531E+02  0.98384796381E+02  0.92462136284E+02 0.  0.
          5    1    1    2  502    0 -0.46346535317E+02 -0.53310752373E+02 -0.33759211518E+02  0.78404045921E+02  0.41800000000E+01 0.  1.
         -5    1    1    2    0  502  0.47561104375E+02  0.29580771386E+02 -0.36439574800E+02  0.66950696014E+02  0.41800000000E+01 0.  1.
        -11    1    3    3    0    0 -0.45473968836E+02  0.15462070813E+01 -0.16206598609E+02  0.48300377189E+02  0.00000000000E+00 0.  1.
         11    1    3    3    0    0  0.44259399779E+02  0.22183773906E+02 -0.75785719219E+01  0.50084419193E+02  0.00000000000E+00 0. -1.
</event>
<event>
 7    1  0.4274778E-006  0.9373555E+02  0.7561462E-02  0.1294050E+00
          2   -1    0    0  501    0  0.00000000000E+00  0.00000000000E+00  0.99160235585E+03  0.99160235585E+03  0.00000000000E+00 0. -1.
         -2   -1    0    0    0  501 -0.00000000000E+00 -0.00000000000E+00 -0.15158429920E+02  0.15158429920E+02  0.00000000000E+00 0.  1.
         23    2    1    2    0    0 -0.36067891627E+02  0.17076792560E+02  0.59121301959E+03  0.59976950410E+03  0.92726015053E+02 0.  0.
          5    1    1    2  502    0  0.43578491933E+02  0.20252723563E+02  0.35481308697E+03  0.35807688679E+03  0.41800000000E+01 0.  1.
         -5    1    1    2    0  502 -0.75106003058E+01 -0.37329516123E+02  0.30417819376E+02  0.48914394881E+02  0.41800000000E+01 0.  1.
        -11    1    3    3    0    0 -0.29017519883E+02  0.55091144233E+02  0.37051746768E+03  0.37571298153E+03  0.00000000000E+00 0.  1.
         11    1    3    3    0    0 -0.70503717442E+01 -0.38014351673E+02  0.22069555190E+03  0.22405652257E+03  0.00000000000E+00 0. -1.
</event>
<event>
 7    1  0.4274778E-006  0.6011877E+02  0.7561462E-02  0.1397334E+00
         -1   -1    0    0    0  501 -0.00000000000E+00  0.00000000000E+00  0.24259819764E+02  0.24259819764E+02  0.00000000000E+00 0.  1.
          1   -1    0    0  501    0  0.00000000000E+00 -0.00000000000E+00 -0.52647525040E+03  0.52647525040E+03  0.00000000000E+00 0. -1.
         23    2    1    2    0    0 -0.15701942820E+02 -0.15405284120E+02 -0.27131507108E+03  0.28720641629E+03  0.91606680844E+02 0.  0.
          5    1    1    2  502    0  0.27853674529E+02  0.64642685667E+01 -0.24239208412E+03  0.24410860042E+03  0.41800000000E+01 0.  1.
         -5    1    1    2    0  502 -0.12151731709E+02  0.89410155537E+01  0.11491724568E+02  0.19420053455E+02  0.41800000000E+01 0.  1.
        -11    1    3    3    0    0  0.27253873712E+02 -0.17982106456E+02 -0.38653608612E+02  0.50598727688E+02  0.00000000000E+00 0.  1.
         11    1    3    3    0    0 -0.42955816533E+02  0.25768223355E+01 -0.23266146247E+03  0.23660768860E+03  0.00000000000E+00 0. -1.
</event>
<event>
 7    1  0.4274778E-006  0.9320076E+02  0.7561462E-02  0.1295281E+00
         -1   -1    0    0    0  501 -0.00000000000E+00  0.00000000000E+00  0.15406217638E+02  0.15406217638E+02  0.00000000000E+00 0.  1.
          1   -1    0    0  501    0  0.00000000000E+00 -0.00000000000E+00 -0.93138710378E+03  0.93138710378E+03  0.00000000000E+00 0. -1.
         23    2    1    2    0    0 -0.35356624682E+02  0.32132040045E+02 -0.45125088062E+03  0.46315778958E+03  0.92764335156E+02 0.  0.
          5    1    1    2  502    0  0.53594650588E+02 -0.12140698306E+02 -0.44835852951E+03  0.45173291502E+03  0.41800000000E+01 0.  1.
         -5    1    1    2    0  502 -0.18238025906E+02 -0.19991341740E+02 -0.16371476016E+02  0.31902616827E+02  0.41800000000E+01 0.  1.
        -11    1    3    3    0    0 -0.61405365382E+02 -0.14323757589E+01 -0.24560421591E+03  0.25316812886E+03  0.00000000000E+00 0.  1.
         11    1    3    3    0    0  0.26048740701E+02  0.33564415804E+02 -0.20564666472E+03  0.20998966072E+03  0.00000000000E+00 0. -1.
</event>
<event>
 7    1  0.4274778E-006  0.8949806E+02  0.7561462E-02  0.1304072E+00
         -2   -1    0    0    0  501 -0.00000000000E+00  0.00000000000E+00  0.30589522525E+02  0.30589522525E+02  0.00000000000E+00 0. -1.
          2   -1    0    0  501    0  0.00000000000E+00 -0.00000000000E+00 -0.66724763962E+03  0.66724763962E+03  0.00000000000E+00 0.  1.
         23    2    1    2    0    0 -0.36160714238E+02 -0.61476121103E+02 -0.43485508113E+03  0.44992717758E+03  0.90821874131E+02 0.  0.
          5    1    1    2  502    0  0.21081589339E+02  0.16855327577E+02 -0.19865120298E+03  0.20052009456E+03  0.41800000000E+01 0.  1.
         -5    1    1    2    0  502  0.15079124899E+02  0.44620793526E+02 -0.31518329741E+01  0.47389889995E+02  0.41800000000E+01 0.  1.
        -11    1    3    3    0    0  0.15958562186E+02  0.77536711008E+01 -0.22965927830E+02  0.29021181294E+02  0.00000000000E+00 0. -1.
         11    1    3    3    0    0 -0.52119276425E+02 -0.69229792204E+02 -0.41188915330E+03  0.42090599629E+03  0.00000000000E+00 0.  1.
</event>
<event>
 7    1  0.4274778E-006  0.8569855E+02  0.7561462E-02  0.1313616E+00
          4   -1    0    0  501    0  0.00000000000E+00  0.00000000000E+00  0.24675328117E+02  0.24675328117E+02  0.00000000000E+00 0. -1.
         -4   -1    0    0    0  501 -0.00000000000E+00 -0.00000000000E+00 -0.67281706691E+03  0.67281706691E+03  0.00000000000E+00 0.  1.
         23    2    1    2    0    0 -0.35138804892E+02  0.84226693165E+01 -0.16936671266E+03  0.20132383840E+03  0.10266707156E+03 0.  0.
          5    1    1    2  502    0 -0.17950973016E+02  0.25349387397E+02 -0.36285821458E+03  0.36420926013E+03  0.41800000000E+01 0. -1.
         -5    1    1    2    0  502  0.53089777909E+02 -0.33772056714E+02 -0.11591681155E+03  0.13195929650E+03  0.41800000000E+01 0. -1.
        -11    1    3    3    0    0 -0.95045953122E+01  0.37235904568E+02 -0.13461183021E+02  0.40719201482E+02  0.00000000000E+00 0. -1.
         11    1    3    3    0    0 -0.25634209580E+02 -0.28813235251E+02 -0.15590552964E+03  0.16060463692E+03  0.00000000000E+00 0.  1.
</event>
<event>
 7    1  0.4274778E-006  0.8552117E+02  0.7561462E-02  0.1314075E+00
          4   -1    0    0  501    0  0.00000000000E+00  0.00000000000E+00  0.15414800983E+03  0.15414800983E+03  0.00000000000E+00 0. -1.
         -4   -1    0    0    0  501 -0.00000000000E+00 -0.00000000000E+00 -0.11654799714E+03  0.11654799714E+03  0.00000000000E+00 0.  1.
         23    2    1    2    0    0  0.27371400197E+02 -0.45801566611E+02  0.76433505421E+02  0.12926599373E+03  0.89558022156E+02 0.  0.
          5    1    1    2  502    0 -0.81080241959E+01 -0.31023114203E+02  0.23978822887E+02  0.40257049299E+02  0.41800000000E+01 0. -1.
         -5    1    1    2    0  502 -0.19263376001E+02  0.76824680815E+02 -0.62812315626E+02  0.10117296394E+03  0.41800000000E+01 0. -1.
        -11    1    3    3    0    0 -0.39924369737E+01 -0.14661929426E+02 -0.18861210213E+02  0.24221002832E+02  0.00000000000E+00 0.  1.
         11    1    3    3    0    0  0.31363837171E+02 -0.31139637185E+02  0.95294715634E+02  0.10504499090E+03  0.00000000000E+00 0. -1.
</event>
<event>
 7    1  0.4274778E-006  0.1893184E+03  0.7561462E-02  0.1159078E+00
         -2   -1    0    0    0  501 -0.00000000000E+00  0.00000000000E+00  0.16293006655E+03  0.16293006655E+03  0.00000000000E+00 0.  1.
          2   -1    0    0  501    0  0.00000000000E+00 -0.00000000000E+00 -0.26183989461E+03  0.26183989461E+03  0.00000000000E+00 0. -1.
         23    2    1    2    0    0 -0.12763652753E+03  0.11912028983E+03 -0.65366983276E+02  0.20739199660E+03  0.90872829493E+02 0.  0.
          5    1    1    2  502    0  0.13436215761E+03 -0.81928510609E+02  0.12195249801E+02  0.15789764649E+03  0.41800000000E+01 0.  1.
         -5    1    1    2    0  502 -0.67256300791E+01 -0.37191779225E+02 -0.45738094579E+02  0.59480318069E+02  0.41800000000E+01 0.  1.
        -11    1    3    3    0    0 -0.11306225492E+02  0.42285968875E+02 -0.51048085983E+02  0.67244635333E+02  0.00000000000E+00 0.  1.
         11    1    3    3    0    0 -0.11633030204E+03  0.76834320959E+02 -0.14318897293E+02  0.14014736127E+03  0.00000000000E+00 0. -1.
</event>
<event>
 7    1  0.4274778E-006  0.1394131E+03  0.7561462E-02  0.1214121E+00
         -2   -1    0    0    0  501 -0.00000000000E+00  0.00000000000E+00  0.40334861967E+02  0.40334861967E+02  0.00000000000E+00 0.  1.
          2   -1    0    0  501    0  0.00000000000E+00 -0.00000000000E+00 -0.56613529463E+03  0.56613529463E+03  0.00000000000E+00 0. -1.
         23    2    1    2    0    0  0.19570671222E+02  0.89132368493E+02 -0.34302023094E+03  0.36692258947E+03  0.92960838766E+02 0.  0.
          5    1    1    2  502    0  0.18585317090E+02  0.26580086033E+02 -0.33563449061E+02  0.46860351020E+02  0.41800000000E+01 0.  1.
         -5    1    1    2    0  502 -0.38155988311E+02 -0.11571245453E+03 -0.14921675267E+03  0.19268721611E+03  0.41800000000E+01 0.  1.
        -11    1    3    3    0    0 -0.13113564104E+02  0.90552193217E+02 -0.29463848453E+03  0.30851823580E+03  0.00000000000E+00 0. -1.
         11    1    3    3    0    0  0.32684235326E+02 -0.14198247232E+01 -0.48381746412E+02  0.58404353664E+02  0.00000000000E+00 0.  1.
</event>
<event>
 7    1  0.4274778E-006  0.1125668E+03  0.7561462E-02  0.1255889E+00
          1   -1    0    0  501    0  0.00000000000E+00  0.00000000000E+00  0.61585249915E+02  0.61585249915E+02  0.00000000000E+00 0. -1.
         -1   -1    0    0    0  501 -0.00000000000E+00 -0.00000000000E+00 -0.34941249530E+03  0.34941249530E+03  0.00000000000E+00 0.  1.
         23    2    1    2    0    0 -0.20654019974E+01  0.96154613484E+02 -0.73852051160E+02  0.15102510294E+03  0.90024889209E+02 0.  0.
          5    1    1    2  502    0  0.82425756365E+01 -0.94104980289E+02 -0.74756362145E+02  0.12053909511E+03  0.41800000000E+01 0. -1.
         -5    1    1    2    0  502 -0.61771736391E+01 -0.20496331951E+01 -0.13921883208E+03  0.13943354717E+03  0.41800000000E+01 0.  1.
        -11    1    3    3    0    0  0.36097713519E+02  0.61394142243E+02 -0.15074621124E+02  0.72797869646E+02  0.00000000000E+00 0. -1.
         11    1    3    3    0    0 -0.38163115516E+02  0.34760471242E+02 -0.58777430036E+02  0.78227233292E+02  0.00000000000E+00 0.  1.
</event>
<event>
 7    1  0.4274778E-006  0.9040018E+02  0.7561462E-02  0.1301885E+00
         -2   -1    0    0    0  501 -0.00000000000E+00  0.00000000000E+00  0.24662016724E+02  0.24662016724E+02  0.00000000000E+00 0.  1.
          2   -1    0    0  501    0  0.00000000000E+00 -0.00000000000E+00 -0.72913759900E+03  0.72913759900E+03  0.00000000000E+00 0. -1.
         23    2    1    2    0    0  0.29275532308E+02  0.57727903422E+02 -0.43984366923E+03  0.45401918000E+03  0.92094488572E+02 0.  0.
          5    1    1    2  502    0  0.38620686137E+01 -0.11878203054E+02 -0.23576467671E+03  0.23613229865E+03  0.41800000000E+01 0.  1.
         -5    1    1    2    0  502 -0.33137600922E+02 -0.45849700368E+02 -0.28867236338E+02  0.63648137070E+02  0.41800000000E+01 0.  1.
        -11    1    3    3    0    0 -0.25932154234E+02 -0.59703276029E+01 -0.14225946024E+03  0.14472689958E+03  0.00000000000E+00 0.  1.
         11    1    3    3    0    0  0.55207686542E+02  0.63698231025E+02 -0.29758420898E+03  0.30929228042E+03  0.00000000000E+00 0. -1.
</event>
<event>
 7    1  0.4274778E-006  0.1043355E+03  0.7561462E-02  0.1271434E+00
         -2   -1    0    0    0  501 -0.00000000000E+00  0.00000000000E+00  0.30759351254E+02  0.30759351254E+02  0.00000000000E+00 0.  1.
          2   -1    0    0  501    0  0.00000000000E+00 -0.00000000000E+00 -0.51968786312E+03  0.51968786312E+03  0.00000000000E+00 0. -1.
         23    2    1    2    0    0  0.24898337400E+02 -0.30884399283E+02 -0.32913189136E+03  0.34367087829E+03  0.90598550481E+02 0.  0.
          5    1    1    2  502    0  0.33538444703E+02  0.42027849930E+02 -0.25137281100E+02  0.59502291921E+02  0.41800000000E+01 0.  1.
         -5    1    1    2    0  502 -0.58436782103E+02 -0.11143450647E+02 -0.13465933940E+03  0.14727404416E+03  0.41800000000E+01 0.  1.
        -11    1    3    3    0    0 -0.86477015055E+01 -0.53791207606E+02 -0.23345463041E+03  0.23972763966E+03  0.00000000000E+00 0.  1.
         11    1    3    3    0    0  0.33546038906E+02  0.22906808323E+02 -0.95677260955E+02  0.10394323863E+03  0.00000000000E+00 0. -1.
</event>
<event>
 7    1  0.4274778E-006  0.2097110E+03  0.7561462E-02  0.1141795E+00
          1   -1    0    0  501    0  0.00000000000E+00  0.00000000000E+00  0.55784918283E+03  0.55784918283E+03  0.00000000000E+00 0. -1.
         -1   -1    0    0    0  501 -0.00000000000E+00 -0.00000000000E+00 -0.95331131585E+02  0.95331131585E+02  0.00000000000E+00 0.  1.
         23    2    1    2    0    0 -0.34935689216E+02 -0.19475784732E+03  0.28950611748E+03  0.36209332651E+03  0.90258869772E+02 0.  0.
          5    1    1    2  502    0 -0.99034278363E+01  0.18246040062E+02  0.87175590408E+02  0.89710934807E+02  0.41800000000E+01 0. -1.
         -5    1    1    2    0  502  0.44839117052E+02  0.17651180726E+03  0.85836343354E+02  0.20137605309E+03  0.41800000000E+01 0. -1.
        -11    1    3    3    0    0 -0.56714455899E+02 -0.73274643555E+02  0.10409632542E+03  0.13936193118E+03  0.00000000000E+00 0.  1.
         11    1    3    3    0    0  0.21778766683E+02 -0.12148320376E+03  0.18540979206E+03  0.22273139533E+03  0.00000000000E+00 0. -1.
</event>
<event>
 7    1  0.4274778E-006  0.8554725E+02  0.7561462E-02  0.1314008E+00
          2   -1    0    0  501    0  0.00000000000E+00  0.00000000000E+00  0.35814782185E+03  0.35814782185E+03  0.00000000000E+00 0. -1.
         -2   -1    0    0    0  501 -0.00000000000E+00 -0.00000000000E+00 -0.43514848811E+02  0.43514848811E+02  0.00000000000E+00 0.  1.
         23    2    1    2    0    0  0.46423614879E+02  0.40913945501E+02  0.14815720256E+03  0.18442880083E+03  0.90743170266E+02 0.  0.
          5    1    1    2  502    0 -0.20052069054E+01 -0.36432977756E+02 -0.75752736550E+01  0.37499865251E+02  0.41800000000E+01 0. -1.
         -5    1    1    2    0  502 -0.44418407974E+02 -0.44809677452E+01  0.17405104413E+03  0.17973400458E+03  0.41800000000E+01 0. -1.
        -11    1    3    3    0    0  0.62890885781E+02  0.29322165218E+02  0.14890223879E+03  0.16427699049E+03  0.00000000000E+00 0. -1.
         11    1    3    3    0    0 -0.16467270902E+02  0.11591780283E+02 -0.74503622772E+00  0.20151810342E+02  0.00000000000E+00 0.  1.
</event>
<event>
 7    1  0.4274778E-006  0.1044514E+03  0.7561462E-02  0.1271204E+00
          2   -1    0    0  501    0  0.00000000000E+00  0.00000000000E+00  0.47625095461E+03  0.47625095461E+03  0.00000000000E+00 0.  1.
         -2   -1    0    0    0  501 -0.00000000000E+00 -0.00000000000E+00 -0.34152232145E+02  0.34152232145E+02  0.00000000000E+00 0. -1.
         23    2    1    2    0    0 -0.58437705562E+02  0.70328906514E+01  0.26773144062E+03  0.28788409017E+03  0.87935761164E+02 0.  0.
          5    1    1    2  502    0 -0.12531529562E+02 -0.52312274359E+02  0.68221851845E+02  0.86978771841E+02  0.41800000000E+01 0.  1.
         -5    1    1    2    0  502  0.70969235124E+02  0.45279383708E+02  0.10614542999E+03  0.13554032474E+03  0.41800000000E+01 0.  1.
        -11    1    3    3    0    0 -0.15046947499E+02  0.20317300755E+02  0.11693188637E+02  0.27855591890E+02  0.00000000000E+00 0. -1.
         11    1    3    3    0    0 -0.43390758063E+02 -0.13284410103E+02  0.25603825199E+03  0.26002849828E+03  0.00000000000E+00 0.  1.
</event>
<event>
 7    1  0.4274778E-006  0.1222761E+03  0.7561462E-02  0.1239389E+00
          1   -1    0    0  501    0  0.00000000000E+00  0.00000000000E+00  0.44924183887E+03  0.44924183887E+03  0.00000000000E+00 0. -1.
         -1   -1    0    0    0  501 -0.00000000000E+00 -0.00000000000E+00 -0.41743706468E+02  0.41743706468E+02  0.00000000000E+00 0.  1.
         23    2    1    2    0    0  0.17841672355E+02  0.78594274701E+02  0.22343410444E+03  0.25429668388E+03  0.90821908772E+02 0.  0.
          5    1    1    2  502    0 -0.46690569273E+02  0.27335443416E+01  0.12080761821E+03  0.12961263264E+03  0.41800000000E+01 0.  1.
         -5    1    1    2    0  502  0.28848896918E+02 -0.81327819042E+02  0.63256409747E+02  0.10707622882E+03  0.41800000000E+01 0.  1.
        -11    1    3    3    0    0 -0.29390984114E+02  0.18351444949E+02  0.28481733949E+02  0.44853256823E+02  0.00000000000E+00 0. -1.
         11    1    3    3    0    0  0.47232656469E+02  0.60242829752E+02  0.19495237050E+03  0.20944342705E+03  0.00000000000E+00 0.  1.
</event>
<event>
 7    1  0.4274778E-006  0.1560302E+03  0.7561462E-02  0.1193253E+00
          1   -1    0    0  501    0  0.00000000000E+00  0.00000000000E+00  0.14183480501E+04  0.14183480501E+04  0.00000000000E+00 0. -1.
         -1   -1    0    0    0  501 -0.00000000000E+00 -0.00000000000E+00 -0.23292203505E+02  0.23292203505E+02  0.00000000000E+00 0.  1.
         23    2    1    2    0    0  0.13040183292E+03 -0.53592765752E+02  0.81681638554E+03  0.83345831396E+03  0.87102989905E+02 0.  0.
          5    1    1    2  502    0 -0.70164484679E+01 -0.55874754707E+01  0.27827771301E+03  0.27845360186E+03  0.41800000000E+01 0. -1.
         -5    1    1    2    0  502 -0.12338538445E+03  0.59180241223E+02  0.29996174802E+03  0.32972833776E+03  0.41800000000E+01 0. -1.
        -11    1    3    3    0    0  0.87640802338E+02  0.10438540297E+02  0.40497037052E+03  0.41447662703E+03  0.00000000000E+00 0.  1.
         11    1    3    3    0    0  0.42761030580E+02 -0.64031306049E+02  0.41184601502E+03  0.41898168693E+03  0.00000000000E+00 0. -1.
</event>
<event>
 7    1  0.4274778E-006  0.1188020E+03  0.7561462E-02  0.1245087E+00
          4   -1    0    0  501    0  0.00000000000E+00  0.00000000000E+00  0.33137592797E+03  0.33137592797E+03  0.00000000000E+00 0. -1.
         -4   -1    0    0    0  501 -0.00000000000E+00 -0.00000000000E+00 -0.46548755507E+02  0.46548755507E+02  0.00000000000E+00 0.  1.
         23    2    1    2    0    0  0.11467368140E+02  0.33619627116E+02  0.12103159918E+03  0.15541607113E+03  0.90794974016E+02 0.  0.
          5    1    1    2  502    0 -0.70691425713E+02 -0.41003371008E+02  0.13051585051E+03  0.15404679074E+03  0.41800000000E+01 0. -1.
         -5    1    1    2    0  502  0.59224057573E+02  0.73837438918E+01  0.33279722772E+02  0.68461821602E+02  0.41800000000E+01 0.  1.
        -11    1    3    3    0    0 -0.15745221038E+02  0.57576442840E+02  0.88228468533E+02  0.10652333742E+03  0.00000000000E+00 0.  1.
         11    1    3    3    0    0  0.27212589178E+02 -0.23956815724E+02  0.32803130643E+02  0.48892733707E+02  0.00000000000E+00 0. -1.
</event>
<event>
 7    1  0.4274778E-006  0.2258669E+03  0.7561462E-02  0.1129583E+00
         -2   -1    0    0    0  501 -0.00000000000E+00  0.00000000000E+00  0.33417169915E+02  0.33417169915E+02  0.00000000000E+00 0. -1.
          2   -1    0    0  501    0  0.00000000000E+00 -0.00000000000E+00 -0.19778185421E+04  0.19778185421E+04  0.00000000000E+00 0.  1.
         23    2    1    2    0    0 -0.15482373688E+03 -0.15249765468E+03 -0.12990587852E+04  0.13188921054E+04  0.68532723230E+02 0.  0.
          5    1    1    2  502    0  0.56135399978E+02  0.92549593081E+02 -0.47023205493E+03  0.48254768489E+03  0.41800000000E+01 0. -1.
         -5    1    1    2    0  502  0.98688336904E+02  0.59948061596E+02 -0.17511053211E+03  0.20979592175E+03  0.41800000000E+01 0. -1.
        -11    1    3    3    0    0 -0.14688666852E+03 -0.10711826067E+03 -0.10375612258E+04  0.10533676055E+04  0.00000000000E+00 0.  1.
         11    1    3    3    0    0 -0.79370683576E+01 -0.45379394007E+02 -0.26149755939E+03  0.26552449985E+03  0.00000000000E+00 0. -1.
</event>
<event>
 7    1  0.4274778E-006  0.8956833E+02  0.7561462E-02  0.1303900E+00
          2   -1    0    0  501    0  0.00000000000E+00  0.00000000000E+00  0.21456713381E+03  0.21456713381E+03  0.00000000000E+00 0. -1.
         -2   -1    0    0    0  501 -0.00000000000E+00 -0.00000000000E+00 -0.62172793821E+02  0.62172793821E+02  0.00000000000E+00 0.  1.
         23    2    1    2    0    0  0.24566004217E+02 -0.24946832425E+02  0.40849441821E+02  0.10551960219E+03  0.90773765695E+02 0.  0.
          5    1    1    2  502    0  0.27180542327E+02 -0.22727393167E+02  0.91091325527E+02  0.97828514594E+02  0.41800000000E+01 0.  1.
         -5    1    1    2    0  502 -0.51746546544E+02  0.47674225592E+02  0.20453572638E+02  0.73391810842E+02  0.41800000000E+01 0.  1.
        -11    1    3    3    0    0  0.24269076030E+02 -0.45953097512E+02  0.58378763636E+02  0.78158526509E+02  0.00000000000E+00 0. -1.
         11    1    3    3    0    0  0.29692818659E+00  0.21006265087E+02 -0.17529321815E+02  0.27361075683E+02  0.00000000000E+00 0.  1.
</event>
<event>
 7    1  0.4274778E-006  0.9571540E+02  0.7561462E-02  0.1289573E+00
          1   -1    0    0  501    0  0.00000000000E+00  0.00000000000E+00  0.37395562047E+03  0.37395562047E+03  0.00000000000E+00 0. -1.
         -1   -1    0    0    0  501 -0.00000000000E+00 -0.00000000000E+00 -0.43243619230E+02  0.43243619230E+02  0.00000000000E+00 0.  1.
         23    2    1    2    0    0 -0.79963227017E+01  0.81578714731E+01  0.25368725614E+03  0.26985435516E+03  0.91288865846E+02 0.  0.
          5    1    1    2  502    0 -0.26004872038E+02 -0.58232978504E+02  0.48887392083E+02  0.80466034200E+02  0.41800000000E+01 0. -1.
         -5    1    1    2    0  502  0.34001194740E+02  0.50075107031E+02  0.28137353017E+02  0.66878850339E+02  0.41800000000E+01 0. -1.
        -11    1    3    3    0    0 -0.18688035279E+02  0.34045802957E+02  0.22975218817E+03  0.23301164635E+03  0.00000000000E+00 0. -1.
         11    1    3    3    0    0  0.10691712577E+02 -0.25887931484E+02  0.23935067967E+02  0.36842708817E+02  0.00000000000E+00 0.  1.
</event>
<event>
 7    1  0.4274778E-006  0.1032780E+03  0.7561462E-02  0.1273550E+00
          1   -1    0    0  501    0  0.00000000000E+00  0.00000000000E+00  0.27656527937E+03  0.27656527937E+03  0.00000000000E+00 0. -1.
         -1   -1    0    0    0  501 -0.00000000000E+00 -0.00000000000E+00 -0.51183488732E+02  0.51183488732E+02  0.00000000000E+00 0.  1.
         23    2    1    2    0    0  0.31576639105E+02  0.37190724176E+02  0.10013882916E+03  0.14413834244E+03  0.91475912415E+02 0.  0.
          5    1    1    2  502    0 -0.76473923438E+02 -0.10158594724E+02  0.50759777565E+02  0.92441794829E+02  0.41800000000E+01 0.  1.
         -5    1    1    2    0  502  0.44897284333E+02 -0.27032129452E+02  0.74483183907E+02  0.91168630834E+02  0.41800000000E+01 0.  1.
        -11    1    3    3    0    0  0.13039678531E+02 -0.15857225311E+02  0.82834704374E+02  0.85340922537E+02  0.00000000000E+00 0. -1.
         11    1    3    3    0    0  0.18536960574E+02  0.53047949488E+02  0.17304124791E+02  0.58797419900E+02  0.00000000000E+00 0.  1.
</event>
<event>
 7    1  0.4274778E-006  0.1736156E+03  0.7561462E-02  0.1174129E+00
         -2   -1    0    0    0  501 -0.00000000000E+00  0.00000000000E+00  0.25910074579E+02  0.25910074579E+02  0.00000000000E+00 0. -1.
          2   -1    0    0  501    0  0.00000000000E+00 -0.00000000000E+00 -0.12242478718E+04  0.12242478718E+04  0.00000000000E+00 0.  1.
         23    2    1    2    0    0 -0.92982809351E+02  0.10609776488E+03 -0.59730139358E+03  0.62024586963E+03  0.89629489981E+02 0.  0.
          5    1    1    2  502    0 -0.16400905812E+02 -0.61979612701E+02 -0.14049044308E+03  0.15448462415E+03  0.41800000000E+01 0. -1.
         -5    1    1    2    0  502  0.10938371516E+03 -0.44118152175E+02 -0.46054596052E+03  0.47542745255E+03  0.41800000000E+01 0. -1.
        -11    1    3    3    0    0  0.16330130458E+02  0.19963712802E+02 -0.62035811535E+02  0.67183814289E+02  0.00000000000E+00 0.  1.
         11    1    3    3    0    0 -0.10931293981E+03  0.86134052074E+02 -0.53526558204E+03  0.55306205534E+03  0.00000000000E+00 0. -1.
</event>
<event>
 7    1  0.4274778E-006  0.1306717E+03  0.7561462E-02  0.1226462E+00
         -1   -1    0    0    0  501 -0.00000000000E+00  0.00000000000E+00  0.64218131857E+02  0.64218131857E+02  0.00000000000E+00 0.  1.
          1   -1    0    0  501    0  0.00000000000E+00 -0.00000000000E+00 -0.28573501912E+03  0.28573501912E+03  0.00000000000E+00 0. -1.
         23    2    1    2    0    0  0.77220857114E+02  0.17831074362E+02 -0.13463725432E+03  0.17826702643E+03  0.85854146533E+02 0.  0.
          5    1    1    2  502    0 -0.89417520228E+02 -0.55409344687E+02 -0.46660943232E+02  0.11515382940E+03  0.41800000000E+01 0.  1.
         -5    1    1    2    0  502  0.12196663114E+02  0.37578270325E+02 -0.40218689713E+02  0.56532295142E+02  0.41800000000E+01 0.  1.
        -11    1    3    3    0    0  0.57577285834E+02 -0.29788148364E+02 -0.66746867886E+02  0.93046343289E+02  0.00000000000E+00 0. -1.
         11    1    3    3    0    0  0.19643571281E+02  0.47619222727E+02 -0.67890386432E+02  0.85220683145E+02  0.00000000000E+00 0.  1.
</event>
<event>
 7    1  0.4274778E-006  0.1311614E+03  0.7561462E-02  0.1225743E+00
         -2   -1    0    0    0  501 -0.00000000000E+00  0.00000000000E+00  0.11419876029E+03  0.11419876029E+03  0.00000000000E+00 0.  1.
          2   -1    0    0  501    0  0.00000000000E+00 -0.00000000000E+00 -0.16958759799E+03  0.16958759799E+03  0.00000000000E+00 0. -1.
         23    2    1    2    0    0  0.86219364141E+02  0.31685027059E+01 -0.70306826544E+02  0.13110259108E+03  0.69289402994E+02 0.  0.
          5    1    1    2  502    0 -0.10780374168E+03  0.30146725861E+02  0.99091432384E+01  0.11245503688E+03  0.41800000000E+01 0.  1.
         -5    1    1    2    0  502  0.21584377538E+02 -0.33315228567E+02  0.50088456103E+01  0.40228730312E+02  0.41800000000E+01 0.  1.
        -11    1    3    3    0    0  0.62554608082E+02  0.34255663605E+02 -0.49726664474E+02  0.86944066163E+02  0.00000000000E+00 0. -1.
         11    1    3    3    0    0  0.23664756059E+02 -0.31087160899E+02 -0.20580162071E+02  0.44158524918E+02  0.00000000000E+00 0.  1.
</event>
<event>
 7    1  0.4274778E-006  0.1146240E+03  0.7561462E-02  0.1252239E+00
          2   -1    0    0  501    0  0.00000000000E+00  0.00000000000E+00  0.60204497296E+03  0.60204497296E+03  0.00000000000E+00 0. -1.
         -2   -1    0    0    0  501 -0.00000000000E+00 -0.00000000000E+00 -0.27233759832E+02  0.27233759832E+02  0.00000000000E+00 0.  1.
         23    2    1    2    0    0 -0.18129518168E+02  0.52963017271E+02  0.34719458747E+03  0.36358630536E+03  0.92288456767E+02 0.  0.
          5    1    1    2  502    0  0.13988666778E+02 -0.91680279603E+02  0.12384601395E+03  0.15477811227E+03  0.41800000000E+01 0.  1.
         -5    1    1    2    0  502  0.41408513900E+01  0.38717262332E+02  0.10377061171E+03  0.11091431516E+03  0.41800000000E+01 0.  1.
        -11    1    3    3    0    0  0.13660025022E+02  0.62567984614E+02  0.29386343817E+03  0.30076081739E+03  0.00000000000E+00 0. -1.
         11    1    3    3    0    0 -0.31789543190E+02 -0.96049673429E+01  0.53331149298E+02  0.62825487975E+02  0.00000000000E+00 0.  1.
</event>
<event>
 7    1  0.4274778E-006  0.8792558E+02  0.7561462E-02  0.1307954E+00
          1   -1    0    0  501    0  0.00000000000E+00  0.00000000000E+00  0.54868762280E+02  0.54868762280E+02  0.00000000000E+00 0. -1.
         -1   -1    0    0    0  501 -0.00000000000E+00 -0.00000000000E+00 -0.30629330498E+03  0.30629330498E+03  0.00000000000E+00 0.  1.
         23    2    1    2    0    0 -0.24737651809E+02  0.50395035792E+02 -0.51438067829E+02  0.11867813396E+03  0.91033035806E+02 0.  0.
          5    1    1    2  502    0  0.25770703281E+02 -0.58924728044E+02 -0.28061204315E+02  0.70293358935E+02  0.41800000000E+01 0.  1.
         -5    1    1    2    0  502 -0.10330514720E+01  0.85296922519E+01 -0.17192527055E+03  0.17219057437E+03  0.41800000000E+01 0.  1.
        -11    1    3    3    0    0 -0.19047838751E+01  0.71039402817E+02 -0.18164281690E+02  0.73349615429E+02  0.00000000000E+00 0.  1.
         11    1    3    3    0    0 -0.22832867934E+02 -0.20644367025E+02 -0.33273786139E+02  0.45328518528E+02  0.00000000000E+00 0. -1.
</event>
<event>
 6    1  0.4274778E-006  0.1728398E+03  0.7561462E-02  0.1174918E+00
         -2   -1    0    0    0  501 -0.00000000000E+00  0.00000000000E+00  0.11729241567E+03  0.11729241567E+03  0.00000000000E+00 0.  1.
          2   -1    0    0  501    0  0.00000000000E+00 -0.00000000000E+00 -0.33816614921E+03  0.33816614921E+03  0.00000000000E+00 0. -1.
          5    1    1    2  502    0 -0.82681004619E+02 -0.10915081568E+03 -0.46852078236E+02  0.14478480143E+03  0.41800000000E+01 0.  1.
         -5    1    1    2    0  502  0.26218090239E+02 -0.93862224041E+01  0.25276130376E+02  0.37839722430E+02  0.41800000000E+01 0.  1.
        -11    1    1    2    0    0  0.54403773996E+02 -0.71056948817E+01 -0.94218527236E+02  0.10902931899E+03  0.00000000000E+00 0. -1.
         11    1    1    2    0    0  0.20591403841E+01  0.12564273297E+03 -0.10507925844E+03  0.16380472204E+03  0.00000000000E+00 0.  1.
</event>
<event>
 7    1  0.4274778E-006  0.1036803E+03  0.7561462E-02  0.1272742E+00
         -2   -1    0    0    0  501 -0.00000000000E+00  0.00000000000E+00  0.70227295376E+02  0.70227295376E+02  0.00000000000E+00 0.  1.
          2   -1    0    0  501    0  0.00000000000E+00 -0.00000000000E+00 -0.18086595564E+03  0.18086595564E+03  0.00000000000E+00 0. -1.
         23    2    1    2    0    0 -0.21202428319E+02 -0.32739757216E+02 -0.60658364388E+02  0.11651965703E+03  0.91520263519E+02 0.  0.
          5    1    1    2  502    0 -0.22056653872E+02 -0.30736698696E+02 -0.42851997907E+02  0.57314978421E+02  0.41800000000E+01 0. -1.
         -5    1    1    2    0  502  0.43259082191E+02  0.63476455912E+02 -0.71282979667E+01  0.77258615565E+02  0.41800000000E+01 0.  1.
        -11    1    3    3    0    0 -0.99483958325E+01  0.28457395914E+02 -0.76728685574E+00  0.30155972725E+02  0.00000000000E+00 0.  1.
         11    1    3    3    0    0 -0.11254032486E+02 -0.61197153131E+02 -0.59891077532E+02  0.86363684303E+02  0.00000000000E+00 0. -1.
</event>
<event>
 7    1  0.4274778E-006  0.3768619E+02  0.7561462E-02  0.1525963E+00
          1   -1    0    0  501    0  0.00000000000E+00  0.00000000000E+00  0.93012404044E+02  0.93012404044E+02  0.00000000000E+00 0. -1.
         -1   -1    0    0    0  501 -0.00000000000E+00 -0.00000000000E+00 -0.13026781666E+03  0.13026781666E+03  0.00000000000E+00 0.  1.
         23    2    1    2    0    0 -0.18172352476E+01 -0.73724871013E+01  0.72250999792E+00  0.92334704393E+02  0.92019126842E+02 0.  0.
          5    1    1    2  502    0 -0.20536994473E+02  0.48999375478E+01 -0.80138636963E+02  0.82978618115E+02  0.41800000000E+01 0. -1.
         -5    1    1    2    0  502  0.22354229721E+02  0.24725495534E+01  0.42160714351E+02  0.47966898193E+02  0.41800000000E+01 0. -1.
        -11    1    3    3    0    0 -0.34568399113E+01  0.11511026795E+02  0.43721472031E+02  0.45343363314E+02  0.00000000000E+00 0. -1.
         11    1    3    3    0    0  0.16396046638E+01 -0.18883513896E+02 -0.42998962033E+02  0.46991341079E+02  0.00000000000E+00 0.  1.
</event>
<event>
 7    1  0.4274778E-006  0.1193203E+03  0.7561462E-02  0.1244223E+00
         -1   -1    0    0    0  501 -0.00000000000E+00  0.00000000000E+00  0.46820111987E+03  0.46820111987E+03  0.00000000000E+00 0.  1.
          1   -1    0    0  501    0  0.00000000000E+00 -0.00000000000E+00 -0.41103868897E+02  0.41103868897E+02  0.00000000000E+00 0. -1.
         23    2    1    2    0    0  0.80697831184E+02 -0.24707449175E+02  0.22054318429E+03  0.25350434502E+03  0.92209320609E+02 0.  0.
          5    1    1    2  502    0 -0.11454936249E+03  0.17509539262E+02  0.16226819283E+03  0.19944066590E+03  0.41800000000E+01 0. -1.
         -5    1    1    2    0  502  0.33851531305E+02  0.71979099131E+01  0.44285873854E+02  0.56359977838E+02  0.41800000000E+01 0. -1.
        -11    1    3    3    0    0  0.24177015000E+02 -0.19508342976E+02  0.60776006273E+01  0.31655026921E+02  0.00000000000E+00 0. -1.
         11    1    3    3    0    0  0.56520816184E+02 -0.51991061988E+01  0.21446558366E+03  0.22184931810E+03  0.00000000000E+00 0.  1.
</event>
<event>
 7    1  0.4274778E-006  0.1069201E+03  0.7561462E-02  0.1266382E+00
         -1   -1    0    0    0  501 -0.00000000000E+00  0.00000000000E+00  0.45058535588E+03  0.45058535588E+03  0.00000000000E+00 0.  1.
          1   -1    0    0  501    0  0.00000000000E+00 -0.00000000000E+00 -0.38667544229E+02  0.38667544229E+02  0.00000000000E+00 0. -1.
         23    2    1    2    0    0 -0.42676503317E+02  0.12644737162E+02  0.17921824322E+03  0.22133728451E+03  0.12202393821E+03 0.  0.
          5    1    1    2  502    0  0.44849292279E+02  0.33993638060E+02  0.38930407662E+02  0.68557096549E+02  0.41800000000E+01 0.  1.
         -5    1    1    2    0  502 -0.21727889621E+01 -0.46638375222E+02  0.19376916077E+03  0.19935851906E+03  0.41800000000E+01 0.  1.
        -11    1    3    3    0    0 -0.71333609013E+02  0.29605228144E+02  0.60705271095E+02  0.98234837237E+02  0.00000000000E+00 0. -1.
         11    1    3    3    0    0  0.28657105695E+02 -0.16960490982E+02  0.11851297213E+03  0.12310244727E+03  0.00000000000E+00 0.  1.
</event>
<event>
 7    1  0.4274778E-006  0.1487565E+03  0.7561462E-02  0.1202009E+00
         -2   -1    0    0    0  501 -0.00000000000E+00  0.00000000000E+00  0.27272930651E+02  0.27272930651E+02  0.00000000000E+00 0.  1.
          2   -1    0    0  501    0  0.00000000000E+00 -0.00000000000E+00 -0.90551335033E+03  0.90551335033E+03  0.00000000000E+00 0. -1.
         23    2    1    2    0    0  0.45211127874E+02 -0.10255986967E+03 -0.35984166411E+03  0.38785819761E+03  0.91571749346E+02 0.  0.
          5    1    1    2  502    0  0.38720405814E+02  0.61832564758E+02 -0.19211313994E+03  0.20554188582E+03  0.41800000000E+01 0.  1.
         -5    1    1    2    0  502 -0.83931533689E+02  0.40727304917E+02 -0.32628561563E+03  0.33938619754E+03  0.41800000000E+01 0.  1.
        -11    1    3    3    0    0 -0.16547416940E+02 -0.39318031863E+02 -0.20652547042E+03  0.21088502689E+03  0.00000000000E+00 0.  1.
         11    1    3    3    0    0  0.61758544815E+02 -0.63241837812E+02 -0.15331619369E+03  0.17697317072E+03  0.00000000000E+00 0. -1.
</event>
<event>
 7    1  0.4274778E-006  0.2604402E+03  0.7561462E-02  0.1106879E+00
         -1   -1    0    0    0  501 -0.00000000000E+00  0.00000000000E+00  0.68869586329E+02  0.68869586329E+02  0.00000000000E+00 0.  1.
          1   -1    0    0  501    0  0.00000000000E+00 -0.00000000000E+00 -0.14344577110E+04  0.14344577110E+04  0.00000000000E+00 0. -1.
         23    2    1    2    0    0 -0.24090615852E+03  0.29944401574E+02 -0.10695997921E+04  0.11005991560E+04  0.91336424852E+02 0.  0.
          5    1    1    2  502    0  0.20840872785E+03 -0.63171835803E+02 -0.19870766919E+03  0.29483400225E+03  0.41800000000E+01 0. -1.
         -5    1    1    2    0  502  0.32497430666E+02  0.33227434229E+02 -0.97280663452E+02  0.10789413917E+03  0.41800000000E+01 0. -1.
        -11    1    3    3    0    0 -0.16481611336E+02 -0.20575087699E+02 -0.68226443281E+02  0.73142500017E+02  0.00000000000E+00 0.  1.
         11    1    3    3    0    0 -0.22442454718E+03  0.50519489273E+02 -0.10013733488E+04  0.10274566559E+04  0.00000000000E+00 0. -1.
</event>
<event>
 7    1  0.4274778E-006  0.7300493E+02  0.7561462E-02  0.1350163E+00
         -2   -1    0    0    0  501 -0.00000000000E+00  0.00000000000E+00  0.19126439872E+02  0.19126439872E+02  0.00000000000E+00 0.  1.
          2   -1    0    0  501    0  0.00000000000E+00 -0.00000000000E+00 -0.65674941775E+03  0.65674941775E+03  0.00000000000E+00 0. -1.
         23    2    1    2    0    0 -0.10818190299E+02 -0.49983484221E+02 -0.27078020232E+03  0.28493351205E+03  0.72455547659E+02 0.  0.
          5    1    1    2  502    0 -0.13049829015E+01 -0.32003609446E+01  0.93409145436E+01  0.10801406161E+02  0.41800000000E+01 0.  1.
         -5    1    1    2    0  502  0.12123173200E+02  0.53183845165E+02 -0.37618369011E+03  0.38014093941E+03  0.41800000000E+01 0.  1.
        -11    1    3    3    0    0 -0.21500558409E+02 -0.64423299044E+02 -0.23862398019E+03  0.24810086537E+03  0.00000000000E+00 0. -1.
         11    1    3    3    0    0  0.10682368110E+02  0.14439814824E+02 -0.32156222121E+02  0.36832646683E+02  0.00000000000E+00 0.  1.
</event>
<event>
 7    1  0.4274778E-006  0.1987928E+03  0.7561462E-02  0.1150762E+00
         -2   -1    0    0    0  501 -0.00000000000E+00  0.00000000000E+00  0.31779322527E+03  0.31779322527E+03  0.00000000000E+00 0.  1.
          2   -1    0    0  501    0  0.00000000000E+00 -0.00000000000E+00 -0.13072757418E+03  0.13072757418E+03  0.00000000000E+00 0. -1.
         23    2    1    2    0    0  0.98661714982E+01  0.17187825093E+03  0.85701639551E+02  0.21280796653E+03  0.91120717256E+02 0.  0.
          5    1    1    2  502    0  0.22934722278E+02 -0.16790049293E+03  0.10901614985E+03  0.20154049306E+03  0.41800000000E+01 0.  1.
         -5    1    1    2    0  502 -0.32800893776E+02 -0.39777580023E+01 -0.76521383074E+01  0.34172339866E+02  0.41800000000E+01 0.  1.
        -11    1    3    3    0    0 -0.31536254026E+02  0.19986168762E+02  0.15279359601E+02  0.40341555369E+02  0.00000000000E+00 0.  1.
         11    1    3    3    0    0  0.41402425524E+02  0.15189208217E+03  0.70422279950E+02  0.17246641116E+03  0.00000000000E+00 0. -1.
</event>
<event>
 7    1  0.4274778E-006  0.3791705E+03  0.7561462E-02  0.1051241E+00
         -2   -1    0    0    0  501 -0.00000000000E+00  0.00000000000E+00  0.51484078876E+03  0.51484078876E+03  0.00000000000E+00 0.  1.
          2   -1    0    0  501    0  0.00000000000E+00 -0.00000000000E+00 -0.29490065137E+03  0.29490065137E+03  0.00000000000E+00 0. -1.
         23    2    1    2    0    0  0.14188424789E+03 -0.33045991063E+03  0.51933029551E+02  0.37500225613E+03  0.92707929582E+02 0.  0.
          5    1    1    2  502    0 -0.98432748504E+02  0.34002229811E+03  0.13374943690E+03  0.37843170251E+03  0.41800000000E+01 0. -1.
         -5    1    1    2    0  502 -0.43451499389E+02 -0.95623874796E+01  0.34257670944E+02  0.56307481491E+02  0.41800000000E+01 0.  1.
        -11    1    3    3    0    0  0.68540358992E+02 -0.15557507772E+03  0.71348386672E+02  0.18436913489E+03  0.00000000000E+00 0. -1.
         11    1    3    3    0    0  0.73343888900E+02 -0.17488483291E+03 -0.19415357121E+02  0.19063312124E+03  0.00000000000E+00 0.  1.
</event>
<event>
 7    1  0.4274778E-006  0.1086373E+03  0.7561462E-02  0.1263114E+00
         -1   -1    0    0    0  501 -0.00000000000E+00  0.00000000000E+00  0.22541534911E+02  0.22541534911E+02  0.00000000000E+00 0.  1.
          1   -1    0    0  501    0  0.00000000000E+00 -0.00000000000E+00 -0.56985132285E+03  0.56985132285E+03  0.00000000000E+00 0. -1.
         23    2    1    2    0    0 -0.10902170533E+02 -0.19897300848E+02 -0.26019214658E+03  0.27838857122E+03  0.96361213891E+02 0.  0.
          5    1    1    2  502    0  0.31749594853E+02 -0.42085999887E+02 -0.18711286023E+03  0.19444269856E+03  0.41800000000E+01 0.  1.
         -5    1    1    2    0  502 -0.20847424319E+02  0.61983300735E+02 -0.10000478113E+03  0.11956158798E+03  0.41800000000E+01 0.  1.
        -11    1    3    3    0    0 -0.52258152172E+02  0.15376190939E+01 -0.14482021364E+03  0.15396809091E+03  0.00000000000E+00 0.  1.
         11    1    3    3    0    0  0.41355981639E+02 -0.21434919942E+02 -0.11537193294E+03  0.12442048031E+03  0.00000000000E+00 0. -1.
</event>
<event>
 7    1  0.4274778E-006  0.2138598E+03  0.7561462E-02  0.1138545E+00
         -2   -1    0    0    0  501 -0.00000000000E+00  0.00000000000E+00  0.44940975136E+03  0.44940975136E+03  0.00000000000E+00 0.  1.
          2   -1    0    0  501    0  0.00000000000E+00 -0.00000000000E+00 -0.12417849889E+03  0.12417849889E+03  0.00000000000E+00 0. -1.
         23    2    1    2    0    0 -0.79134048366E+02  0.18472649316E+03  0.84862911913E+02  0.23623091418E+03  0.90649082244E+02 0.  0.
          5    1    1    2  502    0  0.10743451957E+02  0.10638867785E+02 -0.48597718666E+01  0.16422455672E+02  0.41800000000E+01 0. -1.
         -5    1    1    2    0  502  0.68390596409E+02 -0.19536536094E+03  0.24522811242E+03  0.32093488040E+03  0.41800000000E+01 0. -1.
        -11    1    3    3    0    0 -0.39928976711E+02  0.13971668911E+03  0.97797395166E+02  0.17515537930E+03  0.00000000000E+00 0. -1.
         11    1    3    3    0    0 -0.39205071655E+02  0.45009804052E+02 -0.12934483253E+02  0.61075534883E+02  0.00000000000E+00 0.  1.
</event>
<event>
 7    1  0.4274778E-006  0.1031459E+03  0.7561462E-02  0.1273816E+00
          1   -1    0    0  501    0  0.00000000000E+00  0.00000000000E+00  0.97840337010E+03  0.97840337010E+03  0.00000000000E+00 0.  1.
         -1   -1    0    0    0  501 -0.00000000000E+00 -0.00000000000E+00 -0.12613198757E+02  0.12613198757E+02  0.00000000000E+00 0. -1.
         23    2    1    2    0    0 -0.28835252472E+02  0.11324350786E+02  0.44232035796E+03  0.45191691435E+03  0.87303411796E+02 0.  0.
          5    1    1    2  502    0  0.66988669957E+02 -0.27589322353E+02  0.43839908226E+03  0.44436458043E+03  0.41800000000E+01 0. -1.
         -5    1    1    2    0  502 -0.38153417485E+02  0.16264971567E+02  0.85070731123E+02  0.94735074073E+02  0.41800000000E+01 0. -1.
        -11    1    3    3    0    0  0.14720051604E+02  0.38145251309E+02  0.17131796232E+03  0.17612945333E+03  0.00000000000E+00 0.  1.
         11    1    3    3    0    0 -0.43555304076E+02 -0.26820900524E+02  0.27100239564E+03  0.27578746102E+03  0.00000000000E+00 0. -1.
</event>
<event>
 7    1  0.4274778E-006  0.1284357E+03  0.7561462E-02  0.1229795E+00
         -2   -1    0    0    0  501 -0.00000000000E+00  0.00000000000E+00  0.10348339061E+03  0.10348339061E+03  0.00000000000E+00 0.  1.
          2   -1    0    0  501    0  0.00000000000E+00 -0.00000000000E+00 -0.30624872509E+03  0.30624872509E+03  0.00000000000E+00 0. -1.
         23    2    1    2    0    0 -0.49428393759E+02 -0.72157454786E+02 -0.17512344066E+03  0.21631404270E+03  0.92052600234E+02 0.  0.
          5    1    1    2  502    0 -0.17668762374E+02 -0.36390476466E+02  0.32712242332E+02  0.52192098441E+02  0.41800000000E+01 0. -1.
         -5    1    1    2    0  502  0.67097156133E+02  0.10854793125E+03 -0.60354136157E+02  0.14122597456E+03  0.41800000000E+01 0.  1.
        -11    1    3    3    0    0 -0.24009758704E+02 -0.23341295264E+02 -0.15361632705E+03  0.15722360037E+03  0.00000000000E+00 0. -1.
         11    1    3    3    0    0 -0.25418635055E+02 -0.48816159522E+02 -0.21507113607E+02  0.59090442325E+02  0.00000000000E+00 0.  1.
</event>
<event>
 7    1  0.4274778E-006  0.1490490E+03  0.7561462E-02  0.1201647E+00
          1   -1    0    0  501    0  0.00000000000E+00  0.00000000000E+00  0.19188969936E+03  0.19188969936E+03  0.00000000000E+00 0. -1.
         -1   -1    0    0    0  501 -0.00000000000E+00 -0.00000000000E+00 -0.15101952868E+03  0.15101952868E+03  0.00000000000E+00 0.  1.
         23    2    1    2    0    0 -0.12331753897E+03  0.54109088293E+01  0.62856293317E+02  0.16580358227E+03  0.91123108658E+02 0.  0.
          5    1    1    2  502    0  0.12875675662E+03  0.34443840109E+02 -0.55881864006E+01  0.13346677760E+03  0.41800000000E+01 0.  1.
         -5    1    1    2    0  502 -0.54392176448E+01 -0.39854748938E+02 -0.16397936241E+02  0.43638868162E+02  0.41800000000E+01 0.  1.
        -11    1    3    3    0    0 -0.54101907214E+02  0.96763658267E+01  0.77419138151E+02  0.94944043372E+02  0.00000000000E+00 0. -1.
         11    1    3    3    0    0 -0.69215631759E+02 -0.42654569974E+01 -0.14562844834E+02  0.70859538898E+02  0.00000000000E+00 0.  1.
</event>
<event>
 7    1  0.4274778E-006  0.1282880E+03  0.7561462E-02  0.1230018E+00
         -4   -1    0    0    0  501 -0.00000000000E+00  0.00000000000E+00  0.38191430445E+03  0.38191430445E+03  0.00000000000E+00 0.  1.
          4   -1    0    0  501    0  0.00000000000E+00 -0.00000000000E+00 -0.64225887165E+02  0.64225887165E+02  0.00000000000E+00 0. -1.
         23    2    1    2    0    0 -0.11223639183E+03 -0.94451185605E+01  0.14359427788E+03  0.20397845539E+03  0.91113531965E+02 0.  0.
          5    1    1    2  502    0  0.13182990272E+02  0.71592990601E+00 -0.19831636034E+02  0.24188219776E+02  0.41800000000E+01 0.  1.
         -5    1    1    2    0  502  0.99053401557E+02  0.87291886545E+01  0.19392577544E+03  0.21797351645E+03  0.41800000000E+01 0.  1.
        -11    1    3    3    0    0 -0.40623053372E+01  0.28332063195E+02  0.42114868765E+02  0.50920234688E+02  0.00000000000E+00 0.  1.
         11    1    3    3    0    0 -0.10817408649E+03 -0.37777181755E+02  0.10147940912E+03  0.15305822070E+03  0.00000000000E+00 0. -1.
</event>
<event>
 7    1  0.4274778E-006  0.1183297E+03  0.7561462E-02  0.1245878E+00
         -2   -1    0    0    0  501 -0.00000000000E+00  0.00000000000E+00  0.22428632913E+02  0.22428632913E+02  0.00000000000E+00 0.  1.
          2   -1    0    0  501    0  0.00000000000E+00 -0.00000000000E+00 -0.73569611918E+03  0.73569611918E+03  0.00000000000E+00 0. -1.
         23    2    1    2    0    0 -0.37627087102E+02  0.37843288386E+02 -0.44441166497E+03  0.45682862671E+03  0.91338677782E+02 0.  0.
          5    1    1    2  502    0  0.60323648285E+02  0.26844565882E+02 -0.15157908344E+03  0.16538822266E+03  0.41800000000E+01 0.  1.
         -5    1    1    2    0  502 -0.22696561183E+02 -0.64687854268E+02 -0.11727673786E+03  0.13590790272E+03  0.41800000000E+01 0.  1.
        -11    1    3    3    0    0  0.28211764802E+02  0.16100255859E+02 -0.89613561980E+02  0.95319003366E+02  0.00000000000E+00 0. -1.
         11    1    3    3    0    0 -0.65838851904E+02  0.21743032527E+02 -0.35479810299E+03  0.36150962334E+03  0.00000000000E+00 0.  1.
</event>
<event>
 7    1  0.4274778E-006  0.1246550E+03  0.7561462E-02  0.1235609E+00
         -1   -1    0    0    0  501 -0.00000000000E+00  0.00000000000E+00  0.32857051793E+03  0.32857051793E+03  0.00000000000E+00 0.  1.
          1   -1    0    0  501    0  0.00000000000E+00 -0.00000000000E+00 -0.49118716507E+02  0.49118716507E+02  0.00000000000E+00 0. -1.
         23    2    1    2    0    0  0.61731730831E+02  0.60460162254E+01  0.92333261576E+02  0.14422316504E+03  0.91801575350E+02 0.  0.
          5    1    1    2  502    0 -0.41728702757E+02 -0.64899135464E+02  0.10661727398E+03  0.13167345188E+03  0.41800000000E+01 0. -1.
         -5    1    1    2    0  502 -0.20003028074E+02  0.58853119239E+02  0.80501265868E+02  0.10179261752E+03  0.41800000000E+01 0. -1.
        -11    1    3    3    0    0  0.42606390336E+02  0.47668231084E+02  0.63429280010E+02  0.90060192731E+02  0.00000000000E+00 0. -1.
         11    1    3    3    0    0  0.19125340495E+02 -0.41622214859E+02  0.28903981566E+02  0.54162972307E+02  0.00000000000E+00 0.  1.
</event>
<event>
 7    1  0.4274778E-006  0.2204993E+03  0.7561462E-02  0.1133511E+00
         -1   -1    0    0    0  501 -0.00000000000E+00  0.00000000000E+00  0.37434602527E+02  0.37434602527E+02  0.00000000000E+00 0.  1.
          1   -1    0    0  501    0  0.00000000000E+00 -0.00000000000E+00 -0.14750575589E+04  0.14750575589E+04  0.00000000000E+00 0. -1.
         23    2    1    2    0    0 -0.19977786018E+03 -0.50850587573E+02 -0.80118494703E+03  0.83190727684E+03  0.87609487100E+02 0.  0.
          5    1    1    2  502    0  0.29495905279E+02 -0.31645848481E+02 -0.20345885006E+03  0.20804913896E+03  0.41800000000E+01 0.  1.
         -5    1    1    2    0  502  0.17028195491E+03  0.82496436054E+02 -0.43297915931E+03  0.47253574566E+03  0.41800000000E+01 0.  1.
        -11    1    3    3    0    0 -0.13545086408E+03 -0.48617111113E+02 -0.67594987263E+03  0.69109969641E+03  0.00000000000E+00 0. -1.
         11    1    3    3    0    0 -0.64326996105E+02 -0.22334764593E+01 -0.12523507440E+03  0.14080758043E+03  0.00000000000E+00 0.  1.
</event>
<event>
 7    1  0.4274778E-006  0.1127369E+03  0.7561462E-02  0.1255584E+00
         -2   -1    0    0    0  501 -0.00000000000E+00  0.00000000000E+00  0.75081714082E+02  0.75081714082E+02  0.00000000000E+00 0.  1.
          2   -1    0    0  501    0  0.00000000000E+00 -0.00000000000E+00 -0.25400411120E+03  0.25400411120E+03  0.00000000000E+00 0. -1.
         23    2    1    2    0    0  0.49131993095E+02  0.68860296916E+02 -0.85585143395E+02  0.15156418806E+03  0.92147670051E+02 0.  0.
          5    1    1    2  502    0 -0.78704263103E+01 -0.71581332585E+02  0.34206784052E+01  0.72214986157E+02  0.41800000000E+01 0. -1.
         -5    1    1    2    0  502 -0.41261566784E+02  0.27210356687E+01 -0.96757932124E+02  0.10530665106E+03  0.41800000000E+01 0. -1.
        -11    1    3    3    0    0 -0.14256420527E+02  0.39357700265E+02 -0.67364769634E+02  0.79311325069E+02  0.00000000000E+00 0. -1.
         11    1    3    3    0    0  0.63388413621E+02  0.29502596650E+02 -0.18220373761E+02  0.72252862992E+02  0.00000000000E+00 0.  1.
</event>
<event>
 7    1  0.4274778E-006  0.9742076E+02  0.7561462E-02  0.1285815E+00
          2   -1    0    0  501    0  0.00000000000E+00  0.00000000000E+00  0.75757428866E+02  0.75757428866E+02  0.00000000000E+00 0. -1.
         -2   -1    0    0    0  501 -0.00000000000E+00 -0.00000000000E+00 -0.16749438160E+03  0.16749438160E+03  0.00000000000E+00 0.  1.
         23    2    1    2    0    0  0.18363986597E+02 -0.41321768797E+01 -0.13463284559E+02  0.94476858181E+02  0.91598612496E+02 0.  0.
          5    1    1    2  502    0  0.41121756468E+02 -0.15800234643E+02  0.48877351948E+01  0.44519755448E+02  0.41800000000E+01 0.  1.
         -5    1    1    2    0  502 -0.59485743066E+02  0.19932411522E+02 -0.83161403369E+02  0.10425519684E+03  0.41800000000E+01 0.  1.
        -11    1    3    3    0    0  0.40597870790E+02 -0.32264756634E+02 -0.23944343949E+02  0.57118589273E+02  0.00000000000E+00 0.  1.
         11    1    3    3    0    0 -0.22233884193E+02  0.28132579754E+02  0.10481059390E+02  0.37358268909E+02  0.00000000000E+00 0. -1.
</event>
<event>
 7    1  0.4274778E-006  0.1355316E+03  0.7561462E-02  0.1219471E+00
         -1   -1    0    0    0  501 -0.00000000000E+00  0.00000000000E+00  0.58625258552E+02  0.58625258552E+02  0.00000000000E+00 0.  1.
          1   -1    0    0  501    0  0.00000000000E+00 -0.00000000000E+00 -0.43737182018E+03  0.43737182018E+03  0.00000000000E+00 0. -1.
         23    2    1    2    0    0  0.45155614549E+02  0.96404503759E+02 -0.25267681499E+03  0.28893764051E+03  0.91140163477E+02 0.  0.
          5    1    1    2  502    0 -0.64546599615E+02 -0.49936803449E+02 -0.13296388791E+03  0.15606670288E+03  0.41800000000E+01 0.  1.
         -5    1    1    2    0  502  0.19390985066E+02 -0.46467700310E+02  0.68941412702E+01  0.50992735344E+02  0.41800000000E+01 0.  1.
        -11    1    3    3    0    0  0.10206978161E+02  0.10279035926E+03 -0.20415680834E+03  0.22880131720E+03  0.00000000000E+00 0. -1.
         11    1    3    3    0    0  0.34948636388E+02 -0.63858555030E+01 -0.48520006652E+02  0.60136323311E+02  0.00000000000E+00 0.  1.
</event>
<event>
 7    1  0.4274778E-006  0.2374191E+03  0.7561462E-02  0.1121524E+00
          3   -1    0    0  501    0  0.00000000000E+00  0.00000000000E+00  0.44853356366E+03  0.44853356366E+03  0.00000000000E+00 0. -1.
         -3   -1    0    0    0  501 -0.00000000000E+00 -0.00000000000E+00 -0.19054143565E+03  0.19054143565E+03  0.00000000000E+00 0.  1.
         23    2    1    2    0    0  0.78160183922E+01 -0.22592376855E+03  0.28995784659E+03  0.37875537287E+03  0.90980439292E+02 0.  0.
          5    1    1    2  502    0 -0.36844682278E+02  0.98370637360E+02 -0.67210304987E+02  0.12477584062E+03  0.41800000000E+01 0.  1.
         -5    1    1    2    0  502  0.29028663885E+02  0.12755313119E+03  0.35244586407E+02  0.13554378582E+03  0.41800000000E+01 0.  1.
        -11    1    3    3    0    0 -0.80430145983E+01 -0.22244876548E+03  0.24531265398E+03  0.33124981743E+03  0.00000000000E+00 0.  1.
         11    1    3    3    0    0  0.15859032991E+02 -0.34750030767E+01  0.44645192610E+02  0.47505555433E+02  0.00000000000E+00 0. -1.
</event>
<event>
 7    1  0.4274778E-006  0.1184980E+03  0.7561462E-02  0.1245596E+00
         -1   -1    0    0    0  501 -0.00000000000E+00  0.00000000000E+00  0.17229764628E+03  0.17229764628E+03  0.00000000000E+00 0.  1.
          1   -1    0    0  501    0  0.00000000000E+00 -0.00000000000E+00 -0.97104528825E+02  0.97104528825E+02  0.00000000000E+00 0. -1.
         23    2    1    2    0    0  0.65962733427E+02  0.29801384288E+01  0.75787555459E+01  0.11263659023E+03  0.90937343792E+02 0.  0.
          5    1    1    2  502    0 -0.57454794257E+02  0.48663149863E+02  0.57579129132E+01  0.75629237063E+02  0.41800000000E+01 0. -1.
         -5    1    1    2    0  502 -0.85079391699E+01 -0.51643288292E+02  0.61856448995E+02  0.81136347815E+02  0.41800000000E+01 0. -1.
        -11    1    3    3    0    0 -0.17461222862E+02  0.17134469420E+02 -0.96249117828E+01  0.26289223514E+02  0.00000000000E+00 0. -1.
         11    1    3    3    0    0  0.83423956288E+02 -0.14154330992E+02  0.17203667329E+02  0.86347366712E+02  0.00000000000E+00 0.  1.
</event>
<event>
 7    1  0.4274778E-006  0.1150521E+03  0.7561462E-02  0.1251490E+00
         -2   -1    0    0    0  501 -0.00000000000E+00  0.00000000000E+00  0.32274608912E+02  0.32274608912E+02  0.00000000000E+00 0. -1.
          2   -1    0    0  501    0  0.00000000000E+00 -0.00000000000E+00 -0.50086962218E+03  0.50086962218E+03  0.00000000000E+00 0.  1.
         23    2    1    2    0    0 -0.39090684582E+02 -0.51880606417E+02 -0.23058546774E+03  0.25652922339E+03  0.91749144820E+02 0.  0.
          5    1    1    2  502    0  0.79594607138E+02  0.97104371320E+01 -0.16019077179E+03  0.17918747122E+03  0.41800000000E+01 0.  1.
         -5    1    1    2    0  502 -0.40503922556E+02  0.42170169285E+02 -0.77818773734E+02  0.97427536485E+02  0.41800000000E+01 0.  1.
        -11    1    3    3    0    0 -0.50892955384E+02 -0.58595376286E+02 -0.23021507388E+03  0.24294544917E+03  0.00000000000E+00 0.  1.
         11    1    3    3    0    0  0.11802270802E+02  0.67147698688E+01 -0.37039386258E+00  0.13583774221E+02  0.00000000000E+00 0. -1.
</event>
<event>
 7    1  0.4274778E-006  0.1272350E+03  0.7561462E-02  0.1231617E+00
          1   -1    0    0  501    0  0.00000000000E+00  0.00000000000E+00  0.40595836270E+03  0.40595836270E+03  0.00000000000E+00 0. -1.
         -1   -1    0    0    0  501 -0.00000000000E+00 -0.00000000000E+00 -0.69595301189E+02  0.69595301189E+02  0.00000000000E+00 0.  1.
         23    2    1    2    0    0 -0.81313807320E+02 -0.63730699214E+02  0.26607220818E+03  0.29874440739E+03  0.88205803090E+02 0.  0.
          5    1    1    2  502    0  0.85242420825E+02  0.22472898916E+02 -0.74956571113E+01  0.88571771854E+02  0.41800000000E+01 0.  1.
         -5    1    1    2    0  502 -0.39286135049E+01  0.41257800298E+02  0.77786510447E+02  0.88237484648E+02  0.41800000000E+01 0.  1.
        -11    1    3    3    0    0 -0.92807292212E+02 -0.64535098620E+02  0.26380263762E+03  0.28700140080E+03  0.00000000000E+00 0. -1.
         11    1    3    3    0    0  0.11493484892E+02  0.80439940665E+00  0.22695705556E+01  0.11743006595E+02  0.00000000000E+00 0.  1.
</event>
<event>
 7    1  0.4274778E-006  0.1295499E+03  0.7561462E-02  0.1228125E+00
          1   -1    0    0  501    0  0.00000000000E+00  0.00000000000E+00  0.77547791114E+02  0.77547791114E+02  0.00000000000E+00 0.  1.
         -1   -1    0    0    0  501 -0.00000000000E+00 -0.00000000000E+00 -0.23121845523E+03  0.23121845523E+03  0.00000000000E+00 0. -1.
         23    2    1    2    0    0 -0.34859562625E+02  0.69177054736E+02 -0.73240155152E+02  0.14108142400E+03  0.92407758677E+02 0.  0.
          5    1    1    2  502    0 -0.34031335080E+02 -0.68117953240E+02 -0.55406285423E+02  0.94263015999E+02  0.41800000000E+01 0. -1.
         -5    1    1    2    0  502  0.68890897704E+02 -0.10591014955E+01 -0.25024223541E+02  0.73421806341E+02  0.41800000000E+01 0. -1.
        -11    1    3    3    0    0  0.24860256199E+02  0.40604538557E+02 -0.54311815102E+02  0.72225578222E+02  0.00000000000E+00 0.  1.
         11    1    3    3    0    0 -0.59719818824E+02  0.28572516178E+02 -0.18928340049E+02  0.68855845781E+02  0.00000000000E+00 0. -1.
</event>
<event>
 7    1  0.4274778E-006  0.1260917E+03  0.7561462E-02  0.1233373E+00
         -2   -1    0    0    0  501 -0.00000000000E+00  0.00000000000E+00  0.48183876191E+02  0.48183876191E+02  0.00000000000E+00 0.  1.
          2   -1    0    0  501    0  0.00000000000E+00 -0.00000000000E+00 -0.45921200413E+03  0.45921200413E+03  0.00000000000E+00 0. -1.
         23    2    1    2    0    0 -0.13187312390E+02 -0.14427435214E+02 -0.23778398450E+03  0.25569978058E+03  0.91973357070E+02 0.  0.
          5    1    1    2  502    0  0.81415911222E+02  0.42735164875E+02 -0.14651696426E+03  0.17303045435E+03  0.41800000000E+01 0. -1.
         -5    1    1    2    0  502 -0.68228598832E+02 -0.28307729661E+02 -0.26727179179E+02  0.78665645386E+02  0.41800000000E+01 0.  1.
        -11    1    3    3    0    0  0.34979144170E+02 -0.14807545446E+02 -0.56176277380E+02  0.67812816409E+02  0.00000000000E+00 0. -1.
         11    1    3    3    0    0 -0.48166456561E+02  0.38011023205E+00 -0.18160770712E+03  0.18788696417E+03  0.00000000000E+00 0.  1.
</event>
<event>
 6    1  0.4274778E-006  0.9362299E+02  0.7561462E-02  0.1294308E+00
         -2   -1    0    0    0  501 -0.00000000000E+00  0.00000000000E+00  0.94006934804E+02  0.94006934804E+02  0.00000000000E+00 0.  1.
          2   -1    0    0  501    0  0.00000000000E+00 -0.00000000000E+00 -0.11465219296E+03  0.11465219296E+03  0.00000000000E+00 0. -1.
          5    1    1    2  502    0  0.22940912781E+02 -0.63748187839E+02  0.11313646850E+02  0.68815608237E+02  0.41800000000E+01 0.  1.
         -5    1    1    2    0  502 -0.60467033583E+02  0.28374979813E+02 -0.42939812539E+00  0.66925767925E+02  0.41800000000E+01 0.  1.
        -11    1    1    2    0    0  0.28150838421E+02  0.31641883059E+02 -0.27732990082E+01  0.42442545337E+02  0.00000000000E+00 0.  1.
         11    1    1    2    0    0  0.93752823811E+01  0.37313249668E+01 -0.28756207872E+02  0.30475206266E+02  0.00000000000E+00 0. -1.
</event>
<event>
 7    1  0.4274778E-006  0.9764414E+02  0.7561462E-02  0.1285329E+00
          2   -1    0    0  501    0  0.00000000000E+00  0.00000000000E+00  0.26310734045E+03  0.26310734045E+03  0.00000000000E+00 0. -1.
         -2   -1    0    0    0  501 -0.00000000000E+00 -0.00000000000E+00 -0.62224217476E+02  0.62224217476E+02  0.00000000000E+00 0.  1.
         23    2    1    2    0    0 -0.72082353228E+01  0.30493589758E+02  0.16854659173E+03  0.19239053756E+03  0.87317510781E+02 0.  0.
          5    1    1    2  502    0  0.54927874369E+02 -0.12438242694E+02  0.53270760709E+02  0.77633933370E+02  0.41800000000E+01 0. -1.
         -5    1    1    2    0  502 -0.47719639046E+02 -0.18055347064E+02 -0.20934229462E+02  0.55307086991E+02  0.41800000000E+01 0. -1.
        -11    1    3    3    0    0  0.52577014675E+01 -0.27656294950E+02  0.87140911743E+02  0.91575392844E+02  0.00000000000E+00 0. -1.
         11    1    3    3    0    0 -0.12465936790E+02  0.58149884707E+02  0.81405679983E+02  0.10081514472E+03  0.00000000000E+00 0.  1.
</event>
<event>
 7    1  0.4274778E-006  0.1120887E+03  0.7561462E-02  0.1256750E+00
          2   -1    0    0  501    0  0.00000000000E+00  0.00000000000E+00  0.28648550855E+03  0.28648550855E+03  0.00000000000E+00 0. -1.
         -2   -1    0    0    0  501 -0.00000000000E+00 -0.00000000000E+00 -0.52504958154E+02  0.52504958154E+02  0.00000000000E+00 0.  1.
         23    2    1    2    0    0  0.52474918118E+02 -0.18471365506E+02  0.98723427267E+02  0.14652450901E+03  0.92888687551E+02 0.  0.
          5    1    1    2  502    0  0.39517198380E+02  0.99445925842E+01  0.22851904087E+02  0.46906138296E+02  0.41800000000E+01 0. -1.
         -5    1    1    2    0  502 -0.91992116498E+02  0.85267729216E+01  0.11240521904E+03  0.14555981939E+03  0.41800000000E+01 0. -1.
        -11    1    3    3    0    0 -0.13514837851E+02 -0.20682503534E+02  0.70526627193E+02  0.74728989943E+02  0.00000000000E+00 0. -1.
         11    1    3    3    0    0  0.65989755969E+02  0.22111380283E+01  0.28196800073E+02  0.71795519070E+02  0.00000000000E+00 0.  1.
</event>
<event>
 7    1  0.4274778E-006  0.1240506E+03  0.7561462E-02  0.1236561E+00
          3   -1    0    0  501    0  0.00000000000E+00  0.00000000000E+00  0.23838302808E+03  0.23838302808E+03  0.00000000000E+00 0. -1.
         -3   -1    0    0    0  501 -0.00000000000E+00 -0.00000000000E+00 -0.87100048351E+02  0.87100048351E+02  0.00000000000E+00 0.  1.
         23    2    1    2    0    0 -0.72334862283E+02 -0.22216042000E+02  0.13193596621E+03  0.17801312223E+03  0.92496960389E+02 0.  0.
          5    1    1    2  502    0  0.10721476287E+03  0.24071240363E+02  0.69929612076E+01  0.11018531615E+03  0.41800000000E+01 0. -1.
         -5    1    1    2    0  502 -0.34879900586E+02 -0.18551983633E+01  0.12354052307E+02  0.37284638047E+02  0.41800000000E+01 0. -1.
        -11    1    3    3    0    0 -0.42813098813E+02 -0.47602882710E+02  0.33719126321E+02  0.72360039747E+02  0.00000000000E+00 0.  1.
         11    1    3    3    0    0 -0.29521763470E+02  0.25386840710E+02  0.98216839889E+02  0.10565308248E+03  0.00000000000E+00 0. -1.
</event>
<event>
 7    1  0.4274778E-006  0.9368198E+02  0.7561462E-02  0.1294172E+00
         -2   -1    0    0    0  501 -0.00000000000E+00  0.00000000000E+00  0.38993724757E+02  0.38993724757E+02  0.00000000000E+00 0.  1.
          2   -1    0    0  501    0  0.00000000000E+00 -0.00000000000E+00 -0.42592176893E+03  0.42592176893E+03  0.00000000000E+00 0. -1.
         23    2    1    2    0    0  0.48808476133E+02  0.33111885013E+01 -0.25626214999E+03  0.27752708377E+03  0.94645451020E+02 0.  0.
          5    1    1    2  502    0 -0.22633299518E+02  0.30334876370E+02 -0.13867948780E+03  0.14381218205E+03  0.41800000000E+01 0.  1.
         -5    1    1    2    0  502 -0.26175176615E+02 -0.33646064871E+02  0.80135936105E+01  0.43576227862E+02  0.41800000000E+01 0.  1.
        -11    1    3    3    0    0  0.55344730198E+02 -0.36377416315E+02 -0.15390581800E+03  0.16755105608E+03  0.00000000000E+00 0.  1.
         11    1    3    3    0    0 -0.65362540646E+01  0.39688604816E+02 -0.10235633199E+03  0.10997602770E+03  0.00000000000E+00 0. -1.
</event>
<event>
 7    1  0.4274778E-006  0.1424952E+03  0.7561462E-02  0.1210010E+00
         -2   -1    0    0    0  501 -0.00000000000E+00  0.00000000000E+00  0.90638304428E+02  0.90638304428E+02  0.00000000000E+00 0.  1.
          2   -1    0    0  501    0  0.00000000000E+00 -0.00000000000E+00 -0.34168925835E+03  0.34168925835E+03  0.00000000000E+00 0. -1.
         23    2    1    2    0    0  0.67422492091E+02  0.96993141375E+02 -0.20771294224E+03  0.25490223512E+03  0.88752584062E+02 0.  0.
          5    1    1    2  502    0 -0.69990907341E+02 -0.30815604076E+01  0.73980659747E+01  0.70572139723E+02  0.41800000000E+01 0. -1.
         -5    1    1    2    0  502  0.25684152500E+01 -0.93911580968E+02 -0.50736077650E+02  0.10685318794E+03  0.41800000000E+01 0. -1.
        -11    1    3    3    0    0  0.17571655955E+02  0.46954724752E+02 -0.16479625470E+03  0.17225363518E+03  0.00000000000E+00 0. -1.
         11    1    3    3    0    0  0.49850836136E+02  0.50038416623E+02 -0.42916687545E+02  0.82648599936E+02  0.00000000000E+00 0.  1.
</event>
<event>
 6    1  0.4274778E-006  0.2251298E+03  0.7561462E-02  0.1130115E+00
         -2   -1    0    0    0  501 -0.00000000000E+00  0.00000000000E+00  0.10317089141E+03  0.10317089141E+03  0.00000000000E+00 0.  1.
          2   -1    0    0  501    0  0.00000000000E+00 -0.00000000000E+00 -0.70579231489E+03  0.70579231489E+03  0.00000000000E+00 0. -1.
          5    1    1    2  502    0 -0.55921237737E+02 -0.10212675185E+02 -0.45955752018E+02  0.73218079106E+02  0.41800000000E+01 0. -1.
         -5    1    1    2    0  502  0.44150176582E+02  0.21434913359E+02  0.93269247187E+01  0.50131402610E+02  0.41800000000E+01 0.  1.
        -11    1    1    2    0    0  0.46799801349E+01 -0.17750667883E+03 -0.13335890394E+03  0.22207008016E+03  0.00000000000E+00 0.  1.
         11    1    1    2    0    0  0.70910810203E+01  0.16628444065E+03 -0.43263369223E+03  0.46354364443E+03  0.00000000000E+00 0. -1.
</event>
<event>
 7    1  0.4274778E-006  0.9959876E+02  0.7561462E-02  0.1281142E+00
          1   -1    0    0  501    0  0.00000000000E+00  0.00000000000E+00  0.17550665502E+03  0.17550665502E+03  0.00000000000E+00 0. -1.
         -1   -1    0    0    0  501 -0.00000000000E+00 -0.00000000000E+00 -0.98727991868E+02  0.98727991868E+02  0.00000000000E+00 0.  1.
         23    2    1    2    0    0  0.39830531891E+02 -0.36070385264E+02  0.89184481111E+02  0.13752474101E+03  0.89842299361E+02 0.  0.
          5    1    1    2  502    0 -0.55654120937E+02 -0.32775746332E+02  0.77585404427E+00  0.64727931177E+02  0.41800000000E+01 0.  1.
         -5    1    1    2    0  502  0.15823589046E+02  0.68846131595E+02 -0.13181672001E+02  0.71981974707E+02  0.41800000000E+01 0.  1.
        -11    1    3    3    0    0 -0.54432872818E+01 -0.10210240342E+02 -0.16223375400E+02  0.19926773287E+02  0.00000000000E+00 0.  1.
         11    1    3    3    0    0  0.45273819173E+02 -0.25860144922E+02  0.10540785651E+03  0.11759796772E+03  0.00000000000E+00 0. -1.
</event>
<event>
 7    1  0.4274778E-006  0.1138517E+03  0.7561462E-02  0.1253599E+00
         -2   -1    0    0    0  501 -0.00000000000E+00  0.00000000000E+00  0.37994984477E+02  0.37994984477E+02  0.00000000000E+00 0. -1.
          2   -1    0    0  501    0  0.00000000000E+00 -0.00000000000E+00 -0.58871045068E+03  0.58871045068E+03  0.00000000000E+00 0.  1.
         23    2    1    2    0    0 -0.35574812985E+02  0.78626669136E+02 -0.37322295579E+03  0.39304267386E+03  0.87974134449E+02 0.  0.
          5    1    1    2  502    0  0.11836011026E+02 -0.96973796322E+02 -0.17830767062E+03  0.20335954891E+03  0.41800000000E+01 0.  1.
         -5    1    1    2    0  502  0.23738801959E+02  0.18347127186E+02  0.81516021031E+00  0.30303212381E+02  0.41800000000E+01 0.  1.
        -11    1    3    3    0    0 -0.48256678363E+02  0.58443294803E+02 -0.35510129766E+03  0.36309951434E+03  0.00000000000E+00 0.  1.
         11    1    3    3    0    0  0.12681865378E+02  0.20183374333E+02 -0.18121658127E+02  0.29943159523E+02  0.00000000000E+00 0. -1.
</event>
<event>
 7    1  0.4274778E-006  0.1067191E+03  0.7561462E-02  0.1266769E+00
          1   -1    0    0  501    0  0.00000000000E+00  0.00000000000E+00  0.39715384110E+03  0.39715384110E+03  0.00000000000E+00 0. -1.
         -1   -1    0    0    0  501 -0.00000000000E+00 -0.00000000000E+00 -0.12283371292E+03  0.12283371292E+03  0.00000000000E+00 0.  1.
         23    2    1    2    0    0 -0.58885810113E+02 -0.16911887740E+02  0.34560559752E+03  0.36351923897E+03  0.94601572338E+02 0.  0.
          5    1    1    2  502    0  0.73631360678E+02 -0.83945258680E+01 -0.93565159635E+02  0.11943180831E+03  0.41800000000E+01 0.  1.
         -5    1    1    2    0  502 -0.14745550565E+02  0.25306413608E+02  0.22279690301E+02  0.37036506734E+02  0.41800000000E+01 0.  1.
        -11    1    3    3    0    0 -0.22581158800E+02 -0.53507808665E+02  0.14040018476E+03  0.15193816572E+03  0.00000000000E+00 0.  1.
         11    1    3    3    0    0 -0.36304651313E+02  0.36595920925E+02  0.20520541276E+03  0.21158107326E+03  0.00000000000E+00 0. -1.
</event>
<event>
 7    1  0.4274778E-006  0.1505680E+03  0.7561462E-02  0.1199777E+00
         -2   -1    0    0    0  501 -0.00000000000E+00  0.00000000000E+00  0.31040260467E+02  0.31040260467E+02  0.00000000000E+00 0.  1.
          2   -1    0    0  501    0  0.00000000000E+00 -0.00000000000E+00 -0.82779404488E+03  0.82779404488E+03  0.00000000000E+00 0. -1.
         23    2    1    2    0    0  0.23169679646E+01 -0.43281450587E+02 -0.41554201984E+03  0.42805661191E+03  0.93159220915E+02 0.  0.
          5    1    1    2  502    0 -0.82561257201E+02 -0.31738861555E+02 -0.20167636000E+03  0.22026017141E+03  0.41800000000E+01 0. -1.
         -5    1    1    2    0  502  0.80244289236E+02  0.75020312142E+02 -0.17953540457E+03  0.21051752203E+03  0.41800000000E+01 0.  1.
        -11    1    3    3    0    0 -0.19228247785E+02  0.24722588556E+02 -0.11852402061E+03  0.12259231363E+03  0.00000000000E+00 0.  1.
         11    1    3    3    0    0  0.21545215749E+02 -0.68004039143E+02 -0.29701799923E+03  0.30546429828E+03  0.00000000000E+00 0. -1.
</event>
<event>
 7    1  0.4274778E-006  0.1169083E+03  0.7561462E-02  0.1248286E+00
         -2   -1    0    0    0  501 -0.00000000000E+00  0.00000000000E+00  0.68281474876E+02  0.68281474876E+02  0.00000000000E+00 0.  1.
          2   -1    0    0  501    0  0.00000000000E+00 -0.00000000000E+00 -0.62301535125E+03  0.62301535125E+03  0.00000000000E+00 0. -1.
         23    2    1    2    0    0  0.92479852812E+02  0.18237624422E+02 -0.51788109628E+03  0.53412861968E+03  0.90594803157E+02 0.  0.
          5    1    1    2  502    0 -0.91203492920E+02  0.63519759480E+01 -0.70315427819E+02  0.11541298241E+03  0.41800000000E+01 0. -1.
         -5    1    1    2    0  502 -0.12763598927E+01 -0.24589600370E+02  0.33462647728E+02  0.41755224031E+02  0.41800000000E+01 0.  1.
        -11    1    3    3    0    0  0.81986590283E+02  0.41434448126E+02 -0.47847440671E+03  0.48721286144E+03  0.00000000000E+00 0. -1.
         11    1    3    3    0    0  0.10493262529E+02 -0.23196823703E+02 -0.39406689569E+02  0.46915758240E+02  0.00000000000E+00 0.  1.
</event>
<event>
 7    1  0.4274778E-006  0.1335801E+03  0.7561462E-02  0.1222238E+00
          1   -1    0    0  501    0  0.00000000000E+00  0.00000000000E+00  0.45958245532E+02  0.45958245532E+02  0.00000000000E+00 0. -1.
         -1   -1    0    0    0  501 -0.00000000000E+00 -0.00000000000E+00 -0.49697297636E+03  0.49697297636E+03  0.00000000000E+00 0.  1.
         23    2    1    2    0    0  0.93012730684E+02 -0.32146445595E+02 -0.13392470238E+03  0.18813827692E+03  0.88178360726E+02 0.  0.
          5    1    1    2  502    0 -0.12370655424E+03  0.31726888757E+02 -0.24473023820E+03  0.27608018567E+03  0.41800000000E+01 0. -1.
         -5    1    1    2    0  502  0.30693823552E+02  0.41955683877E+00 -0.72359790243E+02  0.78712759297E+02  0.41800000000E+01 0. -1.
        -11    1    3    3    0    0  0.21444173657E+02 -0.29903811609E+02 -0.60059504398E+00  0.36802870091E+02  0.00000000000E+00 0. -1.
         11    1    3    3    0    0  0.71568557027E+02 -0.22426339863E+01 -0.13332410734E+03  0.15133540683E+03  0.00000000000E+00 0.  1.
</event>
<event>
 7    1  0.4274778E-006  0.9792440E+02  0.7561462E-02  0.1284722E+00
         -2   -1    0    0    0  501 -0.00000000000E+00  0.00000000000E+00  0.31403734968E+02  0.31403734968E+02  0.00000000000E+00 0.  1.
          2   -1    0    0  501    0  0.00000000000E+00 -0.00000000000E+00 -0.54175502622E+03  0.54175502622E+03  0.00000000000E+00 0. -1.
         23    2    1    2    0    0 -0.29723145091E+02 -0.27765587615E+02 -0.27010363626E+03  0.28661678102E+03  0.86826330293E+02 0.  0.
          5    1    1    2  502    0  0.46228776196E+02  0.66911894250E+02 -0.22803590369E+03  0.24214075888E+03  0.41800000000E+01 0. -1.
         -5    1    1    2    0  502 -0.16505631105E+02 -0.39146306635E+02 -0.12211751296E+02  0.44401221279E+02  0.41800000000E+01 0.  1.
        -11    1    3    3    0    0 -0.40922262863E+01 -0.42139630759E+02 -0.24293168668E+03  0.24659338837E+03  0.00000000000E+00 0. -1.
         11    1    3    3    0    0 -0.25630918804E+02  0.14374043145E+02 -0.27171949584E+02  0.40023392651E+02  0.00000000000E+00 0.  1.
</event>
<event>
 7    1  0.4274778E-006  0.1603692E+03  0.7561462E-02  0.1188281E+00
          1   -1    0    0  501    0  0.00000000000E+00  0.00000000000E+00  0.76241504273E+03  0.76241504273E+03  0.00000000000E+00 0. -1.
         -1   -1    0    0    0  501 -0.00000000000E+00 -0.00000000000E+00 -0.43159145314E+02  0.43159145314E+02  0.00000000000E+00 0.  1.
         23    2    1    2    0    0  0.84640659896E+02  0.11420765778E+03  0.39955214864E+03  0.43400264795E+03  0.92243962050E+02 0.  0.
          5    1    1    2  502    0 -0.11063606537E+03 -0.91115930318E+02  0.19499760825E+03  0.24204130090E+03  0.41800000000E+01 0.  1.
         -5    1    1    2    0  502  0.25995405475E+02 -0.23091727459E+02  0.12470614052E+03  0.12953023920E+03  0.41800000000E+01 0.  1.
        -11    1    3    3    0    0  0.12332684704E+02  0.21138004707E+02  0.90330495534E+01  0.26086516426E+02  0.00000000000E+00 0.  1.
         11    1    3    3    0    0  0.72307975192E+02  0.93069653070E+02  0.39051909909E+03  0.40791613152E+03  0.00000000000E+00 0. -1.
</event>
<event>
 7    1  0.4274778E-006  0.1044850E+03  0.7561462E-02  0.1271138E+00
         -1   -1    0    0    0  501 -0.00000000000E+00  0.00000000000E+00  0.13450953225E+03  0.13450953225E+03  0.00000000000E+00 0.  1.
          1   -1    0    0  501    0  0.00000000000E+00 -0.00000000000E+00 -0.11428216468E+03  0.11428216468E+03  0.00000000000E+00 0. -1.
         23    2    1    2    0    0  0.60529190083E+02  0.93849987863E+01 -0.10918670202E+02  0.10607262294E+03  0.85908805858E+02 0.  0.
          5    1    1    2  502    0 -0.46884032693E+02 -0.45927789118E+02  0.63837714433E+02  0.91652607813E+02  0.41800000000E+01 0.  1.
         -5    1    1    2    0  502 -0.13645157390E+02  0.36542790332E+02 -0.32691676654E+02  0.51066466178E+02  0.41800000000E+01 0.  1.
        -11    1    3    3    0    0  0.40092833787E+02 -0.36200843990E+02  0.33382454502E+01  0.54120978459E+02  0.00000000000E+00 0.  1.
         11    1    3    3    0    0  0.20436356296E+02  0.45585842776E+02 -0.14256915653E+02  0.51951644480E+02  0.00000000000E+00 0. -1.
</event>
<event>
 7    1  0.4274778E-006  0.8614912E+02  0.7561462E-02  0.1312455E+00
          1   -1    0    0  501    0  0.00000000000E+00  0.00000000000E+00  0.60535115226E+02  0.60535115226E+02  0.00000000000E+00 0. -1.
         -1   -1    0    0    0  501 -0.00000000000E+00 -0.00000000000E+00 -0.23697843269E+03  0.23697843269E+03  0.00000000000E+00 0.  1.
         23    2    1    2    0    0 -0.33417918286E+01  0.35136574453E+02 -0.36410917069E+02  0.10645896143E+03  0.93605604264E+02 0.  0.
          5    1    1    2  502    0 -0.17450069500E+02 -0.49096311150E+02 -0.15361125264E+03  0.16226164683E+03  0.41800000000E+01 0.  1.
         -5    1    1    2    0  502  0.20791861328E+02  0.13959736698E+02  0.13578852242E+02  0.28792939662E+02  0.41800000000E+01 0.  1.
        -11    1    3    3    0    0 -0.31150946779E+01 -0.29667827492E+02  0.39832478939E+01  0.30095681862E+02  0.00000000000E+00 0. -1.
         11    1    3    3    0    0 -0.22669715071E+00  0.64804401945E+02 -0.40394164963E+02  0.76363279566E+02  0.00000000000E+00 0.  1.
</event>
<event>
 7    1  0.4274778E-006  0.1428359E+03  0.7561462E-02  0.1209563E+00
         -2   -1    0    0    0  501 -0.00000000000E+00  0.00000000000E+00  0.38339473082E+02  0.38339473082E+02  0.00000000000E+00 0.  1.
          2   -1    0    0  501    0  0.00000000000E+00 -0.00000000000E+00 -0.54224133247E+03  0.54224133247E+03  0.00000000000E+00 0. -1.
         23    2    1    2    0    0  0.81520500133E+02 -0.40259491447E+02 -0.27061550475E+03  0.30069518032E+03  0.94437394389E+02 0.  0.
          5    1    1    2  502    0 -0.11272788293E+03  0.14111262705E+02 -0.17382663250E+03  0.20770140561E+03  0.41800000000E+01 0.  1.
         -5    1    1    2    0  502  0.31207382794E+02  0.26148228742E+02 -0.59459722134E+02  0.72184219629E+02  0.41800000000E+01 0.  1.
        -11    1    3    3    0    0  0.28504119581E+02  0.31083372106E+02 -0.90200236289E+02  0.99572804927E+02  0.00000000000E+00 0. -1.
         11    1    3    3    0    0  0.53016380552E+02 -0.71342863553E+02 -0.18041526846E+03  0.20112237539E+03  0.00000000000E+00 0.  1.
</event>
<event>
 7    1  0.4274778E-006  0.1068080E+03  0.7561462E-02  0.1266598E+00
          2   -1    0    0  501    0  0.00000000000E+00  0.00000000000E+00  0.19586184690E+03  0.19586184690E+03  0.00000000000E+00 0. -1.
         -2   -1    0    0    0  501 -0.00000000000E+00 -0.00000000000E+00 -0.10400597614E+03  0.10400597614E+03  0.00000000000E+00 0.  1.
         23    2    1    2    0    0  0.68036735588E+02  0.16052568206E+02  0.10549113383E+03  0.15594094368E+03  0.91118144532E+02 0.  0.
          5    1    1    2  502    0 -0.81419456408E+02 -0.51227514482E+02  0.13658600282E+02  0.97249246184E+02  0.41800000000E+01 0.  1.
         -5    1    1    2    0  502  0.13382720820E+02  0.35174946275E+02 -0.27293863351E+02  0.46677633173E+02  0.41800000000E+01 0.  1.
        -11    1    3    3    0    0  0.16042679340E+02  0.21894952715E+02 -0.10177978503E+02  0.28988752323E+02  0.00000000000E+00 0.  1.
         11    1    3    3    0    0  0.51994056248E+02 -0.58423845088E+01  0.11566911234E+03  0.12695219136E+03  0.00000000000E+00 0. -1.
</event>
<event>
 7    1  0.4274778E-006  0.1042386E+03  0.7561462E-02  0.1271627E+00
          1   -1    0    0  501    0  0.00000000000E+00  0.00000000000E+00  0.22942398072E+03  0.22942398072E+03  0.00000000000E+00 0. -1.
         -1   -1    0    0    0  501 -0.00000000000E+00 -0.00000000000E+00 -0.82154338420E+02  0.82154338420E+02  0.00000000000E+00 0.  1.
         23    2    1    2    0    0 -0.58088420277E+02  0.33813739636E+02  0.12470497672E+03  0.16779184147E+03  0.89917391458E+02 0.  0.
          5    1    1    2  502    0  0.56120116713E+01  0.31876051568E+02  0.46003421121E+02  0.56403585821E+02  0.41800000000E+01 0.  1.
         -5    1    1    2    0  502  0.52476408606E+02 -0.65689791203E+02 -0.23438755532E+02  0.87382891858E+02  0.41800000000E+01 0.  1.
        -11    1    3    3    0    0 -0.39639313772E+02 -0.12698570034E+02  0.10235369672E+02  0.42863640414E+02  0.00000000000E+00 0.  1.
         11    1    3    3    0    0 -0.18449106506E+02  0.46512309670E+02  0.11446960704E+03  0.12492820105E+03  0.00000000000E+00 0. -1.
</event>
<event>
 7    1  0.4274778E-006  0.1296813E+03  0.7561462E-02  0.1227929E+00
          1   -1    0    0  501    0  0.00000000000E+00  0.00000000000E+00  0.72533135144E+03  0.72533135144E+03  0.00000000000E+00 0. -1.
         -1   -1    0    0    0  501 -0.00000000000E+00 -0.00000000000E+00 -0.30879872122E+02  0.30879872122E+02  0.00000000000E+00 0.  1.
         23    2    1    2    0    0 -0.91981419633E+02  0.14505681683E+02  0.44500678489E+03  0.46203194379E+03  0.82289015853E+02 0.  0.
          5    1    1    2  502    0  0.46964495206E+02  0.41845890148E+02  0.19136733121E+03  0.20148367226E+03  0.41800000000E+01 0.  1.
         -5    1    1    2    0  502  0.45016924428E+02 -0.56351571831E+02  0.58077363215E+02  0.92695607505E+02  0.41800000000E+01 0.  1.
        -11    1    3    3    0    0 -0.20632637089E+02  0.42648068763E+02  0.15759150732E+03  0.16455894586E+03  0.00000000000E+00 0.  1.
         11    1    3    3    0    0 -0.71348782544E+02 -0.28142387080E+02  0.28741527757E+03  0.29747299793E+03  0.00000000000E+00 0. -1.
</event>
<event>
 7    1  0.4274778E-006  0.1625716E+03  0.7561462E-02  0.1185824E+00
          1   -1    0    0  501    0  0.00000000000E+00  0.00000000000E+00  0.56572190567E+03  0.56572190567E+03  0.00000000000E+00 0. -1.
         -1   -1    0    0    0  501 -0.00000000000E+00 -0.00000000000E+00 -0.53527835484E+02  0.53527835484E+02  0.00000000000E+00 0.  1.
         23    2    1    2    0    0  0.83020162553E+02  0.10705824412E+03  0.24107789759E+03  0.29137250483E+03  0.91790897343E+02 0.  0.
          5    1    1    2  502    0 -0.10581822441E+03 -0.11797037502E+03  0.22734210341E+03  0.27715773556E+03  0.41800000000E+01 0. -1.
         -5    1    1    2    0  502  0.22798061859E+02  0.10912130891E+02  0.43774069186E+02  0.50719500769E+02  0.41800000000E+01 0. -1.
        -11    1    3    3    0    0  0.41002319294E+02  0.22983540811E+02  0.16155743901E+03  0.16825646922E+03  0.00000000000E+00 0. -1.
         11    1    3    3    0    0  0.42017843259E+02  0.84074703313E+02  0.79520458583E+02  0.12311603560E+03  0.00000000000E+00 0.  1.
</event>
<event>
 7    1  0.4274778E-006  0.1019511E+03  0.7561462E-02  0.1276246E+00
         -2   -1    0    0    0  501 -0.00000000000E+00  0.00000000000E+00  0.48220568374E+03  0.48220568374E+03  0.00000000000E+00 0.  1.
          2   -1    0    0  501    0  0.00000000000E+00 -0.00000000000E+00 -0.33015315835E+02  0.33015315835E+02  0.00000000000E+00 0. -1.
         23    2    1    2    0    0 -0.25294300878E+02  0.30504598278E+02  0.12290856382E+03  0.16354069095E+03  0.10034296369E+03 0.  0.
          5    1    1    2  502    0 -0.27603033312E+02 -0.41195209866E+02  0.51488426962E+02  0.71606586812E+02  0.41800000000E+01 0. -1.
         -5    1    1    2    0  502  0.52897334189E+02  0.10690611588E+02  0.27479337712E+03  0.28007372181E+03  0.41800000000E+01 0. -1.
        -11    1    3    3    0    0 -0.99781548422E+01  0.63158819182E+02  0.46547871992E+02  0.79090482370E+02  0.00000000000E+00 0. -1.
         11    1    3    3    0    0 -0.15316146035E+02 -0.32654220904E+02  0.76360691829E+02  0.84450208578E+02  0.00000000000E+00 0.  1.
</event>
<event>
 7    1  0.4274778E-006  0.8737521E+02  0.7561462E-02  0.1309335E+00
          1   -1    0    0  501    0  0.00000000000E+00  0.00000000000E+00  0.90249941224E+02  0.90249941224E+02  0.00000000000E+00 0. -1.
         -1   -1    0    0    0  501 -0.00000000000E+00 -0.00000000000E+00 -0.17047007890E+03  0.17047007890E+03  0.00000000000E+00 0.  1.
         23    2    1    2    0    0  0.51902347188E+02 -0.86392561334E+01 -0.25890462451E+01  0.10437891718E+03  0.90109737547E+02 0.  0.
          5    1    1    2  502    0 -0.13370683766E+02  0.54336721993E+02  0.26356612540E+01  0.56175382968E+02  0.41800000000E+01 0.  1.
         -5    1    1    2    0  502 -0.38531663422E+02 -0.45697465860E+02 -0.80266752685E+02  0.10016571998E+03  0.41800000000E+01 0.  1.
        -11    1    3    3    0    0  0.12830030034E+02  0.91769661433E+01  0.40549858527E+02  0.43509969028E+02  0.00000000000E+00 0. -1.
         11    1    3    3    0    0  0.39072317154E+02 -0.17816222277E+02 -0.43138904772E+02  0.60868948150E+02  0.00000000000E+00 0.  1.
</event>
<event>
 7    1  0.4274778E-006  0.1811263E+03  0.7561462E-02  0.1166717E+00
          1   -1    0    0  501    0  0.00000000000E+00  0.00000000000E+00  0.14238651867E+03  0.14238651867E+03  0.00000000000E+00 0. -1.
         -1   -1    0    0    0  501 -0.00000000000E+00 -0.00000000000E+00 -0.28056100386E+03  0.28056100386E+03  0.00000000000E+00 0.  1.
         23    2    1    2    0    0  0.15799604224E+03 -0.21581841465E+02 -0.11082029665E+02  0.18372277478E+03  0.90568876249E+02 0.  0.
          5    1    1    2  502    0 -0.40206403545E+02 -0.50301254808E+02 -0.43762349042E+02  0.77970422052E+02  0.41800000000E+01 0.  1.
         -5    1    1    2    0  502 -0.11778963869E+03  0.71883096274E+02 -0.83330106482E+02  0.16125432571E+03  0.41800000000E+01 0.  1.
        -11    1    3    3    0    0  0.12714153908E+03 -0.20580325827E+02 -0.46322314201E+02  0.13687321711E+03  0.00000000000E+00 0.  1.
         11    1    3    3    0    0  0.30854503165E+02 -0.10015156379E+01  0.35240284536E+02  0.46849557664E+02  0.00000000000E+00 0. -1.
</event>
<event>
 7    1  0.4274778E-006  0.1311535E+03  0.7561462E-02  0.1225754E+00
          1   -1    0    0  501    0  0.00000000000E+00  0.00000000000E+00  0.56306034484E+02  0.56306034484E+02  0.00000000000E+00 0. -1.
         -1   -1    0    0    0  501 -0.00000000000E+00 -0.00000000000E+00 -0.39887103524E+03  0.39887103524E+03  0.00000000000E+00 0.  1.
         23    2    1    2    0    0  0.50002255163E+02  0.79630174526E+02 -0.92206786582E+02  0.15993467870E+03  0.90751417307E+02 0.  0.
          5    1    1    2  502    0  0.37093364739E+02 -0.32142374733E+02 -0.43199824885E+02  0.65519060060E+02  0.41800000000E+01 0.  1.
         -5    1    1    2    0  502 -0.87095619902E+02 -0.47487799793E+02 -0.20715838929E+03  0.22972333096E+03  0.41800000000E+01 0.  1.
        -11    1    3    3    0    0 -0.14275694293E+02  0.27555286825E+02 -0.66372686655E+02  0.73269521722E+02  0.00000000000E+00 0.  1.
         11    1    3    3    0    0  0.64277949456E+02  0.52074887700E+02 -0.25834099927E+02  0.86665156979E+02  0.00000000000E+00 0. -1.
</event>
<event>
 7    1  0.4274778E-006  0.6749043E+02  0.7561462E-02  0.1368841E+00
         -2   -1    0    0    0  501 -0.00000000000E+00  0.00000000000E+00  0.76843144749E+02  0.76843144749E+02  0.00000000000E+00 0.  1.
          2   -1    0    0  501    0  0.00000000000E+00 -0.00000000000E+00 -0.15349915253E+03  0.15349915253E+03  0.00000000000E+00 0. -1.
         23    2    1    2    0    0  0.12138383432E+02  0.67706904481E+01 -0.51809364206E+02  0.10205210334E+03  0.86817273480E+02 0.  0.
          5    1    1    2  502    0 -0.53019040550E+01  0.31857102754E+02 -0.64562986475E+02  0.72310696339E+02  0.41800000000E+01 0.  1.
         -5    1    1    2    0  502 -0.68364793768E+01 -0.38627793202E+02  0.39716342903E+02  0.55979497600E+02  0.41800000000E+01 0.  1.
        -11    1    3    3    0    0  0.18089503326E+02 -0.24879791631E+02  0.10008625078E+02  0.32348210741E+02  0.00000000000E+00 0.  1.
         11    1    3    3    0    0 -0.59511198944E+01  0.31650482079E+02 -0.61817989284E+02  0.69703892596E+02  0.00000000000E+00 0. -1.
</event>
<event>
 7    1  0.4274778E-006  0.1116679E+03  0.7561462E-02  0.1257512E+00
          2   -1    0    0  501    0  0.00000000000E+00  0.00000000000E+00  0.11131710867E+03  0.11131710867E+03  0.00000000000E+00 0.  1.
         -2   -1    0    0    0  501 -0.00000000000E+00 -0.00000000000E+00 -0.16394945621E+03  0.16394945621E+03  0.00000000000E+00 0. -1.
         23    2    1    2    0    0 -0.13266515032E+02 -0.63481494475E+02  0.23733806188E+02  0.11560313209E+03  0.92708629751E+02 0.  0.
          5    1    1    2  502    0  0.65904043883E+02  0.14167876454E+02 -0.30678871857E+02  0.74180437460E+02  0.41800000000E+01 0.  1.
         -5    1    1    2    0  502 -0.52637528851E+02  0.49313618021E+02 -0.45687281869E+02  0.85482995329E+02  0.41800000000E+01 0.  1.
        -11    1    3    3    0    0  0.18153029096E+02 -0.81098814087E+01 -0.27464452019E+02  0.33905733535E+02  0.00000000000E+00 0. -1.
         11    1    3    3    0    0 -0.31419544128E+02 -0.55371613066E+02  0.51198258208E+02  0.81697398553E+02  0.00000000000E+00 0.  1.
</event>
<event>
 7    1  0.4274778E-006  0.2657629E+03  0.7561462E-02  0.1103729E+00
         -1   -1    0    0    0  501 -0.00000000000E+00  0.00000000000E+00  0.59351257194E+02  0.59351257194E+02  0.00000000000E+00 0.  1.
          1   -1    0    0  501    0  0.00000000000E+00 -0.00000000000E+00 -0.18782032183E+04  0.18782032183E+04  0.00000000000E+00 0. -1.
         23    2    1    2    0    0 -0.14797451883E+03  0.21542313351E+03 -0.14070781221E+04  0.14340565209E+04  0.91354687063E+02 0.  0.
          5    1    1    2  502    0  0.15202637136E+03 -0.19537699773E+03 -0.29618986188E+03  0.38604416265E+03  0.41800000000E+01 0.  1.
         -5    1    1    2    0  502 -0.40518525315E+01 -0.20046135780E+02 -0.11558397711E+03  0.11745379190E+03  0.41800000000E+01 0.  1.
        -11    1    3    3    0    0 -0.28426750022E+01  0.16935250237E+02 -0.25340070160E+02  0.30610499138E+02  0.00000000000E+00 0.  1.
         11    1    3    3    0    0 -0.14513184382E+03  0.19848788328E+03 -0.13817380519E+04  0.14034460218E+04  0.00000000000E+00 0. -1.
</event>
<event>
 7    1  0.4274778E-006  0.1569525E+03  0.7561462E-02  0.1192181E+00
          2   -1    0    0  501    0  0.00000000000E+00  0.00000000000E+00  0.65460254511E+03  0.65460254511E+03  0.00000000000E+00 0. -1.
         -2   -1    0    0    0  501 -0.00000000000E+00 -0.00000000000E+00 -0.52525122432E+02  0.52525122432E+02  0.00000000000E+00 0.  1.
         23    2    1    2    0    0 -0.11824851618E+03 -0.23396372511E+02  0.45531039808E+03  0.47970997584E+03  0.91016484757E+02 0.  0.
          5    1    1    2  502    0  0.12586085729E+03  0.56850176011E+02  0.12662231081E+03  0.18741285950E+03  0.41800000000E+01 0. -1.
         -5    1    1    2    0  502 -0.76123411147E+01 -0.33453803500E+02  0.20144713781E+02  0.40004832198E+02  0.41800000000E+01 0. -1.
        -11    1    3    3    0    0 -0.36298321415E+02 -0.43638080140E+02  0.27253796097E+03  0.27838604553E+03  0.00000000000E+00 0. -1.
         11    1    3    3    0    0 -0.81950194760E+02  0.20241707629E+02  0.18277243711E+03  0.20132393031E+03  0.00000000000E+00 0.  1.
</event>
<event>
 7    1  0.4274778E-006  0.1270307E+03  0.7561462E-02  0.1231929E+00
          1   -1    0    0  501    0  0.00000000000E+00  0.00000000000E+00  0.69498096724E+02  0.69498096724E+02  0.00000000000E+00 0. -1.
         -1   -1    0    0    0  501 -0.00000000000E+00 -0.00000000000E+00 -0.40345570286E+03  0.40345570286E+03  0.00000000000E+00 0.  1.
         23    2    1    2    0    0  0.60740121728E+02  0.94572525726E+02 -0.69638598943E+02  0.15967185993E+03  0.89511135520E+02 0.  0.
          5    1    1    2  502    0 -0.54299033575E+02 -0.74250278599E+02 -0.64830923850E+02  0.11261443072E+03  0.41800000000E+01 0. -1.
         -5    1    1    2    0  502 -0.64410881528E+01 -0.20322247126E+02 -0.19948808334E+03  0.20066750893E+03  0.41800000000E+01 0. -1.
        -11    1    3    3    0    0 -0.16246081064E+02 -0.24179306090E+01 -0.20931210057E+02  0.26606335576E+02  0.00000000000E+00 0.  1.
         11    1    3    3    0    0  0.76986202791E+02  0.96990456335E+02 -0.48707388886E+02  0.13306552436E+03  0.00000000000E+00 0. -1.
</event>
<event>
 7    1  0.4274778E-006  0.9802517E+02  0.7561462E-02  0.1284504E+00
         -1   -1    0    0    0  501 -0.00000000000E+00  0.00000000000E+00  0.16319283284E+03  0.16319283284E+03  0.00000000000E+00 0.  1.
          1   -1    0    0  501    0  0.00000000000E+00 -0.00000000000E+00 -0.10115087769E+03  0.10115087769E+03  0.00000000000E+00 0. -1.
         23    2    1    2    0    0 -0.59706175366E+02  0.41629772625E+02  0.26001436083E+02  0.11519816942E+03  0.85420595963E+02 0.  0.
          5    1    1    2  502    0 -0.11252676454E+02 -0.29939062228E+02 -0.35260844753E+02  0.47788803576E+02  0.41800000000E+01 0.  1.
         -5    1    1    2    0  502  0.70958851820E+02 -0.11690710397E+02  0.71301363815E+02  0.10135673753E+03  0.41800000000E+01 0.  1.
        -11    1    3    3    0    0 -0.35615671107E+02 -0.80776000107E+01  0.43926615444E+02  0.57125048750E+02  0.00000000000E+00 0.  1.
         11    1    3    3    0    0 -0.24090504259E+02  0.49707372636E+02 -0.17925179360E+02  0.58073120675E+02  0.00000000000E+00 0. -1.
</event>
<event>
 7    1  0.4274778E-006  0.1379564E+03  0.7561462E-02  0.1216106E+00
          2   -1    0    0  501    0  0.00000000000E+00  0.00000000000E+00  0.68688119797E+02  0.68688119797E+02  0.00000000000E+00 0. -1.
         -2   -1    0    0    0  501 -0.00000000000E+00 -0.00000000000E+00 -0.30129603956E+03  0.30129603956E+03  0.00000000000E+00 0.  1.
         23    2    1    2    0    0  0.36043068446E+02 -0.85224903135E+02 -0.92573465540E+02  0.16065154191E+03  0.93148722483E+02 0.  0.
          5    1    1    2  502    0 -0.74950951205E+02  0.37597578835E+02 -0.11594791220E+03  0.14315241446E+03  0.41800000000E+01 0. -1.
         -5    1    1    2    0  502  0.38907882759E+02  0.47627324300E+02 -0.24086542022E+02  0.66180202987E+02  0.41800000000E+01 0. -1.
        -11    1    3    3    0    0  0.66259582218E+02 -0.70331134246E+02 -0.59699587310E+02  0.11358187093E+03  0.00000000000E+00 0.  1.
         11    1    3    3    0    0 -0.30216513773E+02 -0.14893768889E+02 -0.32873878230E+02  0.47069670980E+02  0.00000000000E+00 0. -1.
</event>
<event>
 7    1  0.4274778E-006  0.1490942E+03  0.7561462E-02  0.1201590E+00
          1   -1    0    0  501    0  0.00000000000E+00  0.00000000000E+00  0.34599069689E+03  0.34599069689E+03  0.00000000000E+00 0. -1.
         -1   -1    0    0    0  501 -0.00000000000E+00 -0.00000000000E+00 -0.76746233811E+02  0.76746233811E+02  0.00000000000E+00 0.  1.
         23    2    1    2    0    0 -0.70973012221E+02 -0.91261851616E+02  0.17399299028E+03  0.22757815267E+03  0.90290425196E+02 0.  0.
          5    1    1    2  502    0  0.91569993568E+01 -0.21132328657E+02 -0.13427812485E+02  0.26985264494E+02  0.41800000000E+01 0. -1.
         -5    1    1    2    0  502  0.61816012864E+02  0.11239418027E+03  0.10867928528E+03  0.16817351354E+03  0.41800000000E+01 0. -1.
        -11    1    3    3    0    0 -0.86139349925E+02 -0.97447960667E+02  0.15010793889E+03  0.19861642923E+03  0.00000000000E+00 0. -1.
         11    1    3    3    0    0  0.15166337704E+02  0.61861090512E+01  0.23885051390E+02  0.28961723437E+02  0.00000000000E+00 0.  1.
</event>
<event>
 7    1  0.4274778E-006  0.1124406E+03  0.7561462E-02  0.1256116E+00
          1   -1    0    0  501    0  0.00000000000E+00  0.00000000000E+00  0.89762076310E+02  0.89762076310E+02  0.00000000000E+00 0. -1.
         -1   -1    0    0    0  501 -0.00000000000E+00 -0.00000000000E+00 -0.21944113147E+03  0.21944113147E+03  0.00000000000E+00 0.  1.
         23    2    1    2    0    0  0.73831185208E+02  0.44534838101E+02 -0.59020317062E+02  0.14165051356E+03  0.95640339039E+02 0.  0.
          5    1    1    2  502    0 -0.98842373146E+02 -0.43894022751E+02 -0.18840224341E+02  0.10985866564E+03  0.41800000000E+01 0. -1.
         -5    1    1    2    0  502  0.25011187938E+02 -0.64081534994E+00 -0.51818513755E+02  0.57694028583E+02  0.41800000000E+01 0. -1.
        -11    1    3    3    0    0  0.45139347307E+02  0.97277436234E+01  0.20268678826E+02  0.50428256094E+02  0.00000000000E+00 0. -1.
         11    1    3    3    0    0  0.28691837901E+02  0.34807094478E+02 -0.79288995888E+02  0.91222257465E+02  0.00000000000E+00 0.  1.
</event>
<event>
 7    1  0.4274778E-006  0.1435333E+03  0.7561462E-02  0.1208652E+00
          1   -1    0    0  501    0  0.00000000000E+00  0.00000000000E+00  0.50582303674E+02  0.50582303674E+02  0.00000000000E+00 0. -1.
         -1   -1    0    0    0  501 -0.00000000000E+00 -0.00000000000E+00 -0.50197905080E+03  0.50197905080E+03  0.00000000000E+00 0.  1.
         23    2    1    2    0    0 -0.11408358547E+03 -0.98172513156E+00 -0.17828916652E+03  0.23123474694E+03  0.93093786227E+02 0.  0.
          5    1    1    2  502    0  0.47267471886E+02  0.59632034777E+02 -0.16148105768E+03  0.17856034795E+03  0.41800000000E+01 0.  1.
         -5    1    1    2    0  502  0.66816113588E+02 -0.58650309645E+02 -0.11162652293E+03  0.14276625959E+03  0.41800000000E+01 0.  1.
        -11    1    3    3    0    0 -0.66531503897E+02 -0.21705676557E+02 -0.16263411574E+03  0.17705206299E+03  0.00000000000E+00 0.  1.
         11    1    3    3    0    0 -0.47552081577E+02  0.20723951425E+02 -0.15655050778E+02  0.54182683948E+02  0.00000000000E+00 0. -1.
</event>
<event>
 7    1  0.4274778E-006  0.1993748E+03  0.7561462E-02  0.1150268E+00
          1   -1    0    0  501    0  0.00000000000E+00  0.00000000000E+00  0.83287472458E+03  0.83287472458E+03  0.00000000000E+00 0. -1.
         -1   -1    0    0    0  501 -0.00000000000E+00 -0.00000000000E+00 -0.58716407463E+02  0.58716407463E+02  0.00000000000E+00 0.  1.
         23    2    1    2    0    0 -0.79965403005E+02 -0.15131903851E+03  0.55258327289E+03  0.58493864839E+03  0.86677746914E+02 0.  0.
          5    1    1    2  502    0  0.91974697605E+02  0.41388870057E+02  0.96513182701E+02  0.13965905055E+03  0.41800000000E+01 0.  1.
         -5    1    1    2    0  502 -0.12009294599E+02  0.10993016845E+03  0.12506186153E+03  0.16699343311E+03  0.41800000000E+01 0.  1.
        -11    1    3    3    0    0  0.50594234326E+01 -0.67698092582E+02  0.14210526874E+03  0.15748821197E+03  0.00000000000E+00 0. -1.
         11    1    3    3    0    0 -0.85024826438E+02 -0.83620945928E+02  0.41047800415E+03  0.42745043642E+03  0.00000000000E+00 0.  1.
</event>
<event>
 7    1  0.4274778E-006  0.1173589E+03  0.7561462E-02  0.1247519E+00
          1   -1    0    0  501    0  0.00000000000E+00  0.00000000000E+00  0.11345457717E+03  0.11345457717E+03  0.00000000000E+00 0. -1.
         -1   -1    0    0    0  501 -0.00000000000E+00 -0.00000000000E+00 -0.15476108243E+03  0.15476108243E+03  0.00000000000E+00 0.  1.
         23    2    1    2    0    0 -0.48391779063E+02  0.54457211492E+02  0.54738077134E+01  0.11608822028E+03  0.90217294091E+02 0.  0.
          5    1    1    2  502    0  0.64830081838E+02 -0.33537413303E+01  0.18380635358E+02  0.67598130508E+02  0.41800000000E+01 0.  1.
         -5    1    1    2    0  502 -0.16438302775E+02 -0.51103470162E+02 -0.65160948335E+02  0.84529308815E+02  0.41800000000E+01 0.  1.
        -11    1    3    3    0    0  0.10130921765E+02 -0.19222194399E+02 -0.11748252324E+01  0.21760251553E+02  0.00000000000E+00 0.  1.
         11    1    3    3    0    0 -0.58522700828E+02  0.73679405891E+02  0.66486329458E+01  0.94327968730E+02  0.00000000000E+00 0. -1.
</event>
<event>
 7    1  0.4274778E-006  0.1126497E+03  0.7561462E-02  0.1255740E+00
          2   -1    0    0  501    0  0.00000000000E+00  0.00000000000E+00  0.33938501985E+03  0.33938501985E+03  0.00000000000E+00 0. -1.
         -2   -1    0    0    0  501 -0.00000000000E+00 -0.00000000000E+00 -0.20845185456E+03  0.20845185456E+03  0.00000000000E+00 0.  1.
         23    2    1    2    0    0  0.46295178124E+02  0.62534576637E+01  0.14518789024E+03  0.17932984775E+03  0.94325614602E+02 0.  0.
          5    1    1    2  502    0 -0.46456176144E+02 -0.56072417832E+02  0.16606968101E+03  0.18138054938E+03  0.41800000000E+01 0. -1.
         -5    1    1    2    0  502  0.16099801946E+00  0.49818960168E+02 -0.18032440597E+03  0.18712647728E+03  0.41800000000E+01 0.  1.
        -11    1    3    3    0    0  0.68370216986E+02  0.25609489317E+02  0.12086403565E+03  0.14120356804E+03  0.00000000000E+00 0. -1.
         11    1    3    3    0    0 -0.22075038862E+02 -0.19356031653E+02  0.24323854591E+02  0.38126279707E+02  0.00000000000E+00 0.  1.
</event>
<event>
 7    1  0.4274778E-006  0.1377995E+03  0.7561462E-02  0.1216321E+00
          2   -1    0    0  501    0  0.00000000000E+00  0.00000000000E+00  0.32996187806E+02  0.32996187806E+02  0.00000000000E+00 0.  1.
         -2   -1    0    0    0  501 -0.00000000000E+00 -0.00000000000E+00 -0.78575156907E+03  0.78575156907E+03  0.00000000000E+00 0. -1.
         23    2    1    2    0    0 -0.10639152833E+03  0.21388488539E+01 -0.21735258993E+03  0.25872202243E+03  0.91494287081E+02 0.  0.
          5    1    1    2  502    0 -0.13211091419E+02 -0.29015230522E+02 -0.50637176028E+02  0.59983435503E+02  0.41800000000E+01 0. -1.
         -5    1    1    2    0  502  0.11960261975E+03  0.26876381668E+02 -0.48476561531E+03  0.50004229895E+03  0.41800000000E+01 0. -1.
        -11    1    3    3    0    0 -0.10919806849E+03 -0.87458740450E+01 -0.22120062754E+03  0.24684089228E+03  0.00000000000E+00 0. -1.
         11    1    3    3    0    0  0.28065401607E+01  0.10884722899E+02  0.38480376157E+01  0.11881130155E+02  0.00000000000E+00 0.  1.
</event>
<event>
 7    1  0.4274778E-006  0.1314595E+03  0.7561462E-02  0.1225306E+00
          3   -1    0    0  501    0  0.00000000000E+00  0.00000000000E+00  0.29586790188E+03  0.29586790188E+03  0.00000000000E+00 0. -1.
         -3   -1    0    0    0  501 -0.00000000000E+00 -0.00000000000E+00 -0.80971289790E+02  0.80971289790E+02  0.00000000000E+00 0.  1.
         23    2    1    2    0    0 -0.51421730624E+02 -0.76531615799E+02  0.17294100878E+03  0.21587649651E+03  0.90514013450E+02 0.  0.
          5    1    1    2  502    0  0.75075416073E+02  0.15472324662E+02  0.54518816699E+02  0.94156702912E+02  0.41800000000E+01 0.  1.
         -5    1    1    2    0  502 -0.23653685449E+02  0.61059291137E+02 -0.12563213388E+02  0.66805992247E+02  0.41800000000E+01 0.  1.
        -11    1    3    3    0    0 -0.24625599461E+02 -0.88007398145E+02  0.91267068413E+02  0.12915649443E+03  0.00000000000E+00 0.  1.
         11    1    3    3    0    0 -0.26796131163E+02  0.11475782346E+02  0.81673940364E+02  0.86720002078E+02  0.00000000000E+00 0. -1.
</event>
<event>
 7    1  0.4274778E-006  0.2006761E+03  0.7561462E-02  0.1149170E+00
         -2   -1    0    0    0  501 -0.00000000000E+00  0.00000000000E+00  0.30074218693E+02  0.30074218693E+02  0.00000000000E+00 0. -1.
          2   -1    0    0  501    0  0.00000000000E+00 -0.00000000000E+00 -0.14776278430E+04  0.14776278430E+04  0.00000000000E+00 0.  1.
         23    2    1    2    0    0 -0.13398516752E+03  0.10700475350E+03 -0.89374511208E+03  0.91461432407E+03  0.91307141192E+02 0.  0.
          5    1    1    2  502    0  0.22213455514E+02 -0.96372726077E+02 -0.23222495045E+03  0.25244215169E+03  0.41800000000E+01 0. -1.
         -5    1    1    2    0  502  0.11177171201E+03 -0.10632027425E+02 -0.32158356173E+03  0.34064558590E+03  0.41800000000E+01 0. -1.
        -11    1    3    3    0    0 -0.21373182767E+02 -0.13339756871E+02 -0.66548128133E+02  0.71157679930E+02  0.00000000000E+00 0.  1.
         11    1    3    3    0    0 -0.11261198476E+03  0.12034451037E+03 -0.82719698394E+03  0.84345664414E+03  0.00000000000E+00 0. -1.
</event>
<event>
 7    1  0.4274778E-006  0.9840552E+02  0.7561462E-02  0.1283685E+00
          1   -1    0    0  501    0  0.00000000000E+00  0.00000000000E+00  0.23344978217E+02  0.23344978217E+02  0.00000000000E+00 0. -1.
         -1   -1    0    0    0  501 -0.00000000000E+00 -0.00000000000E+00 -0.74759857018E+03  0.74759857018E+03  0.00000000000E+00 0.  1.
         23    2    1    2    0    0  0.18780723539E+02  0.26167505654E+02 -0.12265891390E+03  0.15563888689E+03  0.90226382075E+02 0.  0.
          5    1    1    2  502    0 -0.37416227748E+02 -0.70399966938E+02 -0.33412979401E+03  0.34353503619E+03  0.41800000000E+01 0. -1.
         -5    1    1    2    0  502  0.18635504210E+02  0.44232461284E+02 -0.26746488405E+03  0.27176962532E+03  0.41800000000E+01 0. -1.
        -11    1    3    3    0    0 -0.20744253321E+02 -0.11083304438E+01 -0.10072350655E+03  0.10284345975E+03  0.00000000000E+00 0.  1.
         11    1    3    3    0    0  0.39524976859E+02  0.27275836098E+02 -0.21935407357E+02  0.52795427136E+02  0.00000000000E+00 0. -1.
</event>
<event>
 7    1  0.4274778E-006  0.9008709E+02  0.7561462E-02  0.1302641E+00
          1   -1    0    0  501    0  0.00000000000E+00  0.00000000000E+00  0.67785168828E+03  0.67785168828E+03  0.00000000000E+00 0. -1.
         -1   -1    0    0    0  501 -0.00000000000E+00 -0.00000000000E+00 -0.21551592538E+02  0.21551592538E+02  0.00000000000E+00 0.  1.
         23    2    1    2    0    0 -0.44178726069E+02 -0.78678802747E+01  0.35466514714E+03  0.36979325671E+03  0.94583416837E+02 0.  0.
          5    1    1    2  502    0  0.37761411082E+02 -0.30302142303E+02  0.34364701122E+02  0.59519316850E+02  0.41800000000E+01 0. -1.
         -5    1    1    2    0  502  0.64173149863E+01  0.38170022578E+02  0.26727024748E+03  0.27009070725E+03  0.41800000000E+01 0. -1.
        -11    1    3    3    0    0  0.22602388925E+02 -0.12275145598E+02  0.36417489157E+02  0.44584534326E+02  0.00000000000E+00 0.  1.
         11    1    3    3    0    0 -0.66781114994E+02  0.44072653234E+01  0.31824765798E+03  0.32520872239E+03  0.00000000000E+00 0. -1.
</event>
<event>
 7    1  0.4274778E-006  0.1335737E+03  0.7561462E-02  0.1222247E+00
         -1   -1    0    0    0  501 -0.00000000000E+00  0.00000000000E+00  0.15809401379E+03  0.15809401379E+03  0.00000000000E+00 0.  1.
          1   -1    0    0  501    0  0.00000000000E+00 -0.00000000000E+00 -0.25586036395E+03  0.25586036395E+03  0.00000000000E+00 0. -1.
         23    2    1    2    0    0 -0.94564621213E+02  0.28279542442E+02 -0.18788191911E+03  0.23089555047E+03  0.90944706223E+02 0.  0.
          5    1    1    2  502    0  0.31254283866E+02  0.48240168900E+02  0.48392600136E+02  0.75254636424E+02  0.41800000000E+01 0.  1.
         -5    1    1    2    0  502  0.63310337347E+02 -0.76519711342E+02  0.41722968812E+02  0.10780419085E+03  0.41800000000E+01 0.  1.
        -11    1    3    3    0    0 -0.66102960289E+02 -0.50365444701E+01 -0.41773710348E+02  0.78358222385E+02  0.00000000000E+00 0.  1.
         11    1    3    3    0    0 -0.28461660924E+02  0.33316086912E+02 -0.14610820877E+03  0.15253732808E+03  0.00000000000E+00 0. -1.
</event>
<event>
 7    1  0.4274778E-006  0.2019155E+03  0.7561462E-02  0.1148133E+00
          1   -1    0    0  501    0  0.00000000000E+00  0.00000000000E+00  0.13348702486E+04  0.13348702486E+04  0.00000000000E+00 0. -1.
         -1   -1    0    0    0  501 -0.00000000000E+00 -0.00000000000E+00 -0.39421253893E+02  0.39421253893E+02  0.00000000000E+00 0.  1.
         23    2    1    2    0    0 -0.12433570945E+03  0.14544957865E+03  0.81255978574E+03  0.83977362276E+03  0.91385904330E+02 0.  0.
          5    1    1    2  502    0  0.17947243499E+02 -0.49782851316E+01 -0.14102522124E+01  0.19140221612E+02  0.41800000000E+01 0. -1.
         -5    1    1    2    0  502  0.10638846595E+03 -0.14047129352E+03  0.48429946121E+03  0.51537765815E+03  0.41800000000E+01 0. -1.
        -11    1    3    3    0    0 -0.61505348965E+02  0.12994547302E+03  0.62639252260E+03  0.64267902275E+03  0.00000000000E+00 0.  1.
         11    1    3    3    0    0 -0.62830360484E+02  0.15504105634E+02  0.18616726313E+03  0.19709460001E+03  0.00000000000E+00 0. -1.
</event>
<event>
 7    1  0.4274778E-006  0.1255116E+03  0.7561462E-02  0.1234272E+00
         -1   -1    0    0    0  501 -0.00000000000E+00  0.00000000000E+00  0.99927414494E+02  0.99927414494E+02  0.00000000000E+00 0.  1.
          1   -1    0    0  501    0  0.00000000000E+00 -0.00000000000E+00 -0.23600580683E+03  0.23600580683E+03  0.00000000000E+00 0. -1.
         23    2    1    2    0    0 -0.96890462019E+02 -0.37297184186E+02 -0.77590201834E+02  0.16317134113E+03  0.99125201473E+02 0.  0.
          5    1    1    2  502    0  0.46835293798E+01  0.10114628482E+02 -0.74302392742E+02  0.75249977567E+02  0.41800000000E+01 0.  1.
         -5    1    1    2    0  502  0.92206932639E+02  0.27182555704E+02  0.15814202240E+02  0.97511902627E+02  0.41800000000E+01 0.  1.
        -11    1    3    3    0    0  0.19972678794E+02 -0.12090768509E+02 -0.71763449357E+01  0.24425284194E+02  0.00000000000E+00 0. -1.
         11    1    3    3    0    0 -0.11686314081E+03 -0.25206415678E+02 -0.70413856899E+02  0.13874605694E+03  0.00000000000E+00 0.  1.
</event>
<event>
 7    1  0.4274778E-006  0.9758994E+02  0.7561462E-02  0.1285447E+00
          1   -1    0    0  501    0  0.00000000000E+00  0.00000000000E+00  0.20795892569E+03  0.20795892569E+03  0.00000000000E+00 0. -1.
         -1   -1    0    0    0  501 -0.00000000000E+00 -0.00000000000E+00 -0.69055083855E+02  0.69055083855E+02  0.00000000000E+00 0.  1.
         23    2    1    2    0    0 -0.76486511380E+01  0.90844210621E+01  0.11876465510E+03  0.14975091592E+03  0.90439288739E+02 0.  0.
          5    1    1    2  502    0 -0.57203802626E+02  0.93340571404E+01  0.89594068220E+01  0.58797474675E+02  0.41800000000E+01 0. -1.
         -5    1    1    2    0  502  0.64852453764E+02 -0.18418478202E+02  0.11179779906E+02  0.68465618943E+02  0.41800000000E+01 0. -1.
        -11    1    3    3    0    0 -0.24707534296E+02  0.32329255035E+02  0.11332639195E+03  0.12040977574E+03  0.00000000000E+00 0. -1.
         11    1    3    3    0    0  0.17058883158E+02 -0.23244833973E+02  0.54382631559E+01  0.29341140182E+02  0.00000000000E+00 0.  1.
</event>
<event>
 7    1  0.4274778E-006  0.1106484E+03  0.7561462E-02  0.1259374E+00
         -2   -1    0    0    0  501 -0.00000000000E+00  0.00000000000E+00  0.49868299770E+02  0.49868299770E+02  0.00000000000E+00 0.  1.
          2   -1    0    0  501    0  0.00000000000E+00 -0.00000000000E+00 -0.38542347435E+03  0.38542347435E+03  0.00000000000E+00 0. -1.
         23    2    1    2    0    0 -0.63161794950E+02  0.43162739555E+00 -0.23972824722E+03  0.26552689352E+03  0.95106782226E+02 0.  0.
          5    1    1    2  502    0  0.97304622466E+02  0.20751011866E+02 -0.64498860450E+02  0.11864387656E+03  0.41800000000E+01 0. -1.
         -5    1    1    2    0  502 -0.34142827516E+02 -0.21182639262E+02 -0.31328066910E+02  0.51121004032E+02  0.41800000000E+01 0. -1.
        -11    1    3    3    0    0 -0.43073104331E+02  0.24828182762E+02 -0.22541712007E+03  0.23083459229E+03  0.00000000000E+00 0. -1.
         11    1    3    3    0    0 -0.20088690619E+02 -0.24396555367E+02 -0.14311127146E+02  0.34692301231E+02  0.00000000000E+00 0.  1.
</event>
<event>
 7    1  0.4274778E-006  0.1045161E+03  0.7561462E-02  0.1271076E+00
         -1   -1    0    0    0  501 -0.00000000000E+00  0.00000000000E+00  0.13358367130E+03  0.13358367130E+03  0.00000000000E+00 0.  1.
          1   -1    0    0  501    0  0.00000000000E+00 -0.00000000000E+00 -0.13925917351E+03  0.13925917351E+03  0.00000000000E+00 0. -1.
         23    2    1    2    0    0  0.77233141855E+02  0.16203225800E+02 -0.15420342570E+02  0.12461994507E+03  0.95209458650E+02 0.  0.
          5    1    1    2  502    0 -0.19769202352E+01 -0.41713345320E+02  0.44697258398E+02  0.61312549284E+02  0.41800000000E+01 0. -1.
         -5    1    1    2    0  502 -0.75256221620E+02  0.25510119520E+02 -0.34952418034E+02  0.86910350459E+02  0.41800000000E+01 0. -1.
        -11    1    3    3    0    0  0.13191226415E+02  0.19296606936E+02 -0.47489675042E+02  0.52930489599E+02  0.00000000000E+00 0. -1.
         11    1    3    3    0    0  0.64041915440E+02 -0.30933811360E+01  0.32069332472E+02  0.71689455468E+02  0.00000000000E+00 0.  1.
</event>
<event>
 7    1  0.4274778E-006  0.8805646E+02  0.7561462E-02  0.1307628E+00
          2   -1    0    0  501    0  0.00000000000E+00  0.00000000000E+00  0.25610734518E+03  0.25610734518E+03  0.00000000000E+00 0. -1.
         -2   -1    0    0    0  501 -0.00000000000E+00 -0.00000000000E+00 -0.61910922620E+02  0.61910922620E+02  0.00000000000E+00 0.  1.
         23    2    1    2    0    0  0.55497816411E+01 -0.50364463962E+02  0.13591304510E+03  0.17100451171E+03  0.90569354036E+02 0.  0.
          5    1    1    2  502    0  0.21837537588E+01  0.84821936719E+02  0.69463125141E+02  0.10973662963E+03  0.41800000000E+01 0.  1.
         -5    1    1    2    0  502 -0.77335353999E+01 -0.34457472757E+02 -0.11179747681E+02  0.37277126455E+02  0.41800000000E+01 0.  1.
        -11    1    3    3    0    0 -0.87425266639E+01 -0.13753082131E+02 -0.10514515335E+02  0.19394176273E+02  0.00000000000E+00 0.  1.
         11    1    3    3    0    0  0.14292308305E+02 -0.36611381831E+02  0.14642756044E+03  0.15161033544E+03  0.00000000000E+00 0. -1.
</event>
<event>
 7    1  0.4274778E-006  0.1149359E+03  0.7561462E-02  0.1251693E+00
          1   -1    0    0  501    0  0.00000000000E+00  0.00000000000E+00  0.38039709742E+02  0.38039709742E+02  0.00000000000E+00 0. -1.
         -1   -1    0    0    0  501 -0.00000000000E+00 -0.00000000000E+00 -0.66570416735E+03  0.66570416735E+03  0.00000000000E+00 0.  1.
         23    2    1    2    0    0  0.11118955985E+03  0.15082880972E+02 -0.21214360809E+03  0.25552977923E+03  0.87749336764E+02 0.  0.
          5    1    1    2  502    0 -0.43339325146E+01 -0.24518011999E+01 -0.25404122488E+03  0.25412439993E+03  0.41800000000E+01 0.  1.
         -5    1    1    2    0  502 -0.10685562734E+03 -0.12631079772E+02 -0.16147962464E+03  0.19408969793E+03  0.41800000000E+01 0.  1.
        -11    1    3    3    0    0  0.60000770801E+02 -0.60606792705E+01 -0.18354480401E+03  0.19319813511E+03  0.00000000000E+00 0.  1.
         11    1    3    3    0    0  0.51188789051E+02  0.21143560243E+02 -0.28598804075E+02  0.62331644120E+02  0.00000000000E+00 0. -1.
</event>
<event>
 7    1  0.4274778E-006  0.1002861E+03  0.7561462E-02  0.1279696E+00
          2   -1    0    0  501    0  0.00000000000E+00  0.00000000000E+00  0.16593982631E+03  0.16593982631E+03  0.00000000000E+00 0.  1.
         -2   -1    0    0    0  501 -0.00000000000E+00 -0.00000000000E+00 -0.84905158757E+02  0.84905158757E+02  0.00000000000E+00 0. -1.
         23    2    1    2    0    0  0.42625893802E+02 -0.18136289190E+02  0.52709995308E+02  0.11448189026E+03  0.90453677556E+02 0.  0.
          5    1    1    2  502    0 -0.70082444531E+02 -0.50935154192E+01  0.56679552143E+02  0.90374426481E+02  0.41800000000E+01 0. -1.
         -5    1    1    2    0  502  0.27456550729E+02  0.23229804609E+02 -0.28354879901E+02  0.45988668325E+02  0.41800000000E+01 0. -1.
        -11    1    3    3    0    0  0.13845804195E+02  0.32725303802E+02  0.42092288724E+02  0.55085502383E+02  0.00000000000E+00 0.  1.
         11    1    3    3    0    0  0.28780089607E+02 -0.50861592992E+02  0.10617706584E+02  0.59396387874E+02  0.00000000000E+00 0. -1.
</event>
<event>
 7    1  0.6117779E-006  0.2949374E+03  0.7561462E-02  0.1087799E+00
         -2   -1    0    0    0  501 -0.00000000000E+00  0.00000000000E+00  0.41721284282E+02  0.41721284282E+02  0.00000000000E+00 0.  1.
          2   -1    0    0  501    0  0.00000000000E+00 -0.00000000000E+00 -0.24192244564E+04  0.24192244564E+04  0.00000000000E+00 0. -1.
         23    2    1    2    0    0 -0.17818662164E+03 -0.23100389132E+03 -0.13991586256E+04  0.14323936835E+04  0.94834250425E+02 0.  0.
          5    1    1    2  502    0  0.25217670373E+01 -0.28234544698E+01 -0.14961591248E+03  0.14972215891E+03  0.41800000000E+01 0. -1.
         -5    1    1    2    0  502  0.17566485460E+03  0.23382734579E+03 -0.82872863409E+03  0.87882989830E+03  0.41800000000E+01 0. -1.
        -11    1    3    3    0    0 -0.12272242553E+03 -0.16005687007E+03 -0.11479009476E+04  0.11654851268E+04  0.00000000000E+00 0. -1.
         11    1    3    3    0    0 -0.55464196106E+02 -0.70947021245E+02 -0.25125767801E+03  0.26690855668E+03  0.00000000000E+00 0.  1.
</event>
<event>
 7    1  0.4274778E-006  0.1863054E+03  0.7561462E-02  0.1161836E+00
          3   -1    0    0  501    0  0.00000000000E+00  0.00000000000E+00  0.26070063496E+03  0.26070063496E+03  0.00000000000E+00 0. -1.
         -3   -1    0    0    0  501 -0.00000000000E+00 -0.00000000000E+00 -0.14608553686E+03  0.14608553686E+03  0.00000000000E+00 0.  1.
         23    2    1    2    0    0 -0.37494186135E+02  0.15255949926E+03  0.94391573413E+02  0.20495176605E+03  0.91734630686E+02 0.  0.
          5    1    1    2  502    0  0.74947614988E+02 -0.85348894483E+02  0.42936625136E+02  0.12150146073E+03  0.41800000000E+01 0.  1.
         -5    1    1    2    0  502 -0.37453428853E+02 -0.67210604779E+02 -0.22713100448E+02  0.80332945045E+02  0.41800000000E+01 0.  1.
        -11    1    3    3    0    0  0.20121879222E+02  0.10578366651E+03  0.57644258036E+02  0.12213899708E+03  0.00000000000E+00 0.  1.
         11    1    3    3    0    0 -0.57616065357E+02  0.46775832751E+02  0.36747315377E+02  0.82812768968E+02  0.00000000000E+00 0. -1.
</event>
<event>
 7    1  0.4274778E-006  0.8522353E+02  0.7561462E-02  0.1314849E+00
         -3   -1    0    0    0  501 -0.00000000000E+00  0.00000000000E+00  0.48257384662E+03  0.48257384662E+03  0.00000000000E+00 0.  1.
          3   -1    0    0  501    0  0.00000000000E+00 -0.00000000000E+00 -0.26547228925E+02  0.26547228925E+02  0.00000000000E+00 0. -1.
         23    2    1    2    0    0  0.12671295461E+02  0.16426470234E+01  0.19502226175E+03  0.21940737004E+03  0.99712844870E+02 0.  0.
          5    1    1    2  502    0  0.39755220991E+02 -0.19441685861E+01  0.21837798599E+03  0.22201503227E+03  0.41800000000E+01 0. -1.
         -5    1    1    2    0  502 -0.52426516452E+02  0.30152156269E+00  0.42626369954E+02  0.67698673237E+02  0.41800000000E+01 0. -1.
        -11    1    3    3    0    0 -0.29612141451E+02  0.15386074890E+02  0.15819101487E+03  0.16167253140E+03  0.00000000000E+00 0.  1.
         11    1    3    3    0    0  0.42283436913E+02 -0.13743427867E+02  0.36831246879E+02  0.57734838645E+02  0.00000000000E+00 0. -1.
</event>
<event>
 7    1  0.4274778E-006  0.1825958E+03  0.7561462E-02  0.1165314E+00
          2   -1    0    0  501    0  0.00000000000E+00  0.00000000000E+00  0.93727044977E+03  0.93727044977E+03  0.00000000000E+00 0. -1.
         -2   -1    0    0    0  501 -0.00000000000E+00 -0.00000000000E+00 -0.50927556181E+02  0.50927556181E+02  0.00000000000E+00 0.  1.
         23    2    1    2    0    0  0.62471604824E+02  0.14543037890E+03  0.66431912895E+03  0.68820751085E+03  0.85187888711E+02 0.  0.
          5    1    1    2  502    0 -0.27803143442E+02  0.18277925146E+02  0.47736663845E+02  0.58338313380E+02  0.41800000000E+01 0.  1.
         -5    1    1    2    0  502 -0.34668461382E+02 -0.16370830405E+03  0.17428710079E+03  0.24165218172E+03  0.41800000000E+01 0.  1.
        -11    1    3    3    0    0  0.20165419902E+02  0.10069428828E+03  0.53761189185E+03  0.54733219356E+03  0.00000000000E+00 0. -1.
         11    1    3    3    0    0  0.42306184923E+02  0.44736090623E+02  0.12670723710E+03  0.14087531729E+03  0.00000000000E+00 0.  1.
</event>
<event>
 7    1  0.4274778E-006  0.1604464E+03  0.7561462E-02  0.1188194E+00
          3   -1    0    0  501    0  0.00000000000E+00  0.00000000000E+00  0.38489258992E+03  0.38489258992E+03  0.00000000000E+00 0. -1.
         -3   -1    0    0    0  501 -0.00000000000E+00 -0.00000000000E+00 -0.96075308231E+02  0.96075308231E+02  0.00000000000E+00 0.  1.
         23    2    1    2    0    0  0.17852251890E+02  0.13685297064E+03  0.23744947412E+03  0.28774859964E+03  0.85846172698E+02 0.  0.
          5    1    1    2  502    0 -0.54664524424E+02 -0.13295763624E+03  0.21383534601E+02  0.14539831917E+03  0.41800000000E+01 0.  1.
         -5    1    1    2    0  502  0.36812272534E+02 -0.38953344033E+01  0.29984272974E+02  0.47820979339E+02  0.41800000000E+01 0.  1.
        -11    1    3    3    0    0 -0.51258861785E+01  0.15890245999E+02 -0.35941887627E+01  0.17079016948E+02  0.00000000000E+00 0.  1.
         11    1    3    3    0    0  0.22978138069E+02  0.12096272465E+03  0.24104366288E+03  0.27066958270E+03  0.00000000000E+00 0. -1.
</event>
<event>
 7    1  0.4274778E-006  0.1359551E+03  0.7561462E-02  0.1218878E+00
         -1   -1    0    0    0  501 -0.00000000000E+00  0.00000000000E+00  0.10932359689E+04  0.10932359689E+04  0.00000000000E+00 0.  1.
          1   -1    0    0  501    0  0.00000000000E+00 -0.00000000000E+00 -0.25134824828E+02  0.25134824828E+02  0.00000000000E+00 0. -1.
         23    2    1    2    0    0 -0.94155344307E+02 -0.80926891341E+02  0.54785967133E+03  0.56908728413E+03  0.91080881061E+02 0.  0.
          5    1    1    2  502    0  0.66706723273E+02  0.21588310300E+02  0.44057861221E+03  0.44614216121E+03  0.41800000000E+01 0. -1.
         -5    1    1    2    0  502  0.27448621035E+02  0.59338581041E+02  0.79662860509E+02  0.10314134836E+03  0.41800000000E+01 0. -1.
        -11    1    3    3    0    0 -0.85340920025E+02 -0.39920172202E+02  0.48114770695E+03  0.49028543593E+03  0.00000000000E+00 0.  1.
         11    1    3    3    0    0 -0.88144242823E+01 -0.41006719138E+02  0.66711964373E+02  0.78801848204E+02  0.00000000000E+00 0. -1.
</event>
<event>
 7    1  0.4274778E-006  0.9716521E+02  0.7561462E-02  0.1286373E+00
          1   -1    0    0  501    0  0.00000000000E+00  0.00000000000E+00  0.12194850586E+03  0.12194850586E+03  0.00000000000E+00 0. -1.
         -1   -1    0    0    0  501 -0.00000000000E+00 -0.00000000000E+00 -0.11848876339E+03  0.11848876339E+03  0.00000000000E+00 0.  1.
         23    2    1    2    0    0  0.10161731919E+02  0.48065826340E+02  0.94121095152E+00  0.10602034662E+03  0.93945960855E+02 0.  0.
          5    1    1    2  502    0 -0.33954075234E+02  0.30295729715E+01 -0.47722850736E+02  0.58796261954E+02  0.41800000000E+01 0.  1.
         -5    1    1    2    0  502  0.23792343315E+02 -0.51095399312E+02  0.50241382249E+02  0.75620660679E+02  0.41800000000E+01 0.  1.
        -11    1    3    3    0    0 -0.40560520774E+02  0.25823644185E+02 -0.11085892338E+02  0.49344842217E+02  0.00000000000E+00 0.  1.
         11    1    3    3    0    0  0.50722252693E+02  0.22242182155E+02  0.12027103290E+02  0.56675504398E+02  0.00000000000E+00 0. -1.
</event>
<event>
 7    1  0.4274778E-006  0.9884035E+02  0.7561462E-02  0.1282754E+00
          1   -1    0    0  501    0  0.00000000000E+00  0.00000000000E+00  0.27621208815E+03  0.27621208815E+03  0.00000000000E+00 0. -1.
         -1   -1    0    0    0  501 -0.00000000000E+00 -0.00000000000E+00 -0.87806325089E+02  0.87806325089E+02  0.00000000000E+00 0.  1.
         23    2    1    2    0    0 -0.57496975259E+02 -0.79093719698E+02  0.14770298574E+03  0.20011328972E+03  0.93099076624E+02 0.  0.
          5    1    1    2  502    0  0.51263787519E+02  0.73657716483E+02 -0.28371714063E+02  0.94211791551E+02  0.41800000000E+01 0. -1.
         -5    1    1    2    0  502  0.62331877404E+01  0.54360032147E+01  0.69074491383E+02  0.69693331964E+02  0.41800000000E+01 0. -1.
        -11    1    3    3    0    0 -0.10600993194E+02 -0.23923864180E+02 -0.88522715836E+01  0.27624175032E+02  0.00000000000E+00 0.  1.
         11    1    3    3    0    0 -0.46895982065E+02 -0.55169855518E+02  0.15655525732E+03  0.17248911469E+03  0.00000000000E+00 0. -1.
</event>
<event>
 7    1  0.4274778E-006  0.7571899E+02  0.7561462E-02  0.1341659E+00
          1   -1    0    0  501    0  0.00000000000E+00  0.00000000000E+00  0.57693635250E+02  0.57693635250E+02  0.00000000000E+00 0. -1.
         -1   -1    0    0    0  501 -0.00000000000E+00 -0.00000000000E+00 -0.29529215381E+03  0.29529215381E+03  0.00000000000E+00 0.  1.
         23    2    1    2    0    0  0.68130026126E+02 -0.27150094676E+02 -0.10498851012E+03  0.15648631113E+03  0.89925247917E+02 0.  0.
          5    1    1    2  502    0 -0.33866684522E+02 -0.55770536444E-01 -0.14648829884E+03  0.15041027068E+03  0.41800000000E+01 0.  1.
         -5    1    1    2    0  502 -0.34263341605E+02  0.27205865212E+02  0.13878290401E+02  0.46089207243E+02  0.41800000000E+01 0.  1.
        -11    1    3    3    0    0  0.37133939078E+02 -0.13797335140E+02  0.63723012988E+01  0.40123585486E+02  0.00000000000E+00 0. -1.
         11    1    3    3    0    0  0.30996087049E+02 -0.13352759535E+02 -0.11136081142E+03  0.11636272564E+03  0.00000000000E+00 0.  1.
</event>
<event>
 7    1  0.4274778E-006  0.5303478E+02  0.7561462E-02  0.1429628E+00
         -1   -1    0    0    0  501 -0.00000000000E+00  0.00000000000E+00  0.35258212787E+02  0.35258212787E+02  0.00000000000E+00 0.  1.
          1   -1    0    0  501    0  0.00000000000E+00 -0.00000000000E+00 -0.35463795710E+03  0.35463795710E+03  0.00000000000E+00 0. -1.
         23    2    1    2    0    0 -0.25885990551E+02 -0.92713749457E+01 -0.13959020448E+03  0.16915237506E+03  0.91493485563E+02 0.  0.
          5    1    1    2  502    0 -0.46482687802E+01  0.13949318128E+02 -0.18791054830E+03  0.18853126118E+03  0.41800000000E+01 0.  1.
         -5    1    1    2    0  502  0.30534259331E+02 -0.46779431821E+01  0.81210084721E+01  0.32212533646E+02  0.41800000000E+01 0.  1.
        -11    1    3    3    0    0 -0.12676803885E+02 -0.31387590400E+02 -0.76285313399E+01  0.34699808044E+02  0.00000000000E+00 0.  1.
         11    1    3    3    0    0 -0.13209186666E+02  0.22116215455E+02 -0.13196167314E+03  0.13445256701E+03  0.00000000000E+00 0. -1.
</event>
<event>
 7    1  0.4274778E-006  0.1029417E+03  0.7561462E-02  0.1274229E+00
         -1   -1    0    0    0  501 -0.00000000000E+00  0.00000000000E+00  0.14163767153E+03  0.14163767153E+03  0.00000000000E+00 0.  1.
          1   -1    0    0  501    0  0.00000000000E+00 -0.00000000000E+00 -0.12033184100E+03  0.12033184100E+03  0.00000000000E+00 0. -1.
         23    2    1    2    0    0 -0.67086898888E+01  0.11426762769E+02 -0.62095400424E+02  0.11103783536E+03  0.91093274720E+02 0.  0.
          5    1    1    2  502    0  0.53867738729E+02 -0.31771185857E+02  0.13544282548E+02  0.64125357826E+02  0.41800000000E+01 0.  1.
         -5    1    1    2    0  502 -0.47159048840E+02  0.20344423088E+02  0.69856948401E+02  0.86806319345E+02  0.41800000000E+01 0.  1.
        -11    1    3    3    0    0 -0.18640570604E+02  0.48908065654E+02 -0.30444888730E+02  0.60550483139E+02  0.00000000000E+00 0. -1.
         11    1    3    3    0    0  0.11931880716E+02 -0.37481302886E+02 -0.31650511694E+02  0.50487352217E+02  0.00000000000E+00 0.  1.
</event>
<event>
 7    1  0.4274778E-006  0.9465267E+02  0.7561462E-02  0.1291960E+00
          2   -1    0    0  501    0  0.00000000000E+00  0.00000000000E+00  0.43123035578E+03  0.43123035578E+03  0.00000000000E+00 0. -1.
         -2   -1    0    0    0  501 -0.00000000000E+00 -0.00000000000E+00 -0.38527326335E+02  0.38527326335E+02  0.00000000000E+00 0.  1.
         23    2    1    2    0    0 -0.61149461712E+02  0.38313292376E+02  0.16117309120E+03  0.19688150456E+03  0.87053985948E+02 0.  0.
          5    1    1    2  502    0  0.63513960367E+02 -0.15351446033E+02  0.23935321421E+03  0.24814738284E+03  0.41800000000E+01 0.  1.
         -5    1    1    2    0  502 -0.23644986546E+01 -0.22961846343E+02 -0.78232759667E+01  0.24728794719E+02  0.41800000000E+01 0.  1.
        -11    1    3    3    0    0  0.15795013255E+02  0.55654413024E+01  0.74832304636E+02  0.76683312381E+02  0.00000000000E+00 0. -1.
         11    1    3    3    0    0 -0.76944474967E+02  0.32747851074E+02  0.86340786563E+02  0.12019819218E+03  0.00000000000E+00 0.  1.
</event>
<event>
 7    1  0.4274778E-006  0.6811214E+02  0.7561462E-02  0.1366633E+00
         -2   -1    0    0    0  501 -0.00000000000E+00  0.00000000000E+00  0.47315814706E+02  0.47315814706E+02  0.00000000000E+00 0.  1.
          2   -1    0    0  501    0  0.00000000000E+00 -0.00000000000E+00 -0.29827929655E+03  0.29827929655E+03  0.00000000000E+00 0. -1.
         23    2    1    2    0    0 -0.36755755187E+02 -0.24072887764E+02 -0.13812676584E+03  0.17150036002E+03  0.91667227401E+02 0.  0.
          5    1    1    2  502    0  0.33719158099E+02  0.48882420172E+02 -0.13034294014E+03  0.14329419761E+03  0.41800000000E+01 0.  1.
         -5    1    1    2    0  502  0.30365970881E+01 -0.24809532408E+02  0.17506224138E+02  0.30800553627E+02  0.41800000000E+01 0.  1.
        -11    1    3    3    0    0  0.18151425293E+01 -0.10202036707E+02  0.12013740870E+02  0.15865253388E+02  0.00000000000E+00 0.  1.
         11    1    3    3    0    0 -0.38570897716E+02 -0.13870851058E+02 -0.15014050671E+03  0.15563510663E+03  0.00000000000E+00 0. -1.
</event>
<event>
 7    1  0.4274778E-006  0.1313139E+03  0.7561462E-02  0.1225519E+00
          2   -1    0    0  501    0  0.00000000000E+00  0.00000000000E+00  0.65673084712E+03  0.65673084712E+03  0.00000000000E+00 0. -1.
         -2   -1    0    0    0  501 -0.00000000000E+00 -0.00000000000E+00 -0.27453060390E+02  0.27453060390E+02  0.00000000000E+00 0.  1.
         23    2    1    2    0    0 -0.72516314344E+02 -0.30986364160E+02  0.29443118969E+03  0.31813967260E+03  0.91128234963E+02 0.  0.
          5    1    1    2  502    0  0.68230157404E+01 -0.42708970048E+02  0.15340764112E+03  0.15944273712E+03  0.41800000000E+01 0. -1.
         -5    1    1    2    0  502  0.65693298604E+02  0.73695334208E+02  0.18143895592E+03  0.20660149780E+03  0.41800000000E+01 0. -1.
        -11    1    3    3    0    0 -0.57582683946E+02 -0.62809035366E+02  0.20108426414E+03  0.21839327302E+03  0.00000000000E+00 0.  1.
         11    1    3    3    0    0 -0.14933630398E+02  0.31822671206E+02  0.93346925554E+02  0.99746399584E+02  0.00000000000E+00 0. -1.
</event>
<event>
 7    1  0.4274778E-006  0.9852463E+02  0.7561462E-02  0.1283429E+00
         -1   -1    0    0    0  501 -0.00000000000E+00  0.00000000000E+00  0.52353087180E+02  0.52353087180E+02  0.00000000000E+00 0.  1.
          1   -1    0    0  501    0  0.00000000000E+00 -0.00000000000E+00 -0.28187362936E+03  0.28187362936E+03  0.00000000000E+00 0. -1.
         23    2    1    2    0    0  0.35584182345E+02 -0.18577494374E+02 -0.14373248263E+03  0.17733757491E+03  0.95803087546E+02 0.  0.
          5    1    1    2  502    0  0.29829919514E+02  0.15448828557E+02  0.14672470341E+02  0.36895042863E+02  0.41800000000E+01 0.  1.
         -5    1    1    2    0  502 -0.65414101858E+02  0.31286658165E+01 -0.10046052990E+03  0.11999409877E+03  0.41800000000E+01 0.  1.
        -11    1    3    3    0    0  0.50107886802E+02 -0.45048956247E+02 -0.12442472407E+03  0.14149812981E+03  0.00000000000E+00 0. -1.
         11    1    3    3    0    0 -0.14523704458E+02  0.26471461873E+02 -0.19307758550E+02  0.35839445100E+02  0.00000000000E+00 0.  1.
</event>
<event>
 7    1  0.4274778E-006  0.1235127E+03  0.7561462E-02  0.1237412E+00
         -2   -1    0    0    0  501 -0.00000000000E+00  0.00000000000E+00  0.22475636358E+02  0.22475636358E+02  0.00000000000E+00 0.  1.
          2   -1    0    0  501    0  0.00000000000E+00 -0.00000000000E+00 -0.79971781835E+03  0.79971781835E+03  0.00000000000E+00 0. -1.
         23    2    1    2    0    0  0.30913004896E+02  0.44870887537E+02 -0.41655689561E+03  0.43656377305E+03  0.11874034796E+03 0.  0.
          5    1    1    2  502    0 -0.21145979845E+00 -0.82403009817E+02 -0.17196572511E+03  0.19073537625E+03  0.41800000000E+01 0. -1.
         -5    1    1    2    0  502 -0.30701545097E+02  0.37532122280E+02 -0.18871956127E+03  0.19489430541E+03  0.41800000000E+01 0. -1.
        -11    1    3    3    0    0  0.66345518940E+02  0.11815687958E+02 -0.33488763514E+03  0.34160074141E+03  0.00000000000E+00 0. -1.
         11    1    3    3    0    0 -0.35432514044E+02  0.33055199579E+02 -0.81669260473E+02  0.94963031633E+02  0.00000000000E+00 0.  1.
</event>
<event>
 7    1  0.4274778E-006  0.1083736E+03  0.7561462E-02  0.1263612E+00
         -2   -1    0    0    0  501 -0.00000000000E+00  0.00000000000E+00  0.29470572491E+03  0.29470572491E+03  0.00000000000E+00 0.  1.
          2   -1    0    0  501    0  0.00000000000E+00 -0.00000000000E+00 -0.72283058781E+02  0.72283058781E+02  0.00000000000E+00 0. -1.
         23    2    1    2    0    0 -0.56819461694E+02  0.47136917953E+02  0.21240359109E+02  0.11885402890E+03  0.90690611806E+02 0.  0.
          5    1    1    2  502    0 -0.14768078581E+02 -0.61821800196E+02  0.13576271023E+03  0.14996338557E+03  0.41800000000E+01 0.  1.
         -5    1    1    2    0  502  0.71587540275E+02  0.14684882243E+02  0.65419596792E+02  0.98171369215E+02  0.41800000000E+01 0.  1.
        -11    1    3    3    0    0 -0.10117622405E+02 -0.37422726282E+01  0.44647182161E+02  0.45931925308E+02  0.00000000000E+00 0.  1.
         11    1    3    3    0    0 -0.46701839289E+02  0.50879190581E+02 -0.23406823052E+02  0.72922103594E+02  0.00000000000E+00 0. -1.
</event>
<event>
 7    1  0.4274778E-006  0.9449498E+02  0.7561462E-02  0.1292318E+00
         -1   -1    0    0    0  501 -0.00000000000E+00  0.00000000000E+00  0.66373775609E+03  0.66373775609E+03  0.00000000000E+00 0.  1.
          1   -1    0    0  501    0  0.00000000000E+00 -0.00000000000E+00 -0.24576908862E+02  0.24576908862E+02  0.00000000000E+00 0. -1.
         23    2    1    2    0    0 -0.14377378430E+02 -0.38057028732E+02  0.14552931978E+03  0.17745784381E+03  0.93045456451E+02 0.  0.
          5    1    1    2  502    0  0.25920708265E+02 -0.36856723661E+02  0.29050806577E+03  0.29401141113E+03  0.41800000000E+01 0.  1.
         -5    1    1    2    0  502 -0.11543329835E+02  0.74913752394E+02  0.20312346167E+03  0.21684541001E+03  0.41800000000E+01 0.  1.
        -11    1    3    3    0    0  0.80434565997E+01 -0.43919504688E+02  0.14758591424E+03  0.15419215988E+03  0.00000000000E+00 0.  1.
         11    1    3    3    0    0 -0.22420835029E+02  0.58624759552E+01 -0.20565944614E+01  0.23265683926E+02  0.00000000000E+00 0. -1.
</event>
<event>
 7    1  0.4274778E-006  0.9578873E+02  0.7561462E-02  0.1289409E+00
          2   -1    0    0  501    0  0.00000000000E+00  0.00000000000E+00  0.13006704130E+03  0.13006704130E+03  0.00000000000E+00 0. -1.
         -2   -1    0    0    0  501 -0.00000000000E+00 -0.00000000000E+00 -0.10095842404E+03  0.10095842404E+03  0.00000000000E+00 0.  1.
         23    2    1    2    0    0  0.18040537794E+02 -0.27108077715E+02  0.32923773734E+02  0.10171507535E+03  0.90563087380E+02 0.  0.
          5    1    1    2  502    0 -0.19118488061E+02 -0.46870954995E+02  0.14797024208E+02  0.52903944402E+02  0.41800000000E+01 0.  1.
         -5    1    1    2    0  502  0.10779502664E+01  0.73979032710E+02 -0.18612180682E+02  0.76406445587E+02  0.41800000000E+01 0.  1.
        -11    1    3    3    0    0  0.32252506136E+02  0.39803762966E+01 -0.20404310972E+02  0.38371909696E+02  0.00000000000E+00 0.  1.
         11    1    3    3    0    0 -0.14211968342E+02 -0.31088454012E+02  0.53328084705E+02  0.63343165656E+02  0.00000000000E+00 0. -1.
</event>
<event>
 7    1  0.4274778E-006  0.2284872E+03  0.7561462E-02  0.1127709E+00
          2   -1    0    0  501    0  0.00000000000E+00  0.00000000000E+00  0.95093676141E+02  0.95093676141E+02  0.00000000000E+00 0. -1.
         -2   -1    0    0    0  501 -0.00000000000E+00 -0.00000000000E+00 -0.63381661020E+03  0.63381661020E+03  0.00000000000E+00 0.  1.
         23    2    1    2    0    0  0.11027746655E+03 -0.18600570856E+03 -0.20140513503E+03  0.30915591132E+03  0.90852109736E+02 0.  0.
          5    1    1    2  502    0 -0.10499543895E+03  0.10320893816E+03 -0.28712272413E+03  0.32269654201E+03  0.41800000000E+01 0.  1.
         -5    1    1    2    0  502 -0.52820276042E+01  0.82796770395E+02 -0.50195074901E+02  0.97057833006E+02  0.41800000000E+01 0.  1.
        -11    1    3    3    0    0  0.40326822415E+02 -0.13263683345E+03 -0.82791423130E+02  0.16147198499E+03  0.00000000000E+00 0.  1.
         11    1    3    3    0    0  0.69950644135E+02 -0.53368875109E+02 -0.11861371190E+03  0.14768392633E+03  0.00000000000E+00 0. -1.
</event>
<event>
 7    1  0.4274778E-006  0.8605633E+02  0.7561462E-02  0.1312693E+00
         -1   -1    0    0    0  501 -0.00000000000E+00  0.00000000000E+00  0.16601980768E+02  0.16601980768E+02  0.00000000000E+00 0.  1.
          1   -1    0    0  501    0  0.00000000000E+00 -0.00000000000E+00 -0.76781693607E+03  0.76781693607E+03  0.00000000000E+00 0. -1.
         23    2    1    2    0    0 -0.15404006185E+02  0.41971455605E+02 -0.41923374373E+03  0.43159469564E+03  0.92293894332E+02 0.  0.
          5    1    1    2  502    0 -0.48557643584E+01  0.11133467576E+02 -0.26313945365E+03  0.26345279846E+03  0.41800000000E+01 0. -1.
         -5    1    1    2    0  502  0.20259770544E+02 -0.53104923181E+02 -0.68841757915E+02  0.89371422733E+02  0.41800000000E+01 0.  1.
        -11    1    3    3    0    0  0.32883125299E+02 -0.68710364973E+01 -0.15298860502E+03  0.15663340748E+03  0.00000000000E+00 0.  1.
         11    1    3    3    0    0 -0.48287131484E+02  0.48842492103E+02 -0.26624513871E+03  0.27496128816E+03  0.00000000000E+00 0. -1.
</event>
<event>
 7    1  0.4274778E-006  0.1257317E+03  0.7561462E-02  0.1233930E+00
         -2   -1    0    0    0  501 -0.00000000000E+00  0.00000000000E+00  0.98414590576E+02  0.98414590576E+02  0.00000000000E+00 0. -1.
          2   -1    0    0  501    0  0.00000000000E+00 -0.00000000000E+00 -0.23691090758E+03  0.23691090758E+03  0.00000000000E+00 0.  1.
         23    2    1    2    0    0  0.41049624092E+02  0.65909811733E+02 -0.14266047175E+03  0.18802825153E+03  0.94728233665E+02 0.  0.
          5    1    1    2  502    0 -0.68849303036E+02 -0.79297783185E+02  0.27203782710E+02  0.10856280735E+03  0.41800000000E+01 0. -1.
         -5    1    1    2    0  502  0.27799678944E+02  0.13387971453E+02 -0.23039627970E+02  0.38734439276E+02  0.41800000000E+01 0. -1.
        -11    1    3    3    0    0  0.29725822785E+02 -0.15161094299E+02 -0.15487706718E+02  0.36787937969E+02  0.00000000000E+00 0. -1.
         11    1    3    3    0    0  0.11323801307E+02  0.81070906031E+02 -0.12717276503E+03  0.15124031356E+03  0.00000000000E+00 0.  1.
</event>
<event>
 7    1  0.4274778E-006  0.7570096E+02  0.7561462E-02  0.1341714E+00
          1   -1    0    0  501    0  0.00000000000E+00  0.00000000000E+00  0.10405452072E+03  0.10405452072E+03  0.00000000000E+00 0. -1.
         -1   -1    0    0    0  501 -0.00000000000E+00 -0.00000000000E+00 -0.12949186708E+03  0.12949186708E+03  0.00000000000E+00 0.  1.
         23    2    1    2    0    0  0.46171442183E-01  0.40828765829E+02 -0.21025626330E+02  0.10188623071E+03  0.90949089023E+02 0.  0.
          5    1    1    2  502    0 -0.27782680743E+02  0.66492623224E+01 -0.51569351369E+02  0.59101272739E+02  0.41800000000E+01 0. -1.
         -5    1    1    2    0  502  0.27736509301E+02 -0.47478028152E+02  0.47157631338E+02  0.72558884355E+02  0.41800000000E+01 0. -1.
        -11    1    3    3    0    0  0.56744717850E+01  0.53353496322E+02 -0.47759927327E+02  0.71831788632E+02  0.00000000000E+00 0.  1.
         11    1    3    3    0    0 -0.56283003428E+01 -0.12524730492E+02  0.26734300997E+02  0.30054442075E+02  0.00000000000E+00 0. -1.
</event>
<event>
 7    1  0.4274778E-006  0.1133096E+03  0.7561462E-02  0.1254561E+00
         -1   -1    0    0    0  501 -0.00000000000E+00  0.00000000000E+00  0.99530422384E+02  0.99530422384E+02  0.00000000000E+00 0.  1.
          1   -1    0    0  501    0  0.00000000000E+00 -0.00000000000E+00 -0.21337606900E+03  0.21337606900E+03  0.00000000000E+00 0. -1.
         23    2    1    2    0    0  0.86496746534E+02 -0.22601425341E+02 -0.94795347722E+02  0.15798090056E+03  0.89326901895E+02 0.  0.
          5    1    1    2  502    0 -0.57342514863E+02 -0.20164263750E+02 -0.62451952599E+02  0.87249529092E+02  0.41800000000E+01 0.  1.
         -5    1    1    2    0  502 -0.29154231671E+02  0.42765689092E+02  0.43401653706E+02  0.67676061737E+02  0.41800000000E+01 0.  1.
        -11    1    3    3    0    0 -0.93152024961E+01 -0.14993070185E+02 -0.47876551382E+02  0.51026751056E+02  0.00000000000E+00 0. -1.
         11    1    3    3    0    0  0.95811949030E+02 -0.76083551561E+01 -0.46918796341E+02  0.10695414950E+03  0.00000000000E+00 0.  1.
</event>
<event>
 7    1  0.6004390E-006  0.1185889E+03  0.7561462E-02  0.1245443E+00
          2   -1    0    0  501    0  0.00000000000E+00  0.00000000000E+00  0.73687696915E+02  0.73687696915E+02  0.00000000000E+00 0. -1.
         -2   -1    0    0    0  501 -0.00000000000E+00 -0.00000000000E+00 -0.24602970636E+03  0.24602970636E+03  0.00000000000E+00 0.  1.
         23    2    1    2    0    0  0.64355302157E+02  0.45646733744E+02 -0.67020946716E+02  0.13815415138E+03  0.91485151950E+02 0.  0.
          5    1    1    2  502    0  0.34842639902E+02 -0.18684318155E+02 -0.92908319336E+01  0.40827751080E+02  0.41800000000E+01 0.  1.
         -5    1    1    2    0  502 -0.99197942060E+02 -0.26962415589E+02 -0.96030230800E+02  0.14073550082E+03  0.41800000000E+01 0.  1.
        -11    1    3    3    0    0  0.24851070805E+02 -0.95837782408E+01 -0.64971325995E+02  0.70218927128E+02  0.00000000000E+00 0.  1.
         11    1    3    3    0    0  0.39504231353E+02  0.55230511985E+02 -0.20496207206E+01  0.67935224251E+02  0.00000000000E+00 0. -1.
</event>
<event>
 7    1  0.4274778E-006  0.1342166E+03  0.7561462E-02  0.1221330E+00
          2   -1    0    0  501    0  0.00000000000E+00  0.00000000000E+00  0.12821472466E+03  0.12821472466E+03  0.00000000000E+00 0. -1.
         -2   -1    0    0    0  501 -0.00000000000E+00 -0.00000000000E+00 -0.19789847956E+03  0.19789847956E+03  0.00000000000E+00 0.  1.
         23    2    1    2    0    0  0.11493087768E+03 -0.96953699418E+01 -0.17281973956E+02  0.14807727853E+03  0.91242024030E+02 0.  0.
          5    1    1    2  502    0  0.18151691436E+02 -0.43921305001E+01 -0.39041387332E+02  0.43479616340E+02  0.41800000000E+01 0. -1.
         -5    1    1    2    0  502 -0.13308256912E+03  0.14087500442E+02 -0.13360393611E+02  0.13455630936E+03  0.41800000000E+01 0. -1.
        -11    1    3    3    0    0  0.69278216355E+02 -0.39398556709E+01 -0.55028786268E+02  0.88561622852E+02  0.00000000000E+00 0.  1.
         11    1    3    3    0    0  0.45652661326E+02 -0.57555142709E+01  0.37746812312E+02  0.59515655674E+02  0.00000000000E+00 0. -1.
</event>
<event>
 7    1  0.4274778E-006  0.2395112E+03  0.7561462E-02  0.1120119E+00
         -2   -1    0    0    0  501 -0.00000000000E+00  0.00000000000E+00  0.35462973637E+02  0.35462973637E+02  0.00000000000E+00 0.  1.
          2   -1    0    0  501    0  0.00000000000E+00 -0.00000000000E+00 -0.16971922332E+04  0.16971922332E+04  0.00000000000E+00 0. -1.
         23    2    1    2    0    0 -0.15909036180E+03 -0.15222972599E+03 -0.81031787207E+03  0.84438029974E+03  0.88766007659E+02 0.  0.
          5    1    1    2  502    0  0.16198229842E+03  0.10248532577E+03 -0.76282798823E+03  0.78655293466E+03  0.41800000000E+01 0. -1.
         -5    1    1    2    0  502 -0.28919366195E+01  0.49744400214E+02 -0.88583399296E+02  0.10172197246E+03  0.41800000000E+01 0. -1.
        -11    1    3    3    0    0 -0.16735435985E+02  0.11519186591E+02 -0.77107290304E+02  0.79738953437E+02  0.00000000000E+00 0.  1.
         11    1    3    3    0    0 -0.14235492581E+03 -0.16374891258E+03 -0.73321058176E+03  0.76464134631E+03  0.00000000000E+00 0. -1.
</event>
<event>
 7    1  0.4274778E-006  0.8823753E+02  0.7561462E-02  0.1307177E+00
         -1   -1    0    0    0  501 -0.00000000000E+00  0.00000000000E+00  0.12215473702E+02  0.12215473702E+02  0.00000000000E+00 0.  1.
          1   -1    0    0  501    0  0.00000000000E+00 -0.00000000000E+00 -0.12567749881E+04  0.12567749881E+04  0.00000000000E+00 0. -1.
         23    2    1    2    0    0 -0.41440500914E+02  0.52871182183E+02 -0.53655633769E+03  0.54689095054E+03  0.81757759495E+02 0.  0.
          5    1    1    2  502    0  0.24050287564E+01 -0.17004181712E+02 -0.68862183373E+01  0.18968889319E+02  0.41800000000E+01 0. -1.
         -5    1    1    2    0  502  0.39035472158E+02 -0.35867000471E+02 -0.70111695834E+03  0.70313062192E+03  0.41800000000E+01 0. -1.
        -11    1    3    3    0    0 -0.76875318047E+00  0.63565429204E+02 -0.30662429666E+03  0.31314471746E+03  0.00000000000E+00 0.  1.
         11    1    3    3    0    0 -0.40671747734E+02 -0.10694247021E+02 -0.22993204104E+03  0.23374623308E+03  0.00000000000E+00 0. -1.
</event>
<event>
 7    1  0.4274778E-006  0.1826583E+03  0.7561462E-02  0.1165255E+00
          1   -1    0    0  501    0  0.00000000000E+00  0.00000000000E+00  0.68596972087E+03  0.68596972087E+03  0.00000000000E+00 0. -1.
         -1   -1    0    0    0  501 -0.00000000000E+00 -0.00000000000E+00 -0.64534985272E+02  0.64534985272E+02  0.00000000000E+00 0.  1.
         23    2    1    2    0    0  0.11049388529E+03 -0.11462406077E+03  0.44726229826E+03  0.48342655103E+03  0.91159710450E+02 0.  0.
          5    1    1    2  502    0  0.17471999303E+02  0.23611808700E+02 -0.35532606804E+01  0.29881203643E+02  0.41800000000E+01 0. -1.
         -5    1    1    2    0  502 -0.12796588459E+03  0.91012252074E+02  0.17772569802E+03  0.23719695146E+03  0.41800000000E+01 0. -1.
        -11    1    3    3    0    0  0.89894532666E+02 -0.12619159481E+03  0.34067369886E+03  0.37425113854E+03  0.00000000000E+00 0.  1.
         11    1    3    3    0    0  0.20599352619E+02  0.11567534035E+02  0.10658859940E+03  0.10917541249E+03  0.00000000000E+00 0. -1.
</event>
<event>
 7    1  0.4274778E-006  0.1030407E+03  0.7561462E-02  0.1274029E+00
         -1   -1    0    0    0  501 -0.00000000000E+00  0.00000000000E+00  0.11851030242E+03  0.11851030242E+03  0.00000000000E+00 0.  1.
          1   -1    0    0  501    0  0.00000000000E+00 -0.00000000000E+00 -0.45345538394E+03  0.45345538394E+03  0.00000000000E+00 0. -1.
         23    2    1    2    0    0 -0.21951471916E+02 -0.70949651677E+02 -0.40024292091E+03  0.41724092955E+03  0.91541670079E+02 0.  0.
          5    1    1    2  502    0  0.20479819912E+02  0.77836438602E+02 -0.79823184124E+01  0.80988418957E+02  0.41800000000E+01 0. -1.
         -5    1    1    2    0  502  0.14716520037E+01 -0.68867869248E+01  0.73280157802E+02  0.73736337861E+02  0.41800000000E+01 0.  1.
        -11    1    3    3    0    0 -0.37922286282E+02 -0.86845831589E+02 -0.33850008471E+03  0.35151473029E+03  0.00000000000E+00 0. -1.
         11    1    3    3    0    0  0.15970814366E+02  0.15896179912E+02 -0.61742836198E+02  0.65726199259E+02  0.00000000000E+00 0.  1.
</event>
<event>
 7    1  0.4274778E-006  0.4788306E+02  0.7561462E-02  0.1457106E+00
         -1   -1    0    0    0  501 -0.00000000000E+00  0.00000000000E+00  0.48982623853E+03  0.48982623853E+03  0.00000000000E+00 0.  1.
          1   -1    0    0  501    0  0.00000000000E+00 -0.00000000000E+00 -0.38247702427E+02  0.38247702427E+02  0.00000000000E+00 0. -1.
         23    2    1    2    0    0  0.10883353036E+02 -0.37143594985E+02  0.61842028466E+02  0.11692850007E+03  0.91376931560E+02 0.  0.
          5    1    1    2  502    0 -0.20459299716E+02  0.18043785841E+02  0.38835109965E+03  0.38933046394E+03  0.41800000000E+01 0.  1.
         -5    1    1    2    0  502  0.95759466801E+01  0.19099809144E+02  0.13854079892E+01  0.21814976953E+02  0.41800000000E+01 0.  1.
        -11    1    3    3    0    0  0.13057535437E+02 -0.46947473790E+01 -0.22555474585E+02  0.26481867728E+02  0.00000000000E+00 0. -1.
         11    1    3    3    0    0 -0.21741824009E+01 -0.32448847606E+02  0.84397503051E+02  0.90446632338E+02  0.00000000000E+00 0.  1.
</event>
<event>
 7    1  0.4274778E-006  0.1388588E+03  0.7561462E-02  0.1214873E+00
         -2   -1    0    0    0  501 -0.00000000000E+00  0.00000000000E+00  0.72323998010E+02  0.72323998010E+02  0.00000000000E+00 0.  1.
          2   -1    0    0  501    0  0.00000000000E+00 -0.00000000000E+00 -0.35909947884E+03  0.35909947884E+03  0.00000000000E+00 0. -1.
         23    2    1    2    0    0  0.58087917481E+02 -0.10156963949E+03 -0.13319825770E+03  0.20137117026E+03  0.95488085818E+02 0.  0.
          5    1    1    2  502    0 -0.12785669907E+02  0.85681529612E+02 -0.15944466849E+03  0.18150722460E+03  0.41800000000E+01 0. -1.
         -5    1    1    2    0  502 -0.45302247574E+02  0.15888109879E+02  0.58674453602E+01  0.48545081995E+02  0.41800000000E+01 0. -1.
        -11    1    3    3    0    0  0.75426938178E+02 -0.55712137642E+02 -0.11656355122E+03  0.14959988889E+03  0.00000000000E+00 0. -1.
         11    1    3    3    0    0 -0.17339020697E+02 -0.45857501849E+02 -0.16634706481E+02  0.51771281366E+02  0.00000000000E+00 0.  1.
</event>
<event>
 7    1  0.4274778E-006  0.1380186E+03  0.7561462E-02  0.1216020E+00
         -2   -1    0    0    0  501 -0.00000000000E+00  0.00000000000E+00  0.80745921168E+03  0.80745921168E+03  0.00000000000E+00 0.  1.
          2   -1    0    0  501    0  0.00000000000E+00 -0.00000000000E+00 -0.31551333579E+02  0.31551333579E+02  0.00000000000E+00 0. -1.
         23    2    1    2    0    0 -0.64989629277E+02  0.84140216937E+02  0.22319054714E+03  0.26242814719E+03  0.88041377105E+02 0.  0.
          5    1    1    2  502    0  0.73062830431E+02 -0.10110195075E+03  0.32640176344E+03  0.34945008973E+03  0.41800000000E+01 0.  1.
         -5    1    1    2    0  502 -0.80732011537E+01  0.16961733816E+02  0.22631556751E+03  0.22713230834E+03  0.41800000000E+01 0.  1.
        -11    1    3    3    0    0 -0.68515364382E+02  0.25298717005E+02  0.16071916258E+03  0.17653619872E+03  0.00000000000E+00 0.  1.
         11    1    3    3    0    0  0.35257351047E+01  0.58841499932E+02  0.62471384567E+02  0.85891948470E+02  0.00000000000E+00 0. -1.
</event>
<event>
 7    1  0.4274778E-006  0.1439878E+03  0.7561462E-02  0.1208062E+00
          2   -1    0    0  501    0  0.00000000000E+00  0.00000000000E+00  0.32039275043E+03  0.32039275043E+03  0.00000000000E+00 0. -1.
         -2   -1    0    0    0  501 -0.00000000000E+00 -0.00000000000E+00 -0.79679496301E+02  0.79679496301E+02  0.00000000000E+00 0.  1.
         23    2    1    2    0    0 -0.37426475289E+02  0.11002414310E+03  0.13246558567E+03  0.19790691686E+03  0.90077540133E+02 0.  0.
          5    1    1    2  502    0  0.48589612917E+02  0.99222324645E+01  0.25164566503E+02  0.55768530443E+02  0.41800000000E+01 0. -1.
         -5    1    1    2    0  502 -0.11163137628E+02 -0.11994637556E+03  0.83083101952E+02  0.14639679943E+03  0.41800000000E+01 0. -1.
        -11    1    3    3    0    0 -0.25154699146E+02  0.45510463400E+02  0.12038373292E+03  0.13113429879E+03  0.00000000000E+00 0. -1.
         11    1    3    3    0    0 -0.12271776143E+02  0.64513679699E+02  0.12081852756E+02  0.66772618071E+02  0.00000000000E+00 0.  1.
</event>
<event>
 7    1  0.4274778E-006  0.7185353E+02  0.7561462E-02  0.1353901E+00
         -3   -1    0    0    0  501 -0.00000000000E+00  0.00000000000E+00  0.20331211533E+03  0.20331211533E+03  0.00000000000E+00 0. -1.
          3   -1    0    0  501    0  0.00000000000E+00 -0.00000000000E+00 -0.97301476645E+02  0.97301476645E+02  0.00000000000E+00 0.  1.
         23    2    1    2    0    0 -0.11975432553E+02 -0.22553048165E+02 -0.46064139871E+02  0.10205313829E+03  0.87412167839E+02 0.  0.
          5    1    1    2  502    0  0.42205820464E+02  0.25215929839E+02  0.15956852827E+03  0.16702323795E+03  0.41800000000E+01 0. -1.
         -5    1    1    2    0  502 -0.30230387910E+02 -0.26628816735E+01 -0.74937497135E+01  0.31537215742E+02  0.41800000000E+01 0. -1.
        -11    1    3    3    0    0 -0.35642931665E+02 -0.16640836110E+02  0.10277805413E+02  0.40656725006E+02  0.00000000000E+00 0. -1.
         11    1    3    3    0    0  0.23667499112E+02 -0.59122120553E+01 -0.56341945285E+02  0.61396413283E+02  0.00000000000E+00 0.  1.
</event>
<event>
 7    1  0.4274778E-006  0.1028753E+03  0.7561462E-02  0.1274363E+00
         -1   -1    0    0    0  501 -0.00000000000E+00  0.00000000000E+00  0.11896968565E+04  0.11896968565E+04  0.00000000000E+00 0.  1.
          1   -1    0    0  501    0  0.00000000000E+00 -0.00000000000E+00 -0.13048925865E+02  0.13048925865E+02  0.00000000000E+00 0. -1.
         23    2    1    2    0    0 -0.36484879544E+02 -0.23204873269E+02  0.25747784834E+03  0.27499490946E+03  0.86358237964E+02 0.  0.
          5    1    1    2  502    0 -0.36519854873E+02  0.17949355318E+02  0.16376997341E+03  0.16880152768E+03  0.41800000000E+01 0. -1.
         -5    1    1    2    0  502  0.73004734417E+02  0.52555179514E+01  0.75540010889E+03  0.75894934524E+03  0.41800000000E+01 0.  1.
        -11    1    3    3    0    0  0.11766335960E+02  0.22295749898E+02  0.11649624884E+03  0.11919279810E+03  0.00000000000E+00 0.  1.
         11    1    3    3    0    0 -0.48251215504E+02 -0.45500623167E+02  0.14098159950E+03  0.15580211136E+03  0.00000000000E+00 0. -1.
</event>
<event>
 7    1  0.4274778E-006  0.1097038E+03  0.7561462E-02  0.1261119E+00
         -1   -1    0    0    0  501 -0.00000000000E+00  0.00000000000E+00  0.32919939419E+03  0.32919939419E+03  0.00000000000E+00 0.  1.
          1   -1    0    0  501    0  0.00000000000E+00 -0.00000000000E+00 -0.60147171551E+02  0.60147171551E+02  0.00000000000E+00 0. -1.
         23    2    1    2    0    0  0.20210858022E+02  0.84539914922E+02  0.96852475838E+02  0.15944599213E+03  0.92125709410E+02 0.  0.
          5    1    1    2  502    0  0.10510309949E+02 -0.20956593256E+02  0.15537264619E+03  0.15718707644E+03  0.41800000000E+01 0.  1.
         -5    1    1    2    0  502 -0.30721167971E+02 -0.63583321667E+02  0.16827100614E+02  0.72713497170E+02  0.41800000000E+01 0.  1.
        -11    1    3    3    0    0  0.53708817036E+02  0.31926216598E+02  0.61881125312E+02  0.87938580859E+02  0.00000000000E+00 0.  1.
         11    1    3    3    0    0 -0.33497959014E+02  0.52613698325E+02  0.34971350527E+02  0.71507411275E+02  0.00000000000E+00 0. -1.
</event>
<event>
 7    1  0.4274778E-006  0.1210057E+03  0.7561462E-02  0.1241447E+00
         -2   -1    0    0    0  501 -0.00000000000E+00  0.00000000000E+00  0.13900540938E+03  0.13900540938E+03  0.00000000000E+00 0.  1.
          2   -1    0    0  501    0  0.00000000000E+00 -0.00000000000E+00 -0.14723481950E+03  0.14723481950E+03  0.00000000000E+00 0. -1.
         23    2    1    2    0    0  0.91443507283E+02 -0.16121088264E+02 -0.24951838137E+02  0.12957078946E+03  0.86857301035E+02 0.  0.
          5    1    1    2  502    0 -0.10267020059E+03  0.48055621772E+02  0.34016929634E+02  0.11842777028E+03  0.41800000000E+01 0.  1.
         -5    1    1    2    0  502  0.11226693306E+02 -0.31934533508E+02 -0.17294501617E+02  0.38241669147E+02  0.41800000000E+01 0.  1.
        -11    1    3    3    0    0  0.35543988473E+02 -0.14935912458E+02  0.31745254339E+02  0.49942144233E+02  0.00000000000E+00 0.  1.
         11    1    3    3    0    0  0.55899518810E+02 -0.11851758060E+01 -0.56697092477E+02  0.79628645224E+02  0.00000000000E+00 0. -1.
</event>
<event>
 7    1  0.4274778E-006  0.1230117E+03  0.7561462E-02  0.1238210E+00
          1   -1    0    0  501    0  0.00000000000E+00  0.00000000000E+00  0.68759684751E+03  0.68759684751E+03  0.00000000000E+00 0. -1.
         -1   -1    0    0    0  501 -0.00000000000E+00 -0.00000000000E+00 -0.22318755335E+02  0.22318755335E+02  0.00000000000E+00 0.  1.
         23    2    1    2    0    0  0.58690256481E+02 -0.20997314224E+02  0.29242741285E+03  0.31173180137E+03  0.88190083269E+02 0.  0.
          5    1    1    2  502    0  0.38446411724E+02  0.12919551314E+02  0.13735050853E+03  0.14327482673E+03  0.41800000000E+01 0.  1.
         -5    1    1    2    0  502 -0.97136668204E+02  0.80777629093E+01  0.23550017079E+03  0.25490897474E+03  0.41800000000E+01 0.  1.
        -11    1    3    3    0    0 -0.22635703896E+02 -0.12660734185E+02  0.80913691178E+02  0.84968786628E+02  0.00000000000E+00 0. -1.
         11    1    3    3    0    0  0.81325960377E+02 -0.83365800381E+01  0.21151372167E+03  0.22676301474E+03  0.00000000000E+00 0.  1.
</event>
<event>
 7    1  0.4274778E-006  0.1208618E+03  0.7561462E-02  0.1241682E+00
         -2   -1    0    0    0  501 -0.00000000000E+00  0.00000000000E+00  0.25267401709E+03  0.25267401709E+03  0.00000000000E+00 0. -1.
          2   -1    0    0  501    0  0.00000000000E+00 -0.00000000000E+00 -0.61665859094E+02  0.61665859094E+02  0.00000000000E+00 0.  1.
         23    2    1    2    0    0  0.25212740645E+02  0.57248994126E+02  0.83391179392E+02  0.13786835702E+03  0.90224527977E+02 0.  0.
          5    1    1    2  502    0  0.95750229950E+01 -0.87306854149E+02  0.93144447499E+02  0.12809187463E+03  0.41800000000E+01 0.  1.
         -5    1    1    2    0  502 -0.34787763640E+02  0.30057860023E+02  0.14472531108E+02  0.48379644531E+02  0.41800000000E+01 0.  1.
        -11    1    3    3    0    0 -0.23260640432E+02  0.54293251670E+02  0.32063936072E+02  0.67207965054E+02  0.00000000000E+00 0. -1.
         11    1    3    3    0    0  0.48473381077E+02  0.29557424560E+01  0.51327243320E+02  0.70660391970E+02  0.00000000000E+00 0.  1.
</event>
<event>
 7    1  0.4274778E-006  0.1160193E+03  0.7561462E-02  0.1249812E+00
          2   -1    0    0  501    0  0.00000000000E+00  0.00000000000E+00  0.35946075862E+03  0.35946075862E+03  0.00000000000E+00 0. -1.
         -2   -1    0    0    0  501 -0.00000000000E+00 -0.00000000000E+00 -0.52804149310E+02  0.52804149310E+02  0.00000000000E+00 0.  1.
         23    2    1    2    0    0  0.60779737392E+02  0.74972923587E+01  0.22604343137E+03  0.25134189858E+03  0.91250924618E+02 0.  0.
          5    1    1    2  502    0 -0.58873722155E+02 -0.51275176162E+02  0.11561150512E+02  0.79034115748E+02  0.41800000000E+01 0. -1.
         -5    1    1    2    0  502 -0.19060152369E+01  0.43777883803E+02  0.69052027432E+02  0.81888893611E+02  0.41800000000E+01 0. -1.
        -11    1    3    3    0    0  0.14529974392E+02 -0.40593070635E+02  0.92796832317E+02  0.10232384682E+03  0.00000000000E+00 0.  1.
         11    1    3    3    0    0  0.46249763000E+02  0.48090362994E+02  0.13324659905E+03  0.14901805176E+03  0.00000000000E+00 0. -1.
</event>
<event>
 7    1  0.4274778E-006  0.1169601E+03  0.7561462E-02  0.1248198E+00
          1   -1    0    0  501    0  0.00000000000E+00  0.00000000000E+00  0.31180812569E+03  0.31180812569E+03  0.00000000000E+00 0. -1.
         -1   -1    0    0    0  501 -0.00000000000E+00 -0.00000000000E+00 -0.54576077886E+02  0.54576077886E+02  0.00000000000E+00 0.  1.
         23    2    1    2    0    0 -0.45153563090E+02  0.16045145920E+02  0.19383084713E+03  0.21818186177E+03  0.87958152206E+02 0.  0.
          5    1    1    2  502    0 -0.34651647797E+02 -0.37463634648E+02  0.23056003018E+02  0.56154361284E+02  0.41800000000E+01 0. -1.
         -5    1    1    2    0  502  0.79805210886E+02  0.21418488728E+02  0.40345197655E+02  0.92047980520E+02  0.41800000000E+01 0. -1.
        -11    1    3    3    0    0 -0.66952936814E+02  0.30760398829E+02  0.14847089826E+03  0.16574831979E+03  0.00000000000E+00 0.  1.
         11    1    3    3    0    0  0.21799373724E+02 -0.14715252909E+02  0.45359948878E+02  0.52433541986E+02  0.00000000000E+00 0. -1.
</event>
<event>
 7    1  0.4274778E-006  0.1839765E+03  0.7561462E-02  0.1164009E+00
          2   -1    0    0  501    0  0.00000000000E+00  0.00000000000E+00  0.13252139978E+03  0.13252139978E+03  0.00000000000E+00 0. -1.
         -2   -1    0    0    0  501 -0.00000000000E+00 -0.00000000000E+00 -0.44704364407E+03  0.44704364407E+03  0.00000000000E+00 0.  1.
         23    2    1    2    0    0 -0.10045153039E+03  0.12942881638E+03  0.17544541108E+02  0.18872335887E+03  0.92012862107E+02 0.  0.
          5    1    1    2  502    0  0.99151389453E+02 -0.65794458084E+02 -0.11863373321E+03  0.16808136066E+03  0.41800000000E+01 0.  1.
         -5    1    1    2    0  502  0.13001409394E+01 -0.63634358296E+02 -0.21343305219E+03  0.22276032431E+03  0.41800000000E+01 0.  1.
        -11    1    3    3    0    0 -0.11370463799E+03  0.94863832772E+02  0.77315707771E+00  0.14808271081E+03  0.00000000000E+00 0.  1.
         11    1    3    3    0    0  0.13253107596E+02  0.34564983607E+02  0.16771384031E+02  0.40640648064E+02  0.00000000000E+00 0. -1.
</event>
<event>
 7    1  0.4274778E-006  0.1722808E+03  0.7561462E-02  0.1175490E+00
          2   -1    0    0  501    0  0.00000000000E+00  0.00000000000E+00  0.57327074572E+02  0.57327074572E+02  0.00000000000E+00 0.  1.
         -2   -1    0    0    0  501 -0.00000000000E+00 -0.00000000000E+00 -0.79978140834E+03  0.79978140834E+03  0.00000000000E+00 0. -1.
         23    2    1    2    0    0 -0.11630433468E+03 -0.92968965630E+02 -0.13927512664E+03  0.22335774070E+03  0.91220571122E+02 0.  0.
          5    1    1    2  502    0  0.40024064103E+02 -0.27419013146E+02 -0.20837660759E+03  0.21399067966E+03  0.41800000000E+01 0. -1.
         -5    1    1    2    0  502  0.76280270577E+02  0.12038797878E+03 -0.39480259953E+03  0.41976006255E+03  0.41800000000E+01 0. -1.
        -11    1    3    3    0    0 -0.60797751995E+02 -0.71292743019E+02 -0.29118716790E+02  0.98116876848E+02  0.00000000000E+00 0.  1.
         11    1    3    3    0    0 -0.55506582684E+02 -0.21676222611E+02 -0.11015640985E+03  0.12524086386E+03  0.00000000000E+00 0. -1.
</event>
<event>
 7    1  0.4274778E-006  0.1434821E+03  0.7561462E-02  0.1208719E+00
         -2   -1    0    0    0  501 -0.00000000000E+00  0.00000000000E+00  0.32463174377E+02  0.32463174377E+02  0.00000000000E+00 0.  1.
          2   -1    0    0  501    0  0.00000000000E+00 -0.00000000000E+00 -0.80872909691E+03  0.80872909691E+03  0.00000000000E+00 0. -1.
         23    2    1    2    0    0  0.16638842913E+02  0.11938602198E+03 -0.34938183940E+03  0.38031552350E+03  0.89679174705E+02 0.  0.
          5    1    1    2  502    0  0.14600758468E+02 -0.19838860723E+01 -0.22285279423E+03  0.22337850892E+03  0.41800000000E+01 0.  1.
         -5    1    1    2    0  502 -0.31239601382E+02 -0.11740213591E+03 -0.20403128890E+03  0.23749823886E+03  0.41800000000E+01 0.  1.
        -11    1    3    3    0    0  0.79987562962E+01 -0.14160218190E+02 -0.32811401095E+02  0.36620758093E+02  0.00000000000E+00 0.  1.
         11    1    3    3    0    0  0.86400866172E+01  0.13354624017E+03 -0.31657043830E+03  0.34369476541E+03  0.00000000000E+00 0. -1.
</event>
<event>
 7    1  0.4274778E-006  0.1633015E+03  0.7561462E-02  0.1185019E+00
          2   -1    0    0  501    0  0.00000000000E+00  0.00000000000E+00  0.65922337492E+02  0.65922337492E+02  0.00000000000E+00 0. -1.
         -2   -1    0    0    0  501 -0.00000000000E+00 -0.00000000000E+00 -0.60818284925E+03  0.60818284925E+03  0.00000000000E+00 0.  1.
         23    2    1    2    0    0  0.10618529150E+03  0.68834739287E+02 -0.74534866188E+02  0.17367699427E+03  0.92707683581E+02 0.  0.
          5    1    1    2  502    0  0.25874844883E+02 -0.29945636220E+02 -0.91284830531E+02  0.99582334836E+02  0.41800000000E+01 0.  1.
         -5    1    1    2    0  502 -0.13206013639E+03 -0.38889103067E+02 -0.37644081503E+03  0.40084585764E+03  0.41800000000E+01 0.  1.
        -11    1    3    3    0    0  0.10452506138E+03  0.28003177839E+02 -0.28058388189E+02  0.11178971139E+03  0.00000000000E+00 0. -1.
         11    1    3    3    0    0  0.16602301261E+01  0.40831561448E+02 -0.46476477999E+02  0.61887282874E+02  0.00000000000E+00 0.  1.
</event>
<event>
 7    1  0.4274778E-006  0.7284524E+02  0.7561462E-02  0.1350677E+00
         -2   -1    0    0    0  501 -0.00000000000E+00  0.00000000000E+00  0.41740885400E+02  0.41740885400E+02  0.00000000000E+00 0.  1.
          2   -1    0    0  501    0  0.00000000000E+00 -0.00000000000E+00 -0.29453746018E+03  0.29453746018E+03  0.00000000000E+00 0. -1.
         23    2    1    2    0    0  0.53129871348E+01  0.17629797431E+02 -0.12115783717E+03  0.15375931013E+03  0.92863697720E+02 0.  0.
          5    1    1    2  502    0  0.32803774548E+02 -0.25352178308E+02  0.35169717455E+01  0.41817006825E+02  0.41800000000E+01 0. -1.
         -5    1    1    2    0  502 -0.38116761683E+02  0.77223808771E+01 -0.13515570935E+03  0.14070202862E+03  0.41800000000E+01 0. -1.
        -11    1    3    3    0    0  0.31633486960E+02  0.21577102404E+02 -0.10161896214E+02  0.39617079398E+02  0.00000000000E+00 0.  1.
         11    1    3    3    0    0 -0.26320499825E+02 -0.39473049732E+01 -0.11099594096E+03  0.11414223073E+03  0.00000000000E+00 0. -1.
</event>
<event>
 7    1  0.4274778E-006  0.2209591E+03  0.7561462E-02  0.1133170E+00
         -2   -1    0    0    0  501 -0.00000000000E+00  0.00000000000E+00  0.28198442478E+03  0.28198442478E+03  0.00000000000E+00 0.  1.
          2   -1    0    0  501    0  0.00000000000E+00 -0.00000000000E+00 -0.20592760365E+03  0.20592760365E+03  0.00000000000E+00 0. -1.
         23    2    1    2    0    0 -0.10664383509E+03 -0.17276547777E+03 -0.33855743781E+02  0.22534449443E+03  0.91723017368E+02 0.  0.
          5    1    1    2  502    0  0.10751140366E+03  0.91001385202E+02  0.22329953432E+02  0.14267464121E+03  0.41800000000E+01 0.  1.
         -5    1    1    2    0  502 -0.86756856922E+00  0.81764092563E+02  0.87582611474E+02  0.11989289279E+03  0.41800000000E+01 0.  1.
        -11    1    3    3    0    0 -0.46850003887E+02 -0.14651655576E+03 -0.48777126807E+01  0.15390196899E+03  0.00000000000E+00 0. -1.
         11    1    3    3    0    0 -0.59793831201E+02 -0.26248922003E+02 -0.28978031101E+02  0.71442525448E+02  0.00000000000E+00 0.  1.
</event>
<event>
 7    1  0.4274778E-006  0.2302020E+03  0.7561462E-02  0.1126498E+00
         -1   -1    0    0    0  501 -0.00000000000E+00  0.00000000000E+00  0.27925778259E+03  0.27925778259E+03  0.00000000000E+00 0.  1.
          1   -1    0    0  501    0  0.00000000000E+00 -0.00000000000E+00 -0.31896602893E+03  0.31896602893E+03  0.00000000000E+00 0. -1.
         23    2    1    2    0    0  0.18649757065E+03  0.11876091575E+03 -0.18799732334E+03  0.30407638592E+03  0.90741147887E+02 0.  0.
          5    1    1    2  502    0 -0.11610527546E+03 -0.67354423553E+02  0.15407624635E+02  0.13517366851E+03  0.41800000000E+01 0. -1.
         -5    1    1    2    0  502 -0.70392295194E+02 -0.51406492198E+02  0.13288145237E+03  0.15897375710E+03  0.41800000000E+01 0. -1.
        -11    1    3    3    0    0  0.70550169696E+02  0.98472901697E+02 -0.89951662552E+02  0.15088253845E+03  0.00000000000E+00 0. -1.
         11    1    3    3    0    0  0.11594740096E+03  0.20288014054E+02 -0.98045660792E+02  0.15319384747E+03  0.00000000000E+00 0.  1.
</event>
<event>
 7    1  0.4274778E-006  0.1473476E+03  0.7561462E-02  0.1203771E+00
          3   -1    0    0  501    0  0.00000000000E+00  0.00000000000E+00  0.16871720133E+03  0.16871720133E+03  0.00000000000E+00 0. -1.
         -3   -1    0    0    0  501 -0.00000000000E+00 -0.00000000000E+00 -0.14520080651E+03  0.14520080651E+03  0.00000000000E+00 0.  1.
         23    2    1    2    0    0 -0.25574821429E+02  0.10464363619E+03  0.62601507515E+02  0.15381371167E+03  0.90196158829E+02 0.  0.
          5    1    1    2  502    0 -0.33696859179E+02 -0.86065310040E+02 -0.17149526768E+02  0.94097261274E+02  0.41800000000E+01 0. -1.
         -5    1    1    2    0  502  0.59271680608E+02 -0.18578326155E+02 -0.21935585926E+02  0.66007034888E+02  0.41800000000E+01 0.  1.
        -11    1    3    3    0    0  0.20791252481E+02  0.88364290141E+02  0.33872116555E+02  0.96890888280E+02  0.00000000000E+00 0.  1.
         11    1    3    3    0    0 -0.46366073910E+02  0.16279346054E+02  0.28729390959E+02  0.56922823390E+02  0.00000000000E+00 0. -1.
</event>
<event>
 7    1  0.4274778E-006  0.1083863E+03  0.7561462E-02  0.1263588E+00
         -1   -1    0    0    0  501 -0.00000000000E+00  0.00000000000E+00  0.50202743790E+02  0.50202743790E+02  0.00000000000E+00 0.  1.
          1   -1    0    0  501    0  0.00000000000E+00 -0.00000000000E+00 -0.29828867404E+03  0.29828867404E+03  0.00000000000E+00 0. -1.
         23    2    1    2    0    0  0.21776140684E+02  0.23906411992E+02 -0.17268972870E+03  0.19890199022E+03  0.93244530536E+02 0.  0.
          5    1    1    2  502    0  0.47077498035E+02  0.11715386792E+02 -0.44722377859E+02  0.66114329689E+02  0.41800000000E+01 0. -1.
         -5    1    1    2    0  502 -0.68853638719E+02 -0.35621798784E+02 -0.30673823685E+02  0.83475097922E+02  0.41800000000E+01 0. -1.
        -11    1    3    3    0    0  0.53878253802E+02  0.22273545636E+02 -0.68938843614E+02  0.90285886088E+02  0.00000000000E+00 0.  1.
         11    1    3    3    0    0 -0.32102113117E+02  0.16328663567E+01 -0.10375088509E+03  0.10861610413E+03  0.00000000000E+00 0. -1.
</event>
<event>
 7    1  0.4274778E-006  0.8361758E+02  0.7561462E-02  0.1319088E+00
         -1   -1    0    0    0  501 -0.00000000000E+00  0.00000000000E+00  0.23727247141E+03  0.23727247141E+03  0.00000000000E+00 0.  1.
          1   -1    0    0  501    0  0.00000000000E+00 -0.00000000000E+00 -0.61449973995E+02  0.61449973995E+02  0.00000000000E+00 0. -1.
         23    2    1    2    0    0 -0.46330062089E+02  0.20530798333E+02  0.56230938762E+02  0.11839466561E+03  0.91035103330E+02 0.  0.
          5    1    1    2  502    0 -0.84951148840E+01  0.35157663032E+02  0.89252768643E+02  0.96393762024E+02  0.41800000000E+01 0.  1.
         -5    1    1    2    0  502  0.54825176973E+02 -0.55688461365E+02  0.30338790011E+02  0.83934017768E+02  0.41800000000E+01 0.  1.
        -11    1    3    3    0    0 -0.27697776090E+02  0.46526963400E+01  0.79686585879E+02  0.84491220566E+02  0.00000000000E+00 0.  1.
         11    1    3    3    0    0 -0.18632285998E+02  0.15878101993E+02 -0.23455647117E+02  0.33903445048E+02  0.00000000000E+00 0. -1.
</event>
<event>
 7    1  0.4274778E-006  0.1037317E+03  0.7561462E-02  0.1272639E+00
         -1   -1    0    0    0  501 -0.00000000000E+00  0.00000000000E+00  0.13047478042E+03  0.13047478042E+03  0.00000000000E+00 0.  1.
          1   -1    0    0  501    0  0.00000000000E+00 -0.00000000000E+00 -0.13175469051E+03  0.13175469051E+03  0.00000000000E+00 0. -1.
         23    2    1    2    0    0  0.37410914039E+02 -0.17572077398E+02 -0.60946354400E+02  0.11760166500E+03  0.91691543240E+02 0.  0.
          5    1    1    2  502    0 -0.69817503887E+02  0.23915462652E+02 -0.26645909271E+01  0.73966246679E+02  0.41800000000E+01 0. -1.
         -5    1    1    2    0  502  0.32406589848E+02 -0.63433852542E+01  0.62331035241E+02  0.70661559255E+02  0.41800000000E+01 0. -1.
        -11    1    3    3    0    0 -0.84067036070E+01 -0.45720187696E+02 -0.23621006180E+02  0.52143649292E+02  0.00000000000E+00 0.  1.
         11    1    3    3    0    0  0.45817617646E+02  0.28148110298E+02 -0.37325348220E+02  0.65458015704E+02  0.00000000000E+00 0. -1.
</event>
<event>
 7    1  0.4274778E-006  0.1950631E+03  0.7561462E-02  0.1153972E+00
         -1   -1    0    0    0  501 -0.00000000000E+00  0.00000000000E+00  0.71407022243E+02  0.71407022243E+02  0.00000000000E+00 0.  1.
          1   -1    0    0  501    0  0.00000000000E+00 -0.00000000000E+00 -0.78228126278E+03  0.78228126278E+03  0.00000000000E+00 0. -1.
         23    2    1    2    0    0 -0.10304607155E+03  0.13882053174E+03 -0.55532878525E+03  0.58961982463E+03  0.96808289780E+02 0.  0.
          5    1    1    2  502    0 -0.13564721725E+02 -0.81583504804E+02 -0.50835114078E+02  0.97167644589E+02  0.41800000000E+01 0.  1.
         -5    1    1    2    0  502  0.11661079328E+03 -0.57237026935E+02 -0.10471034121E+03  0.16690081581E+03  0.41800000000E+01 0.  1.
        -11    1    3    3    0    0 -0.79775591627E+02  0.75301190228E+02 -0.20192871093E+03  0.22980343463E+03  0.00000000000E+00 0.  1.
         11    1    3    3    0    0 -0.23270479928E+02  0.63519341511E+02 -0.35340007432E+03  0.35981639000E+03  0.00000000000E+00 0. -1.
</event>
<event>
 7    1  0.4274778E-006  0.1224742E+03  0.7561462E-02  0.1239070E+00
          1   -1    0    0  501    0  0.00000000000E+00  0.00000000000E+00  0.18515893370E+03  0.18515893370E+03  0.00000000000E+00 0. -1.
         -1   -1    0    0    0  501 -0.00000000000E+00 -0.00000000000E+00 -0.84702375963E+02  0.84702375963E+02  0.00000000000E+00 0.  1.
         23    2    1    2    0    0 -0.59069102087E+02 -0.14669194306E+02  0.48380504304E+02  0.12132756803E+03  0.93141620582E+02 0.  0.
          5    1    1    2  502    0  0.80144916736E+02 -0.33033299753E+02  0.32217238130E+02  0.92573373083E+02  0.41800000000E+01 0. -1.
         -5    1    1    2    0  502 -0.21075814649E+02  0.47702494060E+02  0.19858815299E+02  0.55960368545E+02  0.41800000000E+01 0. -1.
        -11    1    3    3    0    0 -0.81925174965E+02 -0.10242127838E+02  0.20623344602E+02  0.85099693409E+02  0.00000000000E+00 0.  1.
         11    1    3    3    0    0  0.22856072878E+02 -0.44270664679E+01  0.27757159701E+02  0.36227874622E+02  0.00000000000E+00 0. -1.
</event>
<event>
 7    1  0.4274778E-006  0.2004167E+03  0.7561462E-02  0.1149388E+00
         -1   -1    0    0    0  501 -0.00000000000E+00  0.00000000000E+00  0.97557776736E+03  0.97557776736E+03  0.00000000000E+00 0.  1.
          1   -1    0    0  501    0  0.00000000000E+00 -0.00000000000E+00 -0.46960335071E+02  0.46960335071E+02  0.00000000000E+00 0. -1.
         23    2    1    2    0    0  0.12603250142E+03 -0.13425417316E+03  0.43788239787E+03  0.48367216707E+03  0.91046122455E+02 0.  0.
          5    1    1    2  502    0  0.78559571524E+01  0.29523168742E+02  0.19754743181E+03  0.19993947527E+03  0.41800000000E+01 0. -1.
         -5    1    1    2    0  502 -0.13388845857E+03  0.10473100442E+03  0.29318760261E+03  0.33892646009E+03  0.41800000000E+01 0. -1.
        -11    1    3    3    0    0  0.10736154780E+03 -0.59160611980E+02  0.21181693196E+03  0.24473024460E+03  0.00000000000E+00 0.  1.
         11    1    3    3    0    0  0.18670953615E+02 -0.75093561179E+02  0.22606546591E+03  0.23894192247E+03  0.00000000000E+00 0. -1.
</event>
<event>
 7    1  0.4274778E-006  0.1433904E+03  0.7561462E-02  0.1208838E+00
          2   -1    0    0  501    0  0.00000000000E+00  0.00000000000E+00  0.59066041709E+03  0.59066041709E+03  0.00000000000E+00 0.  1.
         -2   -1    0    0    0  501 -0.00000000000E+00 -0.00000000000E+00 -0.50457271554E+02  0.50457271554E+02  0.00000000000E+00 0. -1.
         23    2    1    2    0    0  0.84619314745E+02  0.10213163996E+03  0.22709787869E+03  0.27879883912E+03  0.92542130303E+02 0.  0.
          5    1    1    2  502    0 -0.32741023669E+02 -0.89373465427E+02  0.83955058579E+02  0.12698627963E+03  0.41800000000E+01 0.  1.
         -5    1    1    2    0  502 -0.51878291076E+02 -0.12758174535E+02  0.22915020827E+03  0.23533256990E+03  0.41800000000E+01 0.  1.
        -11    1    3    3    0    0  0.40280143786E+02  0.20910670520E+02  0.15495419061E+03  0.16146376471E+03  0.00000000000E+00 0.  1.
         11    1    3    3    0    0  0.44339170959E+02  0.81220969443E+02  0.72143688077E+02  0.11733507441E+03  0.00000000000E+00 0. -1.
</event>
<event>
 7    1  0.4274778E-006  0.1366348E+03  0.7561462E-02  0.1217930E+00
         -1   -1    0    0    0  501 -0.00000000000E+00  0.00000000000E+00  0.45258319087E+02  0.45258319087E+02  0.00000000000E+00 0.  1.
          1   -1    0    0  501    0  0.00000000000E+00 -0.00000000000E+00 -0.48873776648E+03  0.48873776648E+03  0.00000000000E+00 0. -1.
         23    2    1    2    0    0 -0.24369865863E+02 -0.88933361881E+02 -0.27544527037E+03  0.30511926362E+03  0.93405753829E+02 0.  0.
          5    1    1    2  502    0 -0.43081128328E+02  0.63118498926E+02 -0.11898404664E+03  0.14147298074E+03  0.41800000000E+01 0. -1.
         -5    1    1    2    0  502  0.67450994191E+02  0.25814862955E+02 -0.49050130390E+02  0.87403841208E+02  0.41800000000E+01 0. -1.
        -11    1    3    3    0    0 -0.64001332108E+01  0.16365072593E+02 -0.84665519665E+02  0.86469807021E+02  0.00000000000E+00 0. -1.
         11    1    3    3    0    0 -0.17969732652E+02 -0.10529843447E+03 -0.19077975070E+03  0.21864945660E+03  0.00000000000E+00 0.  1.
</event>
<event>
 7    1  0.4274778E-006  0.3840269E+03  0.7561462E-02  0.1049455E+00
          1   -1    0    0  501    0  0.00000000000E+00  0.00000000000E+00  0.18208082778E+04  0.18208082778E+04  0.00000000000E+00 0. -1.
         -1   -1    0    0    0  501 -0.00000000000E+00 -0.00000000000E+00 -0.10038714804E+03  0.10038714804E+03  0.00000000000E+00 0.  1.
         23    2    1    2    0    0  0.68290955053E+01 -0.37997281532E+03  0.12169733127E+04  0.12781324745E+04  0.90402442140E+02 0.  0.
          5    1    1    2  502    0 -0.36550855969E+01  0.28153814800E+03  0.45023561696E+03  0.53104300354E+03  0.41800000000E+01 0.  1.
         -5    1    1    2    0  502 -0.31740099084E+01  0.98434667320E+02  0.53212200088E+02  0.11201994781E+03  0.41800000000E+01 0.  1.
        -11    1    3    3    0    0  0.41272211303E+02 -0.16020395432E+03  0.44538292902E+03  0.47511541321E+03  0.00000000000E+00 0.  1.
         11    1    3    3    0    0 -0.34443115798E+02 -0.21976886100E+03  0.77159038370E+03  0.80301706128E+03  0.00000000000E+00 0. -1.
</event>
<event>
 7    1  0.4274778E-006  0.1096827E+03  0.7561462E-02  0.1261159E+00
         -2   -1    0    0    0  501 -0.00000000000E+00  0.00000000000E+00  0.33477679331E+02  0.33477679331E+02  0.00000000000E+00 0.  1.
          2   -1    0    0  501    0  0.00000000000E+00 -0.00000000000E+00 -0.36325867994E+03  0.36325867994E+03  0.00000000000E+00 0. -1.
         23    2    1    2    0    0  0.14937360795E+02  0.10646093967E+02 -0.15351688936E+03  0.17982431546E+03  0.91830741310E+02 0.  0.
          5    1    1    2  502    0  0.38692382241E+02 -0.46862176268E+02 -0.96437287045E+02  0.11406483569E+03  0.41800000000E+01 0. -1.
         -5    1    1    2    0  502 -0.53629743035E+02  0.36216082300E+02 -0.79826824206E+02  0.10284720812E+03  0.41800000000E+01 0. -1.
        -11    1    3    3    0    0 -0.31230955958E+02  0.30218222570E+02 -0.73969461612E+02  0.85790412264E+02  0.00000000000E+00 0.  1.
         11    1    3    3    0    0  0.46168316753E+02 -0.19572128603E+02 -0.79547427747E+02  0.94033903200E+02  0.00000000000E+00 0. -1.
</event>
<event>
 7    1  0.4274778E-006  0.9637514E+02  0.7561462E-02  0.1288109E+00
          2   -1    0    0  501    0  0.00000000000E+00  0.00000000000E+00  0.10671710590E+04  0.10671710590E+04  0.00000000000E+00 0. -1.
         -2   -1    0    0    0  501 -0.00000000000E+00 -0.00000000000E+00 -0.14891776096E+02  0.14891776096E+02  0.00000000000E+00 0.  1.
         23    2    1    2    0    0 -0.50471895670E+02  0.38716784904E+02  0.53543840313E+03  0.54650798599E+03  0.89052195512E+02 0.  0.
          5    1    1    2  502    0 -0.10848015747E+02 -0.11292686786E+02  0.19962532856E+01  0.16329777943E+02  0.41800000000E+01 0. -1.
         -5    1    1    2    0  502  0.61319911417E+02 -0.27424098119E+02  0.51484462647E+03  0.51922507114E+03  0.41800000000E+01 0. -1.
        -11    1    3    3    0    0 -0.15525011098E+01  0.56995959057E+02  0.29584210832E+03  0.30128641301E+03  0.00000000000E+00 0. -1.
         11    1    3    3    0    0 -0.48919394560E+02 -0.18279174152E+02  0.23959629481E+03  0.24522157299E+03  0.00000000000E+00 0.  1.
</event>
<event>
 7    1  0.4274778E-006  0.9651971E+02  0.7561462E-02  0.1287790E+00
         -2   -1    0    0    0  501 -0.00000000000E+00  0.00000000000E+00  0.27443432349E+02  0.27443432349E+02  0.00000000000E+00 0.  1.
          2   -1    0    0  501    0  0.00000000000E+00 -0.00000000000E+00 -0.51011706440E+03  0.51011706440E+03  0.00000000000E+00 0. -1.
         23    2    1    2    0    0 -0.18548406912E+02 -0.20290317552E+02 -0.29353583430E+03  0.30913814132E+03  0.92991203982E+02 0.  0.
          5    1    1    2  502    0 -0.43963323575E+02 -0.99313696231E+01 -0.28810216067E+02  0.53655445876E+02  0.41800000000E+01 0.  1.
         -5    1    1    2    0  502  0.62511730487E+02  0.30221687175E+02 -0.16032758168E+03  0.17476690955E+03  0.41800000000E+01 0.  1.
        -11    1    3    3    0    0 -0.43746012353E+02  0.30719577572E+01 -0.24928368769E+03  0.25311165020E+03  0.00000000000E+00 0. -1.
         11    1    3    3    0    0  0.25197605441E+02 -0.23362275309E+02 -0.44252146612E+02  0.56026491121E+02  0.00000000000E+00 0.  1.
</event>
<event>
 7    1  0.4274778E-006  0.3404965E+03  0.7561462E-02  0.1066585E+00
         -2   -1    0    0    0  501 -0.00000000000E+00  0.00000000000E+00  0.49632510777E+03  0.49632510777E+03  0.00000000000E+00 0.  1.
          2   -1    0    0  501    0  0.00000000000E+00 -0.00000000000E+00 -0.79785085678E+03  0.79785085678E+03  0.00000000000E+00 0. -1.
         23    2    1    2    0    0 -0.48667815985E+02 -0.15101001517E+03 -0.41895836860E+03  0.45716272926E+03  0.91099206401E+02 0.  0.
          5    1    1    2  502    0 -0.22371575842E+03  0.97930789211E+02 -0.26764630964E+03  0.36234127491E+03  0.41800000000E+01 0. -1.
         -5    1    1    2    0  502  0.27238357440E+03  0.53079225957E+02  0.38507892924E+03  0.47467196039E+03  0.41800000000E+01 0.  1.
        -11    1    3    3    0    0 -0.26865914482E+02 -0.62084539956E+02 -0.74003019718E+02  0.10026322551E+03  0.00000000000E+00 0.  1.
         11    1    3    3    0    0 -0.21801901503E+02 -0.88925475212E+02 -0.34495534889E+03  0.35689950375E+03  0.00000000000E+00 0. -1.
</event>
<event>
 7    1  0.4274778E-006  0.2143813E+03  0.7561462E-02  0.1138143E+00
          2   -1    0    0  501    0  0.00000000000E+00  0.00000000000E+00  0.65969392531E+03  0.65969392531E+03  0.00000000000E+00 0. -1.
         -2   -1    0    0    0  501 -0.00000000000E+00 -0.00000000000E+00 -0.73858487952E+02  0.73858487952E+02  0.00000000000E+00 0.  1.
         23    2    1    2    0    0 -0.67582459090E+02 -0.17759220008E+03  0.32524746057E+03  0.38762736308E+03  0.91447710163E+02 0.  0.
          5    1    1    2  502    0  0.20181650321E+02  0.17707545481E+03  0.18759856930E+03  0.25879279609E+03  0.41800000000E+01 0.  1.
         -5    1    1    2    0  502  0.47400808769E+02  0.51674527735E+00  0.72989407492E+02  0.87132254095E+02  0.41800000000E+01 0.  1.
        -11    1    3    3    0    0 -0.82552557283E+02 -0.15778800502E+03  0.24007945435E+03  0.29891491038E+03  0.00000000000E+00 0.  1.
         11    1    3    3    0    0  0.14970098193E+02 -0.19804195065E+02  0.85168006217E+02  0.88712452706E+02  0.00000000000E+00 0. -1.
</event>
<event>
 7    1  0.4274778E-006  0.9525537E+02  0.7561462E-02  0.1290602E+00
         -2   -1    0    0    0  501 -0.00000000000E+00  0.00000000000E+00  0.65496082753E+02  0.65496082753E+02  0.00000000000E+00 0.  1.
          2   -1    0    0  501    0  0.00000000000E+00 -0.00000000000E+00 -0.32090634984E+03  0.32090634984E+03  0.00000000000E+00 0. -1.
         23    2    1    2    0    0  0.18405796107E+02 -0.20050369647E+02 -0.23756952053E+03  0.25712172165E+03  0.94506677049E+02 0.  0.
          5    1    1    2  502    0 -0.10407782863E+02  0.66824857667E+02  0.17479750900E+02  0.69977836762E+02  0.41800000000E+01 0. -1.
         -5    1    1    2    0  502 -0.79980132443E+01 -0.46774488020E+02 -0.35320497456E+02  0.59302874179E+02  0.41800000000E+01 0. -1.
        -11    1    3    3    0    0  0.45359095942E+02 -0.14237789127E+02 -0.21846253652E+03  0.22357558473E+03  0.00000000000E+00 0. -1.
         11    1    3    3    0    0 -0.26953299835E+02 -0.58125805203E+01 -0.19106984001E+02  0.33546136915E+02  0.00000000000E+00 0.  1.
</event>
<event>
 7    1  0.4274778E-006  0.1066108E+03  0.7561462E-02  0.1266978E+00
         -1   -1    0    0    0  501 -0.00000000000E+00  0.00000000000E+00  0.28034806460E+02  0.28034806460E+02  0.00000000000E+00 0.  1.
          1   -1    0    0  501    0  0.00000000000E+00 -0.00000000000E+00 -0.82445832553E+03  0.82445832553E+03  0.00000000000E+00 0. -1.
         23    2    1    2    0    0 -0.54633942254E+02  0.82332835451E+02 -0.47687109684E+03  0.49538693116E+03  0.90766762205E+02 0.  0.
          5    1    1    2  502    0  0.26906232596E+02 -0.60910063216E+02 -0.45420313774E+02  0.80712195218E+02  0.41800000000E+01 0. -1.
         -5    1    1    2    0  502  0.27727709658E+02 -0.21422772235E+02 -0.27413210845E+03  0.27639400561E+03  0.41800000000E+01 0. -1.
        -11    1    3    3    0    0 -0.59130264155E+02  0.46830616881E+02 -0.42920507176E+03  0.43578261604E+03  0.00000000000E+00 0. -1.
         11    1    3    3    0    0  0.44963219003E+01  0.35502218570E+02 -0.47666025082E+02  0.59604315122E+02  0.00000000000E+00 0.  1.
</event>
<event>
 7    1  0.4274778E-006  0.8296134E+02  0.7561462E-02  0.1320852E+00
         -2   -1    0    0    0  501 -0.00000000000E+00  0.00000000000E+00  0.30086407138E+03  0.30086407138E+03  0.00000000000E+00 0.  1.
          2   -1    0    0  501    0  0.00000000000E+00 -0.00000000000E+00 -0.61422256631E+02  0.61422256631E+02  0.00000000000E+00 0. -1.
         23    2    1    2    0    0  0.28828467673E+02  0.29739834433E+02  0.11559461585E+02  0.99071233825E+02  0.89252170388E+02 0.  0.
          5    1    1    2  502    0 -0.54095252415E+02 -0.18586342029E+02  0.32649490322E+02  0.65994015351E+02  0.41800000000E+01 0.  1.
         -5    1    1    2    0  502  0.25266784742E+02 -0.11153492404E+02  0.19523286284E+03  0.19722107884E+03  0.41800000000E+01 0.  1.
        -11    1    3    3    0    0 -0.94879967143E+01 -0.17442743715E+02  0.29623461093E+02  0.35662597173E+02  0.00000000000E+00 0.  1.
         11    1    3    3    0    0  0.38316464387E+02  0.47182578148E+02 -0.18063999508E+02  0.63408636652E+02  0.00000000000E+00 0. -1.
</event>
<event>
 7    1  0.4274778E-006  0.1051917E+03  0.7561462E-02  0.1269742E+00
         -1   -1    0    0    0  501 -0.00000000000E+00  0.00000000000E+00  0.77469334997E+02  0.77469334997E+02  0.00000000000E+00 0.  1.
          1   -1    0    0  501    0  0.00000000000E+00 -0.00000000000E+00 -0.25647458338E+03  0.25647458338E+03  0.00000000000E+00 0. -1.
         23    2    1    2    0    0  0.65265643895E+02 -0.52170276125E+01 -0.15408373536E+03  0.19057215457E+03  0.91044642594E+02 0.  0.
          5    1    1    2  502    0 -0.90595773772E+02  0.35705652451E+02 -0.32611822074E+02  0.10277884598E+03  0.41800000000E+01 0.  1.
         -5    1    1    2    0  502  0.25330129877E+02 -0.30488624838E+02  0.76903090535E+01  0.40592917824E+02  0.41800000000E+01 0.  1.
        -11    1    3    3    0    0  0.17427300530E+02  0.13132170429E+02  0.58829537318E+01  0.22600306382E+02  0.00000000000E+00 0.  1.
         11    1    3    3    0    0  0.47838343365E+02 -0.18349198042E+02 -0.15996668910E+03  0.16797184819E+03  0.00000000000E+00 0. -1.
</event>
<event>
 7    1  0.4274778E-006  0.1325420E+03  0.7561462E-02  0.1223732E+00
         -1   -1    0    0    0  501 -0.00000000000E+00  0.00000000000E+00  0.18899861832E+02  0.18899861832E+02  0.00000000000E+00 0.  1.
          1   -1    0    0  501    0  0.00000000000E+00 -0.00000000000E+00 -0.10792983640E+04  0.10792983640E+04  0.00000000000E+00 0. -1.
         23    2    1    2    0    0 -0.86548541509E+02  0.32626098130E+02 -0.43277741646E+03  0.45158334149E+03  0.89867178664E+02 0.  0.
          5    1    1    2  502    0  0.10551263933E+03  0.10720206432E+02 -0.38352741290E+03  0.39794294657E+03  0.41800000000E+01 0. -1.
         -5    1    1    2    0  502 -0.18964097821E+02 -0.43346304563E+02 -0.24409367282E+03  0.24867193777E+03  0.41800000000E+01 0. -1.
        -11    1    3    3    0    0 -0.37665683347E+02 -0.17412284865E+02 -0.64316115916E+02  0.76540539146E+02  0.00000000000E+00 0.  1.
         11    1    3    3    0    0 -0.48882858161E+02  0.50038382995E+02 -0.36846130054E+03  0.37504280235E+03  0.00000000000E+00 0. -1.
</event>
<event>
 7    1  0.4274778E-006  0.9592630E+02  0.7561462E-02  0.1289103E+00
         -2   -1    0    0    0  501 -0.00000000000E+00  0.00000000000E+00  0.22368754103E+02  0.22368754103E+02  0.00000000000E+00 0.  1.
          2   -1    0    0  501    0  0.00000000000E+00 -0.00000000000E+00 -0.69354793813E+03  0.69354793813E+03  0.00000000000E+00 0. -1.
         23    2    1    2    0    0  0.72627079450E+01  0.58479005325E+02 -0.33527511077E+03  0.35266380967E+03  0.92140228791E+02 0.  0.
          5    1    1    2  502    0  0.11064115567E+02  0.85724925030E+01 -0.25936470473E+03  0.25977572008E+03  0.41800000000E+01 0. -1.
         -5    1    1    2    0  502 -0.18326823512E+02 -0.67051497828E+02 -0.76539368524E+02  0.10347716248E+03  0.41800000000E+01 0. -1.
        -11    1    3    3    0    0 -0.39527225214E+02  0.42803750278E+02 -0.14964902780E+03  0.16059076590E+03  0.00000000000E+00 0. -1.
         11    1    3    3    0    0  0.46789933159E+02  0.15675255047E+02 -0.18562608296E+03  0.19207304377E+03  0.00000000000E+00 0.  1.
</event>
<event>
 7    1  0.4274778E-006  0.2079638E+03  0.7561462E-02  0.1143189E+00
         -2   -1    0    0    0  501 -0.00000000000E+00  0.00000000000E+00  0.20371895688E+03  0.20371895688E+03  0.00000000000E+00 0.  1.
          2   -1    0    0  501    0  0.00000000000E+00 -0.00000000000E+00 -0.42705681562E+03  0.42705681562E+03  0.00000000000E+00 0. -1.
         23    2    1    2    0    0  0.63473155692E+02 -0.17293521046E+03 -0.32854579177E+03  0.38750593675E+03  0.91011456542E+02 0.  0.
          5    1    1    2  502    0  0.33170678860E+02  0.45465053262E+02  0.45435613299E+02  0.72451586318E+02  0.41800000000E+01 0. -1.
         -5    1    1    2    0  502 -0.96643834552E+02  0.12747015719E+03  0.59772319726E+02  0.17081824943E+03  0.41800000000E+01 0.  1.
        -11    1    3    3    0    0  0.80096393860E+02 -0.15793077439E+03 -0.25374757961E+03  0.30942752942E+03  0.00000000000E+00 0. -1.
         11    1    3    3    0    0 -0.16623238168E+02 -0.15004436068E+02 -0.74798212158E+02  0.78078407329E+02  0.00000000000E+00 0.  1.
</event>
<event>
 7    1  0.4274778E-006  0.6109507E+02  0.7561462E-02  0.1393293E+00
          3   -1    0    0  501    0  0.00000000000E+00  0.00000000000E+00  0.10333867533E+03  0.10333867533E+03  0.00000000000E+00 0. -1.
         -3   -1    0    0    0  501 -0.00000000000E+00 -0.00000000000E+00 -0.12737338297E+03  0.12737338297E+03  0.00000000000E+00 0.  1.
         23    2    1    2    0    0 -0.36738140957E+02 -0.27393378393E+01 -0.81648660979E+01  0.99348036677E+02  0.91903059690E+02 0.  0.
          5    1    1    2  502    0  0.17698010143E+02 -0.33441828392E+02 -0.60002273055E+02  0.71058571763E+02  0.41800000000E+01 0. -1.
         -5    1    1    2    0  502  0.19040130814E+02  0.36181166232E+02  0.44132431517E+02  0.60305449861E+02  0.41800000000E+01 0. -1.
        -11    1    3    3    0    0 -0.17167110710E+02  0.98140233901E+01  0.40691117033E+02  0.45241482631E+02  0.00000000000E+00 0. -1.
         11    1    3    3    0    0 -0.19571030247E+02 -0.12553361229E+02 -0.48855983131E+02  0.54106554046E+02  0.00000000000E+00 0.  1.
</event>
<event>
 7    1  0.4274778E-006  0.1351012E+03  0.7561462E-02  0.1220077E+00
          2   -1    0    0  501    0  0.00000000000E+00  0.00000000000E+00  0.29408961162E+03  0.29408961162E+03  0.00000000000E+00 0. -1.
         -2   -1    0    0    0  501 -0.00000000000E+00 -0.00000000000E+00 -0.67479558853E+02  0.67479558853E+02  0.00000000000E+00 0.  1.
         23    2    1    2    0    0  0.89025671566E+02  0.72435687925E+00  0.10019734948E+03  0.16267545324E+03  0.92182966722E+02 0.  0.
          5    1    1    2  502    0 -0.65427753042E+02  0.59309847728E+02  0.64999615049E+02  0.10973090386E+03  0.41800000000E+01 0.  1.
         -5    1    1    2    0  502 -0.23597918525E+02 -0.60034204607E+02  0.61413088240E+02  0.89162813374E+02  0.41800000000E+01 0.  1.
        -11    1    3    3    0    0  0.28055754367E+02 -0.36257626327E+02  0.73312561160E+02  0.86466597272E+02  0.00000000000E+00 0.  1.
         11    1    3    3    0    0  0.60969917200E+02  0.36981983206E+02  0.26884788322E+02  0.76208855970E+02  0.00000000000E+00 0. -1.
</event>
<event>
 7    1  0.4274778E-006  0.1308418E+03  0.7561462E-02  0.1226212E+00
          2   -1    0    0  501    0  0.00000000000E+00  0.00000000000E+00  0.74355756109E+03  0.74355756109E+03  0.00000000000E+00 0.  1.
         -2   -1    0    0    0  501 -0.00000000000E+00 -0.00000000000E+00 -0.25544867452E+02  0.25544867452E+02  0.00000000000E+00 0. -1.
         23    2    1    2    0    0 -0.69578661413E+02  0.48288024755E+02  0.31993765257E+03  0.34333482765E+03  0.91355234556E+02 0.  0.
          5    1    1    2  502    0  0.54441714908E+02  0.32919368010E+02  0.22640162455E+03  0.23520789338E+03  0.41800000000E+01 0. -1.
         -5    1    1    2    0  502  0.15136946505E+02 -0.81207392765E+02  0.17167341652E+03  0.19055970751E+03  0.41800000000E+01 0. -1.
        -11    1    3    3    0    0 -0.62880325540E+02 -0.35161250845E+01  0.10768585809E+03  0.12474991987E+03  0.00000000000E+00 0. -1.
         11    1    3    3    0    0 -0.66983358735E+01  0.51804149840E+02  0.21225179449E+03  0.21858490778E+03  0.00000000000E+00 0.  1.
</event>
<event>
 7    1  0.4274778E-006  0.1216436E+03  0.7561462E-02  0.1240410E+00
          2   -1    0    0  501    0  0.00000000000E+00  0.00000000000E+00  0.61180473710E+03  0.61180473710E+03  0.00000000000E+00 0. -1.
         -2   -1    0    0    0  501 -0.00000000000E+00 -0.00000000000E+00 -0.34671480407E+02  0.34671480407E+02  0.00000000000E+00 0.  1.
         23    2    1    2    0    0  0.96786691665E+02  0.50911223518E+01  0.27447964234E+03  0.30495040879E+03  0.90896064554E+02 0.  0.
          5    1    1    2  502    0  0.58270850803E+01 -0.26498382382E+02  0.77588877814E+01  0.28527038560E+02  0.41800000000E+01 0.  1.
         -5    1    1    2    0  502 -0.10261377675E+03  0.21407260030E+02  0.29489472657E+03  0.31299877016E+03  0.41800000000E+01 0.  1.
        -11    1    3    3    0    0  0.52175567407E+02 -0.24248251940E+02  0.56914663091E+02  0.80929268075E+02  0.00000000000E+00 0.  1.
         11    1    3    3    0    0  0.44611124258E+02  0.29339374292E+02  0.21756497925E+03  0.22402114071E+03  0.00000000000E+00 0. -1.
</event>
<event>
 7    1  0.4274778E-006  0.2000684E+03  0.7561462E-02  0.1149681E+00
          2   -1    0    0  501    0  0.00000000000E+00  0.00000000000E+00  0.12134293096E+04  0.12134293096E+04  0.00000000000E+00 0. -1.
         -2   -1    0    0    0  501 -0.00000000000E+00 -0.00000000000E+00 -0.36703529333E+02  0.36703529333E+02  0.00000000000E+00 0.  1.
         23    2    1    2    0    0  0.14493789057E+03 -0.10697520495E+03  0.63864074518E+03  0.66906835978E+03  0.85672527995E+02 0.  0.
          5    1    1    2  502    0 -0.84495778007E+01  0.53081355321E+02  0.27083472293E+03  0.27614841154E+03  0.41800000000E+01 0. -1.
         -5    1    1    2    0  502 -0.13648831277E+03  0.53893849632E+02  0.26725031219E+03  0.30491606766E+03  0.41800000000E+01 0. -1.
        -11    1    3    3    0    0  0.10850200487E+03 -0.27409599868E+02  0.36605382321E+03  0.38277849040E+03  0.00000000000E+00 0.  1.
         11    1    3    3    0    0  0.36435885700E+02 -0.79565605085E+02  0.27258692197E+03  0.28628986938E+03  0.00000000000E+00 0. -1.
</event>
<event>
 7    1  0.4274778E-006  0.1373470E+03  0.7561462E-02  0.1216944E+00
          1   -1    0    0  501    0  0.00000000000E+00  0.00000000000E+00  0.11440734530E+02  0.11440734530E+02  0.00000000000E+00 0. -1.
         -1   -1    0    0    0  501 -0.00000000000E+00 -0.00000000000E+00 -0.28553493920E+04  0.28553493920E+04  0.00000000000E+00 0.  1.
         23    2    1    2    0    0 -0.85287839392E+02  0.41147108131E+02 -0.49408780070E+03  0.51173770716E+03  0.93731670582E+02 0.  0.
          5    1    1    2  502    0  0.11516396583E+03 -0.22215071599E+02 -0.15488255996E+04  0.15532657400E+04  0.41800000000E+01 0.  1.
         -5    1    1    2    0  502 -0.29876126443E+02 -0.18932036532E+02 -0.80099525710E+03  0.80178667938E+03  0.41800000000E+01 0.  1.
        -11    1    3    3    0    0  0.62739670027E+01  0.28622796329E+02 -0.48476653861E+02  0.56644621114E+02  0.00000000000E+00 0. -1.
         11    1    3    3    0    0 -0.91561806395E+02  0.12524311802E+02 -0.44561114684E+03  0.45509308604E+03  0.00000000000E+00 0.  1.
</event>
<event>
 7    1  0.4274778E-006  0.1177229E+03  0.7561462E-02  0.1246902E+00
          1   -1    0    0  501    0  0.00000000000E+00  0.00000000000E+00  0.37318386409E+03  0.37318386409E+03  0.00000000000E+00 0. -1.
         -1   -1    0    0    0  501 -0.00000000000E+00 -0.00000000000E+00 -0.16218608276E+03  0.16218608276E+03  0.00000000000E+00 0.  1.
         23    2    1    2    0    0  0.77004919643E+02  0.18682559758E+02  0.32610685058E+03  0.34781641688E+03  0.91388107366E+02 0.  0.
          5    1    1    2  502    0 -0.77241196946E+02 -0.64794741428E+02 -0.88073917183E+02  0.13393673249E+03  0.41800000000E+01 0. -1.
         -5    1    1    2    0  502  0.23627730306E+00  0.46112181670E+02 -0.27035152062E+02  0.53616797483E+02  0.41800000000E+01 0. -1.
        -11    1    3    3    0    0  0.37616156389E+02 -0.10687039708E+02  0.34651109016E+02  0.52248324329E+02  0.00000000000E+00 0.  1.
         11    1    3    3    0    0  0.39388763254E+02  0.29369599465E+02  0.29145574156E+03  0.29556809255E+03  0.00000000000E+00 0. -1.
</event>
<event>
 7    1  0.4274778E-006  0.7879392E+02  0.7561462E-02  0.1332509E+00
          4   -1    0    0  501    0  0.00000000000E+00  0.00000000000E+00  0.39194285657E+03  0.39194285657E+03  0.00000000000E+00 0. -1.
         -4   -1    0    0    0  501 -0.00000000000E+00 -0.00000000000E+00 -0.46861219062E+02  0.46861219062E+02  0.00000000000E+00 0.  1.
         23    2    1    2    0    0 -0.16339644316E+02  0.29511456043E+02  0.22977010541E+03  0.26535354495E+03  0.12837559140E+03 0.  0.
          5    1    1    2  502    0  0.94525160188E+01 -0.50247438313E+01 -0.26726355772E+02  0.29092414862E+02  0.41800000000E+01 0.  1.
         -5    1    1    2    0  502  0.68871282974E+01 -0.24486712212E+02  0.14203788788E+03  0.14435811582E+03  0.41800000000E+01 0.  1.
        -11    1    3    3    0    0 -0.65226309257E+02  0.44408207852E+01  0.17892841871E+03  0.19049821871E+03  0.00000000000E+00 0. -1.
         11    1    3    3    0    0  0.48886664941E+02  0.25070635258E+02  0.50841686699E+02  0.74855326248E+02  0.00000000000E+00 0.  1.
</event>
<event>
 7    1  0.4274778E-006  0.1659326E+03  0.7561462E-02  0.1182157E+00
          1   -1    0    0  501    0  0.00000000000E+00  0.00000000000E+00  0.16677674271E+03  0.16677674271E+03  0.00000000000E+00 0. -1.
         -1   -1    0    0    0  501 -0.00000000000E+00 -0.00000000000E+00 -0.19607711779E+03  0.19607711779E+03  0.00000000000E+00 0.  1.
         23    2    1    2    0    0  0.75701067549E+02  0.10502127389E+03  0.47108099578E+02  0.16728887230E+03  0.94901391735E+02 0.  0.
          5    1    1    2  502    0  0.34857468237E+02 -0.23267005537E+02 -0.12913938723E+02  0.44052682687E+02  0.41800000000E+01 0. -1.
         -5    1    1    2    0  502 -0.11055853579E+03 -0.81754268353E+02 -0.63494535937E+02  0.15151230552E+03  0.41800000000E+01 0. -1.
        -11    1    3    3    0    0 -0.13369430620E+02  0.39236297298E+02  0.37917092271E+02  0.56177705427E+02  0.00000000000E+00 0. -1.
         11    1    3    3    0    0  0.89070498169E+02  0.65784976592E+02  0.91910073070E+01  0.11111116688E+03  0.00000000000E+00 0.  1.
</event>
<event>
 7    1  0.4274778E-006  0.1018199E+03  0.7561462E-02  0.1276515E+00
          2   -1    0    0  501    0  0.00000000000E+00  0.00000000000E+00  0.91094601503E+03  0.91094601503E+03  0.00000000000E+00 0. -1.
         -2   -1    0    0    0  501 -0.00000000000E+00 -0.00000000000E+00 -0.23263420316E+02  0.23263420316E+02  0.00000000000E+00 0.  1.
         23    2    1    2    0    0 -0.10641214299E+02 -0.65083192170E+02  0.52511298113E+03  0.53578682525E+03  0.83515398679E+02 0.  0.
          5    1    1    2  502    0  0.92620830702E+01 -0.16885422324E+02  0.28436248511E+03  0.28504455618E+03  0.41800000000E+01 0. -1.
         -5    1    1    2    0  502  0.13791312287E+01  0.81968614494E+02  0.78207128468E+02  0.11337805391E+03  0.41800000000E+01 0.  1.
        -11    1    3    3    0    0 -0.15683801538E+02 -0.82364219012E+02  0.47903615676E+03  0.48631829668E+03  0.00000000000E+00 0. -1.
         11    1    3    3    0    0  0.50425872390E+01  0.17281026842E+02  0.46076824370E+02  0.49468528569E+02  0.00000000000E+00 0.  1.
</event>
<event>
 7    1  0.4274778E-006  0.1006085E+03  0.7561462E-02  0.1279021E+00
         -1   -1    0    0    0  501 -0.00000000000E+00  0.00000000000E+00  0.52570684910E+02  0.52570684910E+02  0.00000000000E+00 0.  1.
          1   -1    0    0  501    0  0.00000000000E+00 -0.00000000000E+00 -0.28062889351E+03  0.28062889351E+03  0.00000000000E+00 0. -1.
         23    2    1    2    0    0  0.54404838387E+02 -0.74173344829E+01 -0.10847637603E+03  0.15164500155E+03  0.90632108256E+02 0.  0.
          5    1    1    2  502    0 -0.41993875268E+02 -0.40777007917E+02 -0.11776884699E+03  0.13157972358E+03  0.41800000000E+01 0. -1.
         -5    1    1    2    0  502 -0.12410963119E+02  0.48194342400E+02 -0.18129855738E+01  0.49974853292E+02  0.41800000000E+01 0. -1.
        -11    1    3    3    0    0  0.55276656964E+02  0.24642101123E+02 -0.10248236846E+03  0.11901839268E+03  0.00000000000E+00 0. -1.
         11    1    3    3    0    0 -0.87181857759E+00 -0.32059435606E+02 -0.59940075720E+01  0.32626608861E+02  0.00000000000E+00 0.  1.
</event>
<event>
 7    1  0.4274778E-006  0.1394903E+03  0.7561462E-02  0.1214016E+00
          1   -1    0    0  501    0  0.00000000000E+00  0.00000000000E+00  0.11351824817E+03  0.11351824817E+03  0.00000000000E+00 0. -1.
         -1   -1    0    0    0  501 -0.00000000000E+00 -0.00000000000E+00 -0.20987403193E+03  0.20987403193E+03  0.00000000000E+00 0.  1.
         23    2    1    2    0    0 -0.57133731411E+02  0.86628425076E+02 -0.81102169585E+01  0.13845094080E+03  0.91291511620E+02 0.  0.
          5    1    1    2  502    0  0.49801634442E+02  0.19406889853E+02 -0.45447713419E+02  0.70283691009E+02  0.41800000000E+01 0. -1.
         -5    1    1    2    0  502  0.73320969689E+01 -0.10603531493E+03 -0.42797853382E+02  0.11465764829E+03  0.41800000000E+01 0. -1.
        -11    1    3    3    0    0 -0.36260261423E+02  0.73246490088E+01 -0.36210304100E+02  0.51765269868E+02  0.00000000000E+00 0.  1.
         11    1    3    3    0    0 -0.20873469988E+02  0.79303776067E+02  0.28100087142E+02  0.86685670934E+02  0.00000000000E+00 0. -1.
</event>
<event>
 7    1  0.4274778E-006  0.1030276E+03  0.7561462E-02  0.1274055E+00
          2   -1    0    0  501    0  0.00000000000E+00  0.00000000000E+00  0.63042116291E+03  0.63042116291E+03  0.00000000000E+00 0. -1.
         -2   -1    0    0    0  501 -0.00000000000E+00 -0.00000000000E+00 -0.22897101465E+02  0.22897101465E+02  0.00000000000E+00 0.  1.
         23    2    1    2    0    0 -0.41206094139E+02  0.52813419016E+01  0.34780623427E+03  0.36206700790E+03  0.91637911617E+02 0.  0.
          5    1    1    2  502    0  0.74727293748E+02 -0.31737125120E+02  0.11885082285E+03  0.14399445835E+03  0.41800000000E+01 0. -1.
         -5    1    1    2    0  502 -0.33521199608E+02  0.26455783218E+02  0.14086700433E+03  0.14725679813E+03  0.41800000000E+01 0. -1.
        -11    1    3    3    0    0  0.20228132091E+02  0.53212643498E+00  0.19755620080E+02  0.28279763280E+02  0.00000000000E+00 0.  1.
         11    1    3    3    0    0 -0.61434226230E+02  0.47492154666E+01  0.32805061419E+03  0.33378724462E+03  0.00000000000E+00 0. -1.
</event>
<event>
 7    1  0.4274778E-006  0.1097955E+03  0.7561462E-02  0.1260949E+00
         -1   -1    0    0    0  501 -0.00000000000E+00  0.00000000000E+00  0.34116254465E+02  0.34116254465E+02  0.00000000000E+00 0.  1.
          1   -1    0    0  501    0  0.00000000000E+00 -0.00000000000E+00 -0.47903137598E+03  0.47903137598E+03  0.00000000000E+00 0. -1.
         23    2    1    2    0    0 -0.53006496972E+02 -0.40287119706E+02 -0.22253265187E+03  0.24945381371E+03  0.90959789420E+02 0.  0.
          5    1    1    2  502    0 -0.36190027108E+02 -0.10578999962E+02 -0.46750248944E+02  0.60205410708E+02  0.41800000000E+01 0.  1.
         -5    1    1    2    0  502  0.89196524079E+02  0.50866119668E+02 -0.17563222070E+03  0.20348840602E+03  0.41800000000E+01 0.  1.
        -11    1    3    3    0    0 -0.24493790650E+02 -0.43777546826E+02 -0.21354078769E+03  0.21935379503E+03  0.00000000000E+00 0. -1.
         11    1    3    3    0    0 -0.28512706322E+02  0.34904271197E+01 -0.89918641810E+01  0.30100018683E+02  0.00000000000E+00 0.  1.
</event>
<event>
 7    1  0.4274778E-006  0.8401882E+02  0.7561462E-02  0.1318019E+00
         -1   -1    0    0    0  501 -0.00000000000E+00  0.00000000000E+00  0.33426783338E+02  0.33426783338E+02  0.00000000000E+00 0.  1.
          1   -1    0    0  501    0  0.00000000000E+00 -0.00000000000E+00 -0.46069666019E+03  0.46069666019E+03  0.00000000000E+00 0. -1.
         23    2    1    2    0    0  0.34481972486E+02 -0.43705677523E+02 -0.23473207728E+03  0.25786572197E+03  0.91084520028E+02 0.  0.
          5    1    1    2  502    0 -0.24950101084E+02  0.50844012954E+02 -0.15631680727E+02  0.58901978233E+02  0.41800000000E+01 0. -1.
         -5    1    1    2    0  502 -0.95318714019E+01 -0.71383354314E+01 -0.17690611885E+03  0.17735574332E+03  0.41800000000E+01 0. -1.
        -11    1    3    3    0    0  0.54610221182E+02 -0.47974238945E+01 -0.79484709400E+02  0.96556255945E+02  0.00000000000E+00 0.  1.
         11    1    3    3    0    0 -0.20128248696E+02 -0.38908253628E+02 -0.15524736788E+03  0.16130946603E+03  0.00000000000E+00 0. -1.
</event>
<event>
 7    1  0.4274778E-006  0.1247632E+03  0.7561462E-02  0.1235440E+00
         -1   -1    0    0    0  501 -0.00000000000E+00  0.00000000000E+00  0.77233727984E+02  0.77233727984E+02  0.00000000000E+00 0.  1.
          1   -1    0    0  501    0  0.00000000000E+00 -0.00000000000E+00 -0.38433505592E+03  0.38433505592E+03  0.00000000000E+00 0. -1.
         23    2    1    2    0    0 -0.51698951391E+02  0.84527389062E+02 -0.26301917618E+03  0.29601607060E+03  0.92891151012E+02 0.  0.
          5    1    1    2  502    0 -0.12795647057E+02 -0.16714504010E+02  0.36263867390E+02  0.42138387558E+02  0.41800000000E+01 0.  1.
         -5    1    1    2    0  502  0.64494598447E+02 -0.67812885052E+02 -0.80346019149E+02  0.12341432575E+03  0.41800000000E+01 0.  1.
        -11    1    3    3    0    0 -0.77986866883E+02  0.66750164387E+02 -0.18118228804E+03  0.20824158411E+03  0.00000000000E+00 0. -1.
         11    1    3    3    0    0  0.26287915492E+02  0.17777224675E+02 -0.81836888142E+02  0.87774486492E+02  0.00000000000E+00 0.  1.
</event>
<event>
 7    1  0.4274778E-006  0.1062083E+03  0.7561462E-02  0.1267757E+00
          2   -1    0    0  501    0  0.00000000000E+00  0.00000000000E+00  0.62963668437E+03  0.62963668437E+03  0.00000000000E+00 0. -1.
         -2   -1    0    0    0  501 -0.00000000000E+00 -0.00000000000E+00 -0.23229742790E+02  0.23229742790E+02  0.00000000000E+00 0.  1.
         23    2    1    2    0    0  0.78515707413E+01 -0.35540247565E+02  0.35922051196E+03  0.37344265901E+03  0.95369214090E+02 0.  0.
          5    1    1    2  502    0  0.27057778357E+02  0.70667299866E+02  0.18426918721E+03  0.19924506618E+03  0.41800000000E+01 0.  1.
         -5    1    1    2    0  502 -0.34909349099E+02 -0.35127052302E+02  0.62917242415E+02  0.80178701979E+02  0.41800000000E+01 0.  1.
        -11    1    3    3    0    0  0.29663181523E+02  0.14000793471E+02  0.51936602791E+02  0.61427496005E+02  0.00000000000E+00 0.  1.
         11    1    3    3    0    0 -0.21811610782E+02 -0.49541041036E+02  0.30728390917E+03  0.31201516300E+03  0.00000000000E+00 0. -1.
</event>
<event>
 7    1  0.4274778E-006  0.1115692E+03  0.7561462E-02  0.1257691E+00
          1   -1    0    0  501    0  0.00000000000E+00  0.00000000000E+00  0.37019859838E+03  0.37019859838E+03  0.00000000000E+00 0. -1.
         -1   -1    0    0    0  501 -0.00000000000E+00 -0.00000000000E+00 -0.41530581515E+02  0.41530581515E+02  0.00000000000E+00 0.  1.
         23    2    1    2    0    0  0.25939871998E+02  0.31155472909E+02  0.21873909677E+03  0.24033646686E+03  0.90946601913E+02 0.  0.
          5    1    1    2  502    0 -0.52205760825E+02 -0.65215088632E+02  0.49795134896E+02  0.97342062377E+02  0.41800000000E+01 0.  1.
         -5    1    1    2    0  502  0.26265888827E+02  0.34059615724E+02  0.60133785202E+02  0.74050650651E+02  0.41800000000E+01 0.  1.
        -11    1    3    3    0    0 -0.20287236551E+02 -0.19195986418E+02  0.94432519111E+02  0.98476182537E+02  0.00000000000E+00 0. -1.
         11    1    3    3    0    0  0.46227108549E+02  0.50351459327E+02  0.12430657766E+03  0.14186028433E+03  0.00000000000E+00 0.  1.
</event>
<event>
 7    1  0.4274778E-006  0.1530611E+03  0.7561462E-02  0.1196761E+00
          1   -1    0    0  501    0  0.00000000000E+00  0.00000000000E+00  0.13851197648E+03  0.13851197648E+03  0.00000000000E+00 0. -1.
         -1   -1    0    0    0  501 -0.00000000000E+00 -0.00000000000E+00 -0.31640681275E+03  0.31640681275E+03  0.00000000000E+00 0.  1.
         23    2    1    2    0    0  0.40796309966E+02  0.10812690428E+03  0.62927205007E+02  0.15996489805E+03  0.90956963126E+02 0.  0.
          5    1    1    2  502    0 -0.49529437387E+02 -0.13012823904E+03 -0.22930500170E+03  0.26829979495E+03  0.41800000000E+01 0.  1.
         -5    1    1    2    0  502  0.87331274208E+01  0.22001334759E+02 -0.11517039572E+02  0.26654096237E+02  0.41800000000E+01 0.  1.
        -11    1    3    3    0    0  0.43012852102E+02  0.93913712481E+01  0.23128722130E+01  0.44086876480E+02  0.00000000000E+00 0.  1.
         11    1    3    3    0    0 -0.22165421359E+01  0.98735533033E+02  0.60614332794E+02  0.11587802157E+03  0.00000000000E+00 0. -1.
</event>
<event>
 7    1  0.4274778E-006  0.1083335E+03  0.7561462E-02  0.1263687E+00
          1   -1    0    0  501    0  0.00000000000E+00  0.00000000000E+00  0.42832838318E+03  0.42832838318E+03  0.00000000000E+00 0. -1.
         -1   -1    0    0    0  501 -0.00000000000E+00 -0.00000000000E+00 -0.37849810731E+02  0.37849810731E+02  0.00000000000E+00 0.  1.
         23    2    1    2    0    0 -0.23405826285E+01 -0.63105372684E+02  0.22025856325E+03  0.24569919507E+03  0.88693254429E+02 0.  0.
          5    1    1    2  502    0  0.32079767298E+02  0.87362802501E+02  0.15082381804E+03  0.17727568141E+03  0.41800000000E+01 0.  1.
         -5    1    1    2    0  502 -0.29739184669E+02 -0.24257429817E+02  0.19396191155E+02  0.43203317436E+02  0.41800000000E+01 0.  1.
        -11    1    3    3    0    0 -0.28267117225E+02 -0.45491105091E+02  0.52360813414E+02  0.74900769956E+02  0.00000000000E+00 0.  1.
         11    1    3    3    0    0  0.25926534597E+02 -0.17614267593E+02  0.16789774984E+03  0.17079842511E+03  0.00000000000E+00 0. -1.
</event>
<event>
 7    1  0.4274778E-006  0.2596162E+03  0.7561462E-02  0.1107374E+00
          3   -1    0    0  501    0  0.00000000000E+00  0.00000000000E+00  0.88254493146E+02  0.88254493146E+02  0.00000000000E+00 0. -1.
         -3   -1    0    0    0  501 -0.00000000000E+00 -0.00000000000E+00 -0.82069044873E+03  0.82069044873E+03  0.00000000000E+00 0.  1.
         23    2    1    2    0    0  0.30682485935E+02  0.24292223046E+03 -0.31645778454E+03  0.41030937785E+03  0.90860503834E+02 0.  0.
          5    1    1    2  502    0 -0.59194552640E+02 -0.12534746205E+03 -0.30220397400E+03  0.33250668505E+03  0.41800000000E+01 0. -1.
         -5    1    1    2    0  502  0.28512066706E+02 -0.11757476842E+03 -0.11377419705E+03  0.16612887898E+03  0.41800000000E+01 0. -1.
        -11    1    3    3    0    0 -0.24512073423E+02  0.14525434432E+03 -0.20235303023E+03  0.25029265896E+03  0.00000000000E+00 0. -1.
         11    1    3    3    0    0  0.55194559358E+02  0.97667886147E+02 -0.11410475431E+03  0.16001671889E+03  0.00000000000E+00 0.  1.
</event>
<event>
 7    1  0.4274778E-006  0.2078090E+03  0.7561462E-02  0.1143313E+00
          2   -1    0    0  501    0  0.00000000000E+00  0.00000000000E+00  0.15795190810E+04  0.15795190810E+04  0.00000000000E+00 0. -1.
         -2   -1    0    0    0  501 -0.00000000000E+00 -0.00000000000E+00 -0.58517599703E+02  0.58517599703E+02  0.00000000000E+00 0.  1.
         23    2    1    2    0    0  0.12862327729E+03  0.23273236209E+02  0.82796825094E+03  0.84331019632E+03  0.92493630487E+02 0.  0.
          5    1    1    2  502    0 -0.79149671518E+02 -0.12281911575E+03  0.66380702334E+03  0.67971055776E+03  0.41800000000E+01 0. -1.
         -5    1    1    2    0  502 -0.49473605769E+02  0.99545879541E+02  0.29226207032E+02  0.11501592663E+03  0.41800000000E+01 0.  1.
        -11    1    3    3    0    0  0.87004602558E+02  0.57525874850E+02  0.60456476209E+03  0.61349619290E+03  0.00000000000E+00 0.  1.
         11    1    3    3    0    0  0.41618674729E+02 -0.34252638641E+02  0.22340348884E+03  0.22981400342E+03  0.00000000000E+00 0. -1.
</event>
<event>
 7    1  0.4274778E-006  0.1103116E+03  0.7561462E-02  0.1259994E+00
         -1   -1    0    0    0  501 -0.00000000000E+00  0.00000000000E+00  0.79977793746E+02  0.79977793746E+02  0.00000000000E+00 0.  1.
          1   -1    0    0  501    0  0.00000000000E+00 -0.00000000000E+00 -0.18399893345E+03  0.18399893345E+03  0.00000000000E+00 0. -1.
         23    2    1    2    0    0 -0.14693101073E+02 -0.24309046179E+02 -0.90485825418E+02  0.13480851772E+03  0.95806236236E+02 0.  0.
          5    1    1    2  502    0 -0.13836467577E+02  0.70951630564E+02 -0.16454493914E+02  0.74254996362E+02  0.41800000000E+01 0. -1.
         -5    1    1    2    0  502  0.28529568650E+02 -0.46642584386E+02  0.29191796254E+01  0.54913213121E+02  0.41800000000E+01 0.  1.
        -11    1    3    3    0    0  0.98087484674E+01  0.31198441674E+02 -0.10367653923E+02  0.34308053825E+02  0.00000000000E+00 0.  1.
         11    1    3    3    0    0 -0.24501849540E+02 -0.55507487852E+02 -0.80118171495E+02  0.10050046389E+03  0.00000000000E+00 0. -1.
</event>
<event>
 7    1  0.4274778E-006  0.1614257E+03  0.7561462E-02  0.1187096E+00
          1   -1    0    0  501    0  0.00000000000E+00  0.00000000000E+00  0.45505909521E+03  0.45505909521E+03  0.00000000000E+00 0. -1.
         -1   -1    0    0    0  501 -0.00000000000E+00 -0.00000000000E+00 -0.63140041772E+02  0.63140041772E+02  0.00000000000E+00 0.  1.
         23    2    1    2    0    0  0.77466002848E+02  0.10264250434E+03  0.20811277754E+03  0.26137794114E+03  0.92038223832E+02 0.  0.
          5    1    1    2  502    0  0.27433774104E+02 -0.15744143145E+02  0.78047323269E+02  0.84316944171E+02  0.41800000000E+01 0.  1.
         -5    1    1    2    0  502 -0.10489977695E+03 -0.86898361194E+02  0.10575895263E+03  0.17250425167E+03  0.41800000000E+01 0.  1.
        -11    1    3    3    0    0 -0.11082188737E+01  0.69298791061E+02  0.66627552414E+02  0.96139384918E+02  0.00000000000E+00 0.  1.
         11    1    3    3    0    0  0.78574221722E+02  0.33343713278E+02  0.14148522512E+03  0.16523855622E+03  0.00000000000E+00 0. -1.
</event>
<event>
 7    1  0.4274778E-006  0.1129881E+03  0.7561462E-02  0.1255134E+00
         -1   -1    0    0    0  501 -0.00000000000E+00  0.00000000000E+00  0.60728420166E+02  0.60728420166E+02  0.00000000000E+00 0.  1.
          1   -1    0    0  501    0  0.00000000000E+00 -0.00000000000E+00 -0.22659953504E+03  0.22659953504E+03  0.00000000000E+00 0. -1.
         23    2    1    2    0    0 -0.25336267810E+02  0.33460041298E+02 -0.90379406477E+02  0.13531813239E+03  0.91548124003E+02 0.  0.
          5    1    1    2  502    0  0.62025620739E+02  0.17816075627E+02 -0.56913785370E+02  0.86146628163E+02  0.41800000000E+01 0.  1.
         -5    1    1    2    0  502 -0.36689352929E+02 -0.51276116925E+02 -0.18577923023E+02  0.65863194647E+02  0.41800000000E+01 0.  1.
        -11    1    3    3    0    0  0.12399307298E+02 -0.25363204734E+02 -0.13094643386E+02  0.31120807529E+02  0.00000000000E+00 0.  1.
         11    1    3    3    0    0 -0.37735575108E+02  0.58823246032E+02 -0.77284763091E+02  0.10419732486E+03  0.00000000000E+00 0. -1.
</event>
<event>
 7    1  0.4274778E-006  0.6613073E+02  0.7561462E-02  0.1373768E+00
          1   -1    0    0  501    0  0.00000000000E+00  0.00000000000E+00  0.15088866133E+03  0.15088866133E+03  0.00000000000E+00 0. -1.
         -1   -1    0    0    0  501 -0.00000000000E+00 -0.00000000000E+00 -0.93205112630E+02  0.93205112630E+02  0.00000000000E+00 0.  1.
         23    2    1    2    0    0 -0.23954643363E+02 -0.68357380156E+01  0.67712854816E+02  0.11615564554E+03  0.91030495054E+02 0.  0.
          5    1    1    2  502    0 -0.19369581124E+02  0.19916660703E+02 -0.56399148675E+02  0.63009447051E+02  0.41800000000E+01 0.  1.
         -5    1    1    2    0  502  0.43324224488E+02 -0.13080922688E+02  0.46369842556E+02  0.64928681371E+02  0.41800000000E+01 0.  1.
        -11    1    3    3    0    0  0.85307169584E+01  0.16598399545E+02 -0.15203327966E+02  0.24071169072E+02  0.00000000000E+00 0.  1.
         11    1    3    3    0    0 -0.32485360322E+02 -0.23434137560E+02  0.82916182782E+02  0.92084476464E+02  0.00000000000E+00 0. -1.
</event>
<event>
 7    1  0.4274778E-006  0.1409553E+03  0.7561462E-02  0.1212049E+00
          1   -1    0    0  501    0  0.00000000000E+00  0.00000000000E+00  0.90130438698E+03  0.90130438698E+03  0.00000000000E+00 0. -1.
         -1   -1    0    0    0  501 -0.00000000000E+00 -0.00000000000E+00 -0.32782991305E+02  0.32782991305E+02  0.00000000000E+00 0.  1.
         23    2    1    2    0    0 -0.12154471192E+03  0.49308444451E+02  0.40748478245E+03  0.43870221881E+03  0.95975773874E+02 0.  0.
          5    1    1    2  502    0  0.35403734171E+02 -0.49279248096E+02  0.60939178198E+02  0.86098342177E+02  0.41800000000E+01 0. -1.
         -5    1    1    2    0  502  0.86140977746E+02 -0.29196354636E-01  0.40009743503E+03  0.40928681730E+03  0.41800000000E+01 0. -1.
        -11    1    3    3    0    0 -0.71571398627E+02  0.45320935593E+02  0.12006038167E+03  0.14693858429E+03  0.00000000000E+00 0.  1.
         11    1    3    3    0    0 -0.49973313289E+02  0.39875088580E+01  0.28742440078E+03  0.29176363452E+03  0.00000000000E+00 0. -1.
</event>
<event>
 7    1  0.4274778E-006  0.1061885E+03  0.7561462E-02  0.1267796E+00
          1   -1    0    0  501    0  0.00000000000E+00  0.00000000000E+00  0.33534527195E+03  0.33534527195E+03  0.00000000000E+00 0. -1.
         -1   -1    0    0    0  501 -0.00000000000E+00 -0.00000000000E+00 -0.50552616647E+02  0.50552616647E+02  0.00000000000E+00 0.  1.
         23    2    1    2    0    0  0.54190683586E+02  0.45334315202E+02  0.14735639419E+03  0.18708091648E+03  0.91068831552E+02 0.  0.
          5    1    1    2  502    0  0.23354961262E+02  0.94225703778E+01 -0.65012246241E+01  0.26343450224E+02  0.41800000000E+01 0.  1.
         -5    1    1    2    0  502 -0.77545644848E+02 -0.54756885580E+02  0.14393748573E+03  0.17247352189E+03  0.41800000000E+01 0.  1.
        -11    1    3    3    0    0  0.48513050861E+02  0.24571197864E+01  0.13286535599E+03  0.14146644961E+03  0.00000000000E+00 0. -1.
         11    1    3    3    0    0  0.56776327250E+01  0.42877195415E+02  0.14491038197E+02  0.45614466873E+02  0.00000000000E+00 0.  1.
</event>
<event>
 7    1  0.4274778E-006  0.1125245E+03  0.7561462E-02  0.1255965E+00
         -1   -1    0    0    0  501 -0.00000000000E+00  0.00000000000E+00  0.40543196794E+03  0.40543196794E+03  0.00000000000E+00 0.  1.
          1   -1    0    0  501    0  0.00000000000E+00 -0.00000000000E+00 -0.35851000847E+02  0.35851000847E+02  0.00000000000E+00 0. -1.
         23    2    1    2    0    0  0.34423966067E+02 -0.23151662300E+02  0.21858653882E+03  0.24085980955E+03  0.92262473393E+02 0.  0.
          5    1    1    2  502    0 -0.77912782587E+02 -0.72806298633E+01  0.95125352492E+02  0.12324655917E+03  0.41800000000E+01 0. -1.
         -5    1    1    2    0  502  0.43488816520E+02  0.30432292163E+02  0.55869075784E+02  0.77176600065E+02  0.41800000000E+01 0. -1.
        -11    1    3    3    0    0  0.13692449288E+02 -0.54313938238E+02  0.17319361552E+03  0.18202613964E+03  0.00000000000E+00 0.  1.
         11    1    3    3    0    0  0.20731516779E+02  0.31162275939E+02  0.45392923294E+02  0.58833669907E+02  0.00000000000E+00 0. -1.
</event>
<event>
 7    1  0.4274778E-006  0.1280833E+03  0.7561462E-02  0.1230328E+00
         -1   -1    0    0    0  501 -0.00000000000E+00  0.00000000000E+00  0.30267604289E+02  0.30267604289E+02  0.00000000000E+00 0.  1.
          1   -1    0    0  501    0  0.00000000000E+00 -0.00000000000E+00 -0.64949415464E+03  0.64949415464E+03  0.00000000000E+00 0. -1.
         23    2    1    2    0    0  0.22355171999E+02  0.76797497306E+02 -0.35988648363E+03  0.38004139434E+03  0.92279851553E+02 0.  0.
          5    1    1    2  502    0  0.46598751200E+02 -0.49148129137E+02 -0.76156468852E+02  0.10200128607E+03  0.41800000000E+01 0. -1.
         -5    1    1    2    0  502 -0.68953923199E+02 -0.27649368169E+02 -0.18318359787E+03  0.19771907853E+03  0.41800000000E+01 0.  1.
        -11    1    3    3    0    0  0.38493017475E+02  0.86774572774E+02 -0.33799219483E+03  0.35107016769E+03  0.00000000000E+00 0. -1.
         11    1    3    3    0    0 -0.16137845476E+02 -0.99770754671E+01 -0.21894288796E+02  0.28971226646E+02  0.00000000000E+00 0.  1.
</event>
<event>
 7    1  0.4274778E-006  0.1053170E+03  0.7561462E-02  0.1269496E+00
          1   -1    0    0  501    0  0.00000000000E+00  0.00000000000E+00  0.58419500866E+03  0.58419500866E+03  0.00000000000E+00 0. -1.
         -1   -1    0    0    0  501 -0.00000000000E+00 -0.00000000000E+00 -0.25252328360E+02  0.25252328360E+02  0.00000000000E+00 0.  1.
         23    2    1    2    0    0 -0.13776423176E+02  0.52124632780E+02  0.27774181436E+03  0.29698674680E+03  0.90298644229E+02 0.  0.
          5    1    1    2  502    0  0.68234060484E+02 -0.42959271496E+02  0.16070719813E+03  0.17984899763E+03  0.41800000000E+01 0. -1.
         -5    1    1    2    0  502 -0.54457637308E+02 -0.91653612837E+01  0.12049366781E+03  0.13261159260E+03  0.41800000000E+01 0. -1.
        -11    1    3    3    0    0  0.11442942584E+02 -0.46791331977E+01 -0.13807320030E-01  0.12362662056E+02  0.00000000000E+00 0.  1.
         11    1    3    3    0    0 -0.25219365760E+02  0.56803765978E+02  0.27775562168E+03  0.28462408474E+03  0.00000000000E+00 0. -1.
</event>
<event>
 7    1  0.4274778E-006  0.8632192E+02  0.7561462E-02  0.1312011E+00
          1   -1    0    0  501    0  0.00000000000E+00  0.00000000000E+00  0.38397246040E+03  0.38397246040E+03  0.00000000000E+00 0. -1.
         -1   -1    0    0    0  501 -0.00000000000E+00 -0.00000000000E+00 -0.47610124128E+02  0.47610124128E+02  0.00000000000E+00 0.  1.
         23    2    1    2    0    0 -0.63504062841E+02  0.44756903319E+02  0.15834449820E+03  0.20055458493E+03  0.95463160607E+02 0.  0.
          5    1    1    2  502    0 -0.70496459857E+01 -0.17239436643E+02 -0.14589445476E+02  0.24025403297E+02  0.41800000000E+01 0. -1.
         -5    1    1    2    0  502  0.70553708826E+02 -0.27517466676E+02  0.19260728355E+03  0.20700259631E+03  0.41800000000E+01 0. -1.
        -11    1    3    3    0    0 -0.24782983388E+02  0.18488931278E+02 -0.43872959779E+01  0.31229556695E+02  0.00000000000E+00 0.  1.
         11    1    3    3    0    0 -0.38721079453E+02  0.26267972041E+02  0.16273179418E+03  0.16932502823E+03  0.00000000000E+00 0. -1.
</event>
<event>
 7    1  0.4274778E-006  0.1089066E+03  0.7561462E-02  0.1262608E+00
         -1   -1    0    0    0  501 -0.00000000000E+00  0.00000000000E+00  0.11120232487E+03  0.11120232487E+03  0.00000000000E+00 0.  1.
          1   -1    0    0  501    0  0.00000000000E+00 -0.00000000000E+00 -0.17864963277E+03  0.17864963277E+03  0.00000000000E+00 0. -1.
         23    2    1    2    0    0  0.23695313106E+02  0.32616791054E+02 -0.11686485133E+03  0.15532462257E+03  0.94037343521E+02 0.  0.
          5    1    1    2  502    0  0.65685674048E+01  0.40947360695E+02  0.17914971320E+01  0.41719471325E+02  0.41800000000E+01 0. -1.
         -5    1    1    2    0  502 -0.30263880511E+02 -0.73564151749E+02  0.47626046300E+02  0.92807863742E+02  0.41800000000E+01 0.  1.
        -11    1    3    3    0    0  0.55090831151E+02  0.61869165387E+01 -0.91788271661E+02  0.10723042678E+03  0.00000000000E+00 0.  1.
         11    1    3    3    0    0 -0.31395518045E+02  0.26429874515E+02 -0.25076579674E+02  0.48094195786E+02  0.00000000000E+00 0. -1.
</event>
<event>
 7    1  0.4274778E-006  0.2769863E+03  0.7561462E-02  0.1097346E+00
         -2   -1    0    0    0  501 -0.00000000000E+00  0.00000000000E+00  0.90011193073E+02  0.90011193073E+02  0.00000000000E+00 0.  1.
          2   -1    0    0  501    0  0.00000000000E+00 -0.00000000000E+00 -0.10196938439E+04  0.10196938439E+04  0.00000000000E+00 0. -1.
         23    2    1    2    0    0  0.20789067824E+03 -0.14887253549E+03 -0.67645925411E+03  0.72871686619E+03  0.89719466585E+02 0.  0.
          5    1    1    2  502    0  0.12583989122E+02  0.32960483786E+02 -0.30729065440E+02  0.46973376890E+02  0.41800000000E+01 0. -1.
         -5    1    1    2    0  502 -0.22047466737E+03  0.11591205170E+03 -0.22249433125E+03  0.33401479386E+03  0.41800000000E+01 0. -1.
        -11    1    3    3    0    0  0.17043368820E+03 -0.74409769078E+02 -0.42825935666E+03  0.46689456238E+03  0.00000000000E+00 0. -1.
         11    1    3    3    0    0  0.37456990043E+02 -0.74462766408E+02 -0.24819989744E+03  0.26182230382E+03  0.00000000000E+00 0.  1.
</event>
<event>
 7    1  0.4274778E-006  0.9383195E+02  0.7561462E-02  0.1293829E+00
         -2   -1    0    0    0  501 -0.00000000000E+00  0.00000000000E+00  0.28016469813E+03  0.28016469813E+03  0.00000000000E+00 0.  1.
          2   -1    0    0  501    0  0.00000000000E+00 -0.00000000000E+00 -0.44853960058E+03  0.44853960058E+03  0.00000000000E+00 0. -1.
         23    2    1    2    0    0  0.53579389606E+02  0.85999085817E+01 -0.41730249175E+03  0.43036301993E+03  0.90145714731E+02 0.  0.
          5    1    1    2  502    0  0.11481414318E+02 -0.24600764325E+02 -0.11220586636E+02  0.29671441565E+02  0.41800000000E+01 0. -1.
         -5    1    1    2    0  502 -0.65060803925E+02  0.16000855743E+02  0.26014817593E+03  0.26866983722E+03  0.41800000000E+01 0.  1.
        -11    1    3    3    0    0  0.44450209022E+02  0.40347993135E+02 -0.35303290529E+03  0.35810056388E+03  0.00000000000E+00 0. -1.
         11    1    3    3    0    0  0.91291805840E+01 -0.31748084553E+02 -0.64269586455E+02  0.72262456047E+02  0.00000000000E+00 0.  1.
</event>
<event>
 7    1  0.4274778E-006  0.1289188E+03  0.7561462E-02  0.1229069E+00
         -1   -1    0    0    0  501 -0.00000000000E+00  0.00000000000E+00  0.85217007803E+02  0.85217007803E+02  0.00000000000E+00 0.  1.
          1   -1    0    0  501    0  0.00000000000E+00 -0.00000000000E+00 -0.23975816825E+03  0.23975816825E+03  0.00000000000E+00 0. -1.
         23    2    1    2    0    0  0.92347323008E+01 -0.93549944960E+02 -0.51975896596E+02  0.13790661269E+03  0.86486227303E+02 0.  0.
          5    1    1    2  502    0  0.49295805235E+02  0.48288956837E+02 -0.12198284945E+02  0.70200928211E+02  0.41800000000E+01 0. -1.
         -5    1    1    2    0  502 -0.58530537536E+02  0.45260988124E+02 -0.90366978905E+02  0.11686763515E+03  0.41800000000E+01 0. -1.
        -11    1    3    3    0    0 -0.19718346265E+02 -0.35246294342E+01  0.12353518173E+02  0.23533924520E+02  0.00000000000E+00 0.  1.
         11    1    3    3    0    0  0.28953078566E+02 -0.90025315526E+02 -0.64329414769E+02  0.11437268817E+03  0.00000000000E+00 0. -1.
</event>
<event>
 7    1  0.4274778E-006  0.1219429E+03  0.7561462E-02  0.1239926E+00
          1   -1    0    0  501    0  0.00000000000E+00  0.00000000000E+00  0.29337473987E+03  0.29337473987E+03  0.00000000000E+00 0. -1.
         -1   -1    0    0    0  501 -0.00000000000E+00 -0.00000000000E+00 -0.90831445783E+02  0.90831445783E+02  0.00000000000E+00 0.  1.
         23    2    1    2    0    0 -0.96741792580E+02  0.35701868061E+02  0.17181909827E+03  0.21920785049E+03  0.88863273471E+02 0.  0.
          5    1    1    2  502    0  0.10317241807E+03 -0.56817916261E+02 -0.10216131606E+02  0.11829904989E+03  0.41800000000E+01 0. -1.
         -5    1    1    2    0  502 -0.64306254928E+01  0.21116048200E+02  0.40940327420E+02  0.46699285274E+02  0.41800000000E+01 0. -1.
        -11    1    3    3    0    0 -0.33662289337E+02  0.76141811908E+01  0.52138277762E+00  0.34516623801E+02  0.00000000000E+00 0.  1.
         11    1    3    3    0    0 -0.63079503242E+02  0.28087686870E+02  0.17129771550E+03  0.18469122669E+03  0.00000000000E+00 0. -1.
</event>
<event>
 7    1  0.4274778E-006  0.1984434E+03  0.7561462E-02  0.1151059E+00
         -1   -1    0    0    0  501 -0.00000000000E+00  0.00000000000E+00  0.40913622223E+02  0.40913622223E+02  0.00000000000E+00 0.  1.
          1   -1    0    0  501    0  0.00000000000E+00 -0.00000000000E+00 -0.10045133441E+04  0.10045133441E+04  0.00000000000E+00 0. -1.
         23    2    1    2    0    0  0.14932575970E+03 -0.80244108620E+02 -0.50835409364E+03  0.54379575985E+03  0.92480508370E+02 0.  0.
          5    1    1    2  502    0 -0.17135220993E+03  0.65507548570E+02 -0.38688210459E+03  0.42819160900E+03  0.41800000000E+01 0. -1.
         -5    1    1    2    0  502  0.22026450224E+02  0.14736560049E+02 -0.68363523619E+02  0.73439597447E+02  0.41800000000E+01 0. -1.
        -11    1    3    3    0    0  0.11200842513E+03 -0.17226909772E+02 -0.37380407171E+03  0.39060483580E+03  0.00000000000E+00 0. -1.
         11    1    3    3    0    0  0.37317334574E+02 -0.63017198848E+02 -0.13455002193E+03  0.15319092405E+03  0.00000000000E+00 0.  1.
</event>
<event>
 7    1  0.4274778E-006  0.1014495E+03  0.7561462E-02  0.1277277E+00
         -2   -1    0    0    0  501 -0.00000000000E+00  0.00000000000E+00  0.12577773959E+03  0.12577773959E+03  0.00000000000E+00 0.  1.
          2   -1    0    0  501    0  0.00000000000E+00 -0.00000000000E+00 -0.17718540691E+03  0.17718540691E+03  0.00000000000E+00 0. -1.
         23    2    1    2    0    0 -0.45161629826E+02  0.51220449434E+00 -0.11665395964E+03  0.15481515123E+03  0.91212661326E+02 0.  0.
          5    1    1    2  502    0  0.68685038210E+01  0.59543576804E+02  0.18569622720E+02  0.62888132198E+02  0.41800000000E+01 0. -1.
         -5    1    1    2    0  502  0.38293126005E+02 -0.60055781299E+02  0.46676669603E+02  0.85259863077E+02  0.41800000000E+01 0. -1.
        -11    1    3    3    0    0 -0.42537202365E+02  0.23318983793E+02 -0.12195944321E+03  0.13125278807E+03  0.00000000000E+00 0. -1.
         11    1    3    3    0    0 -0.26244274617E+01 -0.22806779299E+02  0.53054835608E+01  0.23562363152E+02  0.00000000000E+00 0.  1.
</event>
<event>
 7    1  0.4274778E-006  0.1075366E+03  0.7561462E-02  0.1265201E+00
         -2   -1    0    0    0  501 -0.00000000000E+00  0.00000000000E+00  0.38844097350E+02  0.38844097350E+02  0.00000000000E+00 0.  1.
          2   -1    0    0  501    0  0.00000000000E+00 -0.00000000000E+00 -0.48861899870E+03  0.48861899870E+03  0.00000000000E+00 0. -1.
         23    2    1    2    0    0  0.10922297191E+02  0.71287108621E+02 -0.28899621667E+03  0.31136452429E+03  0.90707801793E+02 0.  0.
          5    1    1    2  502    0 -0.43678410090E+02 -0.58774778411E+02 -0.27681511986E+02  0.78396534306E+02  0.41800000000E+01 0. -1.
         -5    1    1    2    0  502  0.32756112899E+02 -0.12512330209E+02 -0.13309717269E+03  0.13770203745E+03  0.41800000000E+01 0. -1.
        -11    1    3    3    0    0  0.28857240758E+02 -0.38977123215E+01 -0.14539760979E+03  0.14828485235E+03  0.00000000000E+00 0. -1.
         11    1    3    3    0    0 -0.17934943567E+02  0.75184820942E+02 -0.14359860688E+03  0.16307967194E+03  0.00000000000E+00 0.  1.
</event>
<event>
 7    1  0.4274778E-006  0.8540824E+02  0.7561462E-02  0.1314368E+00
          4   -1    0    0  501    0  0.00000000000E+00  0.00000000000E+00  0.11214415363E+03  0.11214415363E+03  0.00000000000E+00 0. -1.
         -4   -1    0    0    0  501 -0.00000000000E+00 -0.00000000000E+00 -0.15762347004E+03  0.15762347004E+03  0.00000000000E+00 0.  1.
         23    2    1    2    0    0  0.46222447903E+02  0.19211131166E+02  0.36287826275E+02  0.11216734572E+03  0.93590196384E+02 0.  0.
          5    1    1    2  502    0  0.54452404149E+01 -0.34454519853E+02 -0.95579343130E+02  0.10183146770E+03  0.41800000000E+01 0.  1.
         -5    1    1    2    0  502 -0.51667688318E+02  0.15243388687E+02  0.13812200449E+02  0.55768810244E+02  0.41800000000E+01 0.  1.
        -11    1    3    3    0    0  0.62789439721E+02  0.15568217975E+02  0.56422847571E+02  0.85839506519E+02  0.00000000000E+00 0. -1.
         11    1    3    3    0    0 -0.16566991818E+02  0.36429131913E+01 -0.20135021295E+02  0.26327839201E+02  0.00000000000E+00 0.  1.
</event>
<event>
 7    1  0.4274778E-006  0.9858401E+02  0.7561462E-02  0.1283302E+00
         -1   -1    0    0    0  501 -0.00000000000E+00  0.00000000000E+00  0.52376829007E+02  0.52376829007E+02  0.00000000000E+00 0.  1.
          1   -1    0    0  501    0  0.00000000000E+00 -0.00000000000E+00 -0.26347576735E+03  0.26347576735E+03  0.00000000000E+00 0. -1.
         23    2    1    2    0    0 -0.30004012784E+01 -0.16855399688E+02 -0.14981458054E+03  0.17550703525E+03  0.89806480695E+02 0.  0.
          5    1    1    2  502    0 -0.27739575277E+02  0.52642779967E+02  0.38925464203E+01  0.59777676744E+02  0.41800000000E+01 0.  1.
         -5    1    1    2    0  502  0.30739976555E+02 -0.35787380279E+02 -0.65176904221E+02  0.80567884357E+02  0.41800000000E+01 0.  1.
        -11    1    3    3    0    0 -0.12983390525E+02 -0.52012392117E+02 -0.10300432399E+03  0.11611954239E+03  0.00000000000E+00 0.  1.
         11    1    3    3    0    0  0.99829892464E+01  0.35156992428E+02 -0.46810256548E+02  0.59387492867E+02  0.00000000000E+00 0. -1.
</event>
<event>
 7    1  0.4274778E-006  0.1333146E+03  0.7561462E-02  0.1222619E+00
         -1   -1    0    0    0  501 -0.00000000000E+00  0.00000000000E+00  0.11772230359E+03  0.11772230359E+03  0.00000000000E+00 0.  1.
          1   -1    0    0  501    0  0.00000000000E+00 -0.00000000000E+00 -0.23471310722E+03  0.23471310722E+03  0.00000000000E+00 0. -1.
         23    2    1    2    0    0 -0.94372608605E+02  0.77056438305E+02 -0.85845395314E+02  0.17505970865E+03  0.91829111715E+02 0.  0.
          5    1    1    2  502    0  0.85354254984E+02 -0.40622860307E+02 -0.74098400053E+02  0.12018157477E+03  0.41800000000E+01 0.  1.
         -5    1    1    2    0  502  0.90183536213E+01 -0.36433577997E+02  0.42952991740E+02  0.57194127384E+02  0.41800000000E+01 0.  1.
        -11    1    3    3    0    0 -0.32141132025E+02  0.62578622966E+02 -0.86073954561E+02  0.11116592137E+03  0.00000000000E+00 0. -1.
         11    1    3    3    0    0 -0.62231476580E+02  0.14477815339E+02  0.22855924622E+00  0.63893787285E+02  0.00000000000E+00 0.  1.
</event>
<event>
 7    1  0.4274778E-006  0.1149922E+03  0.7561462E-02  0.1251595E+00
         -2   -1    0    0    0  501 -0.00000000000E+00  0.00000000000E+00  0.10858113383E+03  0.10858113383E+03  0.00000000000E+00 0.  1.
          2   -1    0    0  501    0  0.00000000000E+00 -0.00000000000E+00 -0.45742848249E+03  0.45742848249E+03  0.00000000000E+00 0. -1.
         23    2    1    2    0    0 -0.80335009339E+01 -0.50264746872E+02 -0.14087655978E+03  0.17599021369E+03  0.92386515804E+02 0.  0.
          5    1    1    2  502    0 -0.54094398750E+02  0.62824672116E+02 -0.28113106208E+03  0.29313015858E+03  0.41800000000E+01 0. -1.
         -5    1    1    2    0  502  0.62127899684E+02 -0.12559925244E+02  0.73160273191E+02  0.96889244060E+02  0.41800000000E+01 0.  1.
        -11    1    3    3    0    0  0.78540308285E+01  0.14649454665E+02  0.34188393614E+01  0.16969996606E+02  0.00000000000E+00 0.  1.
         11    1    3    3    0    0 -0.15887531762E+02 -0.64914201537E+02 -0.14429539914E+03  0.15902021708E+03  0.00000000000E+00 0. -1.
</event>
<event>
 7    1  0.4274778E-006  0.9458355E+02  0.7561462E-02  0.1292117E+00
          2   -1    0    0  501    0  0.00000000000E+00  0.00000000000E+00  0.80679047868E+02  0.80679047868E+02  0.00000000000E+00 0. -1.
         -2   -1    0    0    0  501 -0.00000000000E+00 -0.00000000000E+00 -0.15028817904E+03  0.15028817904E+03  0.00000000000E+00 0.  1.
         23    2    1    2    0    0  0.11892896924E+02 -0.14969422350E+02 -0.23213685794E+02  0.96215170873E+02  0.91394525521E+02 0.  0.
          5    1    1    2  502    0 -0.21156394091E+02 -0.50166322401E+02 -0.82603846646E+00  0.54611424205E+02  0.41800000000E+01 0.  1.
         -5    1    1    2    0  502  0.92634971674E+01  0.65135744751E+02 -0.45569406911E+02  0.80140631831E+02  0.41800000000E+01 0.  1.
        -11    1    3    3    0    0  0.34361688321E+02 -0.26490745068E+02  0.18729719132E+02  0.47257672153E+02  0.00000000000E+00 0. -1.
         11    1    3    3    0    0 -0.22468791398E+02  0.11521322718E+02 -0.41943404927E+02  0.48957498720E+02  0.00000000000E+00 0.  1.
</event>
<event>
 7    1  0.4274778E-006  0.1457121E+03  0.7561462E-02  0.1205843E+00
         -4   -1    0    0    0  501 -0.00000000000E+00  0.00000000000E+00  0.49806132661E+02  0.49806132661E+02  0.00000000000E+00 0.  1.
          4   -1    0    0  501    0  0.00000000000E+00 -0.00000000000E+00 -0.52346082328E+03  0.52346082328E+03  0.00000000000E+00 0. -1.
         23    2    1    2    0    0 -0.74170868946E+02  0.92364992981E+02 -0.23150520993E+03  0.27608664133E+03  0.92717644332E+02 0.  0.
          5    1    1    2  502    0  0.61657651315E+02  0.11186987958E+02 -0.57934477276E+02  0.85444079505E+02  0.41800000000E+01 0. -1.
         -5    1    1    2    0  502  0.12513217631E+02 -0.10355198094E+03 -0.18421500342E+03  0.21173623510E+03  0.41800000000E+01 0. -1.
        -11    1    3    3    0    0 -0.13630563252E+02  0.45998901304E+02 -0.17423611870E+03  0.18072054736E+03  0.00000000000E+00 0. -1.
         11    1    3    3    0    0 -0.60540305694E+02  0.46366091677E+02 -0.57269091224E+02  0.95366093977E+02  0.00000000000E+00 0.  1.
</event>
<event>
 7    1  0.4274778E-006  0.1426982E+03  0.7561462E-02  0.1209744E+00
         -1   -1    0    0    0  501 -0.00000000000E+00  0.00000000000E+00  0.63546711366E+03  0.63546711366E+03  0.00000000000E+00 0.  1.
          1   -1    0    0  501    0  0.00000000000E+00 -0.00000000000E+00 -0.46023615287E+02  0.46023615287E+02  0.00000000000E+00 0. -1.
         23    2    1    2    0    0  0.30069566436E+01  0.10780438757E+03  0.12949925916E+03  0.19278992286E+03  0.93632624998E+02 0.  0.
          5    1    1    2  502    0  0.45429401829E+02 -0.28512537735E+02  0.72684391773E+02  0.90428361513E+02  0.41800000000E+01 0. -1.
         -5    1    1    2    0  502 -0.48436358472E+02 -0.79291849832E+02  0.38725984744E+03  0.39827244458E+03  0.41800000000E+01 0. -1.
        -11    1    3    3    0    0 -0.28166858171E+02  0.10332389279E+03  0.78245313442E+02  0.13263305695E+03  0.00000000000E+00 0. -1.
         11    1    3    3    0    0  0.31173814815E+02  0.44804947776E+01  0.51253945721E+02  0.60156865905E+02  0.00000000000E+00 0.  1.
</event>
<event>
 7    1  0.4274778E-006  0.1473062E+03  0.7561462E-02  0.1203823E+00
          1   -1    0    0  501    0  0.00000000000E+00  0.00000000000E+00  0.97819294879E+03  0.97819294879E+03  0.00000000000E+00 0. -1.
         -1   -1    0    0    0  501 -0.00000000000E+00 -0.00000000000E+00 -0.27431261093E+02  0.27431261093E+02  0.00000000000E+00 0.  1.
         23    2    1    2    0    0  0.54098528354E+02  0.11045789194E+03  0.47442905890E+03  0.49801327035E+03  0.88355468720E+02 0.  0.
          5    1    1    2  502    0  0.21406264850E+02 -0.66261547520E+02  0.32810635838E+03  0.33544012232E+03  0.41800000000E+01 0. -1.
         -5    1    1    2    0  502 -0.75504793204E+02 -0.44196344422E+02  0.14822627041E+03  0.17217081721E+03  0.41800000000E+01 0. -1.
        -11    1    3    3    0    0 -0.12934920062E+01  0.66599596151E+02  0.33662869702E+03  0.34315602717E+03  0.00000000000E+00 0. -1.
         11    1    3    3    0    0  0.55392020360E+02  0.43858295792E+02  0.13780036188E+03  0.15485724318E+03  0.00000000000E+00 0.  1.
</event>
<event>
 7    1  0.4274778E-006  0.9831071E+02  0.7561462E-02  0.1283889E+00
          4   -1    0    0  501    0  0.00000000000E+00  0.00000000000E+00  0.26562977283E+03  0.26562977283E+03  0.00000000000E+00 0. -1.
         -4   -1    0    0    0  501 -0.00000000000E+00 -0.00000000000E+00 -0.61321065649E+02  0.61321065649E+02  0.00000000000E+00 0.  1.
         23    2    1    2    0    0 -0.12624725829E+01 -0.31532367782E+02  0.15236294322E+03  0.18787650445E+03  0.10529591826E+03 0.  0.
          5    1    1    2  502    0 -0.45325976655E+02 -0.16540888474E+02 -0.80352333907E+01  0.49092591365E+02  0.41800000000E+01 0.  1.
         -5    1    1    2    0  502  0.46588449238E+02  0.48073256255E+02  0.59980997351E+02  0.89981742663E+02  0.41800000000E+01 0.  1.
        -11    1    3    3    0    0 -0.37446489699E+02 -0.22979789860E+02  0.16359390984E+02  0.46882192847E+02  0.00000000000E+00 0.  1.
         11    1    3    3    0    0  0.36184017116E+02 -0.85525779213E+01  0.13600355223E+03  0.14099431160E+03  0.00000000000E+00 0. -1.
</event>
<event>
 6    1  0.4274778E-006  0.1115076E+03  0.7561462E-02  0.1257803E+00
         -1   -1    0    0    0  501 -0.00000000000E+00  0.00000000000E+00  0.24759880655E+02  0.24759880655E+02  0.00000000000E+00 0.  1.
          1   -1    0    0  501    0  0.00000000000E+00 -0.00000000000E+00 -0.69104201105E+03  0.69104201105E+03  0.00000000000E+00 0. -1.
          5    1    1    2  502    0 -0.42377944270E+01  0.49592904163E+02 -0.39153777331E+02  0.63465783885E+02  0.41800000000E+01 0.  1.
         -5    1    1    2    0  502  0.65625591683E+02  0.19726345119E+02 -0.33153958026E+03  0.33857320132E+03  0.41800000000E+01 0.  1.
        -11    1    1    2    0    0 -0.69443357670E+02 -0.57767893328E+02 -0.24054964388E+03  0.25695065790E+03  0.00000000000E+00 0.  1.
         11    1    1    2    0    0  0.80555604138E+01 -0.11551355954E+02 -0.55039128936E+02  0.56812248608E+02  0.00000000000E+00 0. -1.
</event>
<event>
 7    1  0.4274778E-006  0.1114574E+03  0.7561462E-02  0.1257895E+00
          2   -1    0    0  501    0  0.00000000000E+00  0.00000000000E+00  0.25477854258E+03  0.25477854258E+03  0.00000000000E+00 0.  1.
         -2   -1    0    0    0  501 -0.00000000000E+00 -0.00000000000E+00 -0.75654547761E+02  0.75654547761E+02  0.00000000000E+00 0. -1.
         23    2    1    2    0    0 -0.21255364006E+02  0.79591773888E+02  0.10766026938E+03  0.16447567203E+03  0.93138993541E+02 0.  0.
          5    1    1    2  502    0 -0.37009579424E+01  0.15868341231E+02 -0.23533029984E+02  0.28927102229E+02  0.41800000000E+01 0.  1.
         -5    1    1    2    0  502  0.24956321948E+02 -0.95460115119E+02  0.94996755424E+02  0.13703031608E+03  0.41800000000E+01 0.  1.
        -11    1    3    3    0    0  0.14104230715E+02 -0.55398556592E+01  0.57634991104E+02  0.59593720511E+02  0.00000000000E+00 0.  1.
         11    1    3    3    0    0 -0.35359594721E+02  0.85131629548E+02  0.50025278271E+02  0.10488195152E+03  0.00000000000E+00 0. -1.
</event>
<event>
 7    1  0.4274778E-006  0.8824429E+02  0.7561462E-02  0.1307160E+00
          2   -1    0    0  501    0  0.00000000000E+00  0.00000000000E+00  0.30556291177E+03  0.30556291177E+03  0.00000000000E+00 0. -1.
         -2   -1    0    0    0  501 -0.00000000000E+00 -0.00000000000E+00 -0.36682706672E+02  0.36682706672E+02  0.00000000000E+00 0.  1.
         23    2    1    2    0    0  0.31749801212E+01  0.29601330472E+02  0.11373447402E+03  0.14074157580E+03  0.77371450236E+02 0.  0.
          5    1    1    2  502    0  0.58473572065E+02 -0.11498568930E+02  0.48589028236E+02  0.77004816618E+02  0.41800000000E+01 0. -1.
         -5    1    1    2    0  502 -0.61648552186E+02 -0.18102761542E+02  0.10655670284E+03  0.12449922603E+03  0.41800000000E+01 0. -1.
        -11    1    3    3    0    0 -0.85043386683E+01 -0.87913465688E+01 -0.65954208133E+01  0.13896442940E+02  0.00000000000E+00 0.  1.
         11    1    3    3    0    0  0.11679318790E+02  0.38392677041E+02  0.12032989484E+03  0.12684513286E+03  0.00000000000E+00 0. -1.
</event>
<event>
 7    1  0.4274778E-006  0.1067489E+03  0.7561462E-02  0.1266712E+00
          1   -1    0    0  501    0  0.00000000000E+00  0.00000000000E+00  0.16397933700E+03  0.16397933700E+03  0.00000000000E+00 0. -1.
         -1   -1    0    0    0  501 -0.00000000000E+00 -0.00000000000E+00 -0.16118558177E+03  0.16118558177E+03  0.00000000000E+00 0.  1.
         23    2    1    2    0    0 -0.33186333229E+01 -0.76977807811E+02  0.89252338160E+02  0.15469726737E+03  0.10014323962E+03 0.  0.
          5    1    1    2  502    0  0.33184247847E+02  0.71867432460E+02 -0.10733686177E+03  0.13343461488E+03  0.41800000000E+01 0.  1.
         -5    1    1    2    0  502 -0.29865614524E+02  0.51103753505E+01  0.20878278839E+02  0.37033036527E+02  0.41800000000E+01 0.  1.
        -11    1    3    3    0    0  0.13978978120E+02  0.85475011686E+01  0.60722885844E+02  0.62894677602E+02  0.00000000000E+00 0. -1.
         11    1    3    3    0    0 -0.17297611443E+02 -0.85525308979E+02  0.28529452316E+02  0.91802589763E+02  0.00000000000E+00 0.  1.
</event>
<event>
 7    1  0.4274778E-006  0.8143415E+02  0.7561462E-02  0.1325030E+00
          2   -1    0    0  501    0  0.00000000000E+00  0.00000000000E+00  0.98835779516E+02  0.98835779516E+02  0.00000000000E+00 0. -1.
         -2   -1    0    0    0  501 -0.00000000000E+00 -0.00000000000E+00 -0.25984355024E+03  0.25984355024E+03  0.00000000000E+00 0.  1.
         23    2    1    2    0    0 -0.53570045198E+02 -0.36885246792E+02  0.34766839633E+02  0.11741008951E+03  0.91357127840E+02 0.  0.
          5    1    1    2  502    0  0.52686607389E+02  0.83253489485E-01 -0.12530583647E+02  0.54317340287E+02  0.41800000000E+01 0.  1.
         -5    1    1    2    0  502  0.88343780820E+00  0.36801993303E+02 -0.18324402671E+03  0.18695189996E+03  0.41800000000E+01 0.  1.
        -11    1    3    3    0    0  0.16654246597E+01 -0.12461996861E+02 -0.27762632104E+02  0.30476855914E+02  0.00000000000E+00 0.  1.
         11    1    3    3    0    0 -0.55235469857E+02 -0.24423249932E+02  0.62529471737E+02  0.86933233595E+02  0.00000000000E+00 0. -1.
</event>
<event>
 7    1  0.4274778E-006  0.1059147E+03  0.7561462E-02  0.1268328E+00
          3   -1    0    0  501    0  0.00000000000E+00  0.00000000000E+00  0.17564141700E+03  0.17564141700E+03  0.00000000000E+00 0. -1.
         -3   -1    0    0    0  501 -0.00000000000E+00 -0.00000000000E+00 -0.10500898672E+03  0.10500898672E+03  0.00000000000E+00 0.  1.
         23    2    1    2    0    0 -0.32439001787E+02 -0.40191772824E+02  0.98163896437E+02  0.14254397620E+03  0.89526348901E+02 0.  0.
          5    1    1    2  502    0  0.74585966647E+02  0.47171958797E+02 -0.34059472008E+02  0.94687803602E+02  0.41800000000E+01 0.  1.
         -5    1    1    2    0  502 -0.42146964861E+02 -0.69801859723E+01  0.65280058512E+01  0.43418623925E+02  0.41800000000E+01 0.  1.
        -11    1    3    3    0    0  0.14738175591E+02  0.46618312513E+01 -0.84582953509E+01  0.17620705168E+02  0.00000000000E+00 0.  1.
         11    1    3    3    0    0 -0.47177177377E+02 -0.44853604076E+02  0.10662219179E+03  0.12492327103E+03  0.00000000000E+00 0. -1.
</event>
<event>
 7    1  0.4274778E-006  0.1517150E+03  0.7561462E-02  0.1198381E+00
          1   -1    0    0  501    0  0.00000000000E+00  0.00000000000E+00  0.14627375609E+04  0.14627375609E+04  0.00000000000E+00 0. -1.
         -1   -1    0    0    0  501 -0.00000000000E+00 -0.00000000000E+00 -0.20832065975E+02  0.20832065975E+02  0.00000000000E+00 0.  1.
         23    2    1    2    0    0  0.70030823402E+02  0.11443609048E+03  0.56250850788E+03  0.58524543463E+03  0.89980343909E+02 0.  0.
          5    1    1    2  502    0  0.65529118697E+01 -0.86299546798E+02  0.62891844763E+03  0.63485938491E+03  0.41800000000E+01 0.  1.
         -5    1    1    2    0  502 -0.76583735271E+02 -0.28136543680E+02  0.25047853941E+03  0.26346480733E+03  0.41800000000E+01 0.  1.
        -11    1    3    3    0    0  0.12533275940E+02  0.33803112041E+02  0.41784052928E+02  0.55187321628E+02  0.00000000000E+00 0. -1.
         11    1    3    3    0    0  0.57497547462E+02  0.80632978437E+02  0.52072445495E+03  0.53005811300E+03  0.00000000000E+00 0.  1.
</event>
<event>
 7    1  0.4274778E-006  0.1059215E+03  0.7561462E-02  0.1268315E+00
          2   -1    0    0  501    0  0.00000000000E+00  0.00000000000E+00  0.31915095310E+03  0.31915095310E+03  0.00000000000E+00 0. -1.
         -2   -1    0    0    0  501 -0.00000000000E+00 -0.00000000000E+00 -0.38593573061E+02  0.38593573061E+02  0.00000000000E+00 0.  1.
         23    2    1    2    0    0  0.22078460347E+01  0.10303185183E+02  0.12077407414E+03  0.15453283968E+03  0.95827925707E+02 0.  0.
          5    1    1    2  502    0 -0.51302221498E+02 -0.41673510882E+02  0.97067004012E+02  0.11750776616E+03  0.41800000000E+01 0.  1.
         -5    1    1    2    0  502  0.49094375463E+02  0.31370325700E+02  0.62716301885E+02  0.85703920323E+02  0.41800000000E+01 0.  1.
        -11    1    3    3    0    0  0.43237974808E+02 -0.47551460670E+01  0.93211299076E+02  0.10286146098E+03  0.00000000000E+00 0. -1.
         11    1    3    3    0    0 -0.41030128773E+02  0.15058331250E+02  0.27562775064E+02  0.51671378696E+02  0.00000000000E+00 0.  1.
</event>
<event>
 7    1  0.4274778E-006  0.1115365E+03  0.7561462E-02  0.1257751E+00
         -1   -1    0    0    0  501 -0.00000000000E+00  0.00000000000E+00  0.26243512082E+02  0.26243512082E+02  0.00000000000E+00 0.  1.
          1   -1    0    0  501    0  0.00000000000E+00 -0.00000000000E+00 -0.68690373006E+03  0.68690373006E+03  0.00000000000E+00 0. -1.
         23    2    1    2    0    0  0.34260257431E+02 -0.68898389947E+02 -0.35402786436E+03  0.37315955348E+03  0.89395582858E+02 0.  0.
          5    1    1    2  502    0 -0.57690482591E+02  0.10726725120E+02 -0.54685947288E+02  0.80319858342E+02  0.41800000000E+01 0. -1.
         -5    1    1    2    0  502  0.23430225160E+02  0.58171664827E+02 -0.25194640633E+03  0.25966783032E+03  0.41800000000E+01 0. -1.
        -11    1    3    3    0    0  0.39216159166E+02 -0.76636709689E+01 -0.55571453885E+02  0.68445784964E+02  0.00000000000E+00 0.  1.
         11    1    3    3    0    0 -0.49559017353E+01 -0.61234718978E+02 -0.29845641047E+03  0.30471376852E+03  0.00000000000E+00 0. -1.
</event>
<event>
 7    1  0.4274778E-006  0.9687506E+02  0.7561462E-02  0.1287008E+00
         -2   -1    0    0    0  501 -0.00000000000E+00  0.00000000000E+00  0.17735883733E+03  0.17735883733E+03  0.00000000000E+00 0.  1.
          2   -1    0    0  501    0  0.00000000000E+00 -0.00000000000E+00 -0.71508320967E+02  0.71508320967E+02  0.00000000000E+00 0. -1.
         23    2    1    2    0    0  0.10120866268E+02 -0.16862173614E+02  0.16551116810E+02  0.93919803829E+02  0.90333965100E+02 0.  0.
          5    1    1    2  502    0  0.57026260247E+02  0.10167988966E+02  0.31912544949E+02  0.66266622689E+02  0.41800000000E+01 0. -1.
         -5    1    1    2    0  502 -0.67147126515E+02  0.66941846485E+01  0.57386854603E+02  0.88680731778E+02  0.41800000000E+01 0. -1.
        -11    1    3    3    0    0  0.25791081989E+02 -0.35394953033E+02  0.40624687649E+02  0.59735649800E+02  0.00000000000E+00 0.  1.
         11    1    3    3    0    0 -0.15670215721E+02  0.18532779419E+02 -0.24073570840E+02  0.34184154030E+02  0.00000000000E+00 0. -1.
</event>
<event>
 7    1  0.4274778E-006  0.1182086E+03  0.7561462E-02  0.1246082E+00
         -4   -1    0    0    0  501 -0.00000000000E+00  0.00000000000E+00  0.77342035916E+03  0.77342035916E+03  0.00000000000E+00 0.  1.
          4   -1    0    0  501    0  0.00000000000E+00 -0.00000000000E+00 -0.63554397195E+02  0.63554397195E+02  0.00000000000E+00 0. -1.
         23    2    1    2    0    0 -0.43371076925E+02  0.58405872506E+02  0.35916892052E+01  0.11602899651E+03  0.90319054157E+02 0.  0.
          5    1    1    2  502    0 -0.39019294634E+01  0.34862582806E+02  0.26972191753E+03  0.27202575232E+03  0.41800000000E+01 0. -1.
         -5    1    1    2    0  502  0.47273006388E+02 -0.93268455312E+02  0.43655235524E+03  0.44892000752E+03  0.41800000000E+01 0. -1.
        -11    1    3    3    0    0 -0.38406584567E+02  0.72200437410E+02 -0.23617026801E+02  0.85121870604E+02  0.00000000000E+00 0. -1.
         11    1    3    3    0    0 -0.49644923582E+01 -0.13794564904E+02  0.27208716006E+02  0.30907125909E+02  0.00000000000E+00 0.  1.
</event>
<event>
 7    1  0.4274778E-006  0.1540488E+03  0.7561462E-02  0.1195584E+00
         -1   -1    0    0    0  501 -0.00000000000E+00  0.00000000000E+00  0.77403371199E+02  0.77403371199E+02  0.00000000000E+00 0.  1.
          1   -1    0    0  501    0  0.00000000000E+00 -0.00000000000E+00 -0.75144507788E+03  0.75144507788E+03  0.00000000000E+00 0. -1.
         23    2    1    2    0    0 -0.11003821494E+02  0.13577626817E+03 -0.61261892906E+03  0.63397384197E+03  0.89803123409E+02 0.  0.
          5    1    1    2  502    0 -0.18763408271E+02 -0.74913357318E+02  0.28309750353E+02  0.82358915483E+02  0.41800000000E+01 0. -1.
         -5    1    1    2    0  502  0.29767229765E+02 -0.60862910853E+02 -0.89732527978E+02  0.11251569163E+03  0.41800000000E+01 0. -1.
        -11    1    3    3    0    0 -0.34878978581E+02  0.12102992273E+02 -0.12380129645E+03  0.12918895684E+03  0.00000000000E+00 0. -1.
         11    1    3    3    0    0  0.23875157087E+02  0.12367327590E+03 -0.48881763261E+03  0.50478488512E+03  0.00000000000E+00 0.  1.
</event>
<event>
 7    1  0.4274778E-006  0.7380137E+02  0.7561462E-02  0.1347623E+00
          2   -1    0    0  501    0  0.00000000000E+00  0.00000000000E+00  0.30195918947E+03  0.30195918947E+03  0.00000000000E+00 0. -1.
         -2   -1    0    0    0  501 -0.00000000000E+00 -0.00000000000E+00 -0.40635566916E+02  0.40635566916E+02  0.00000000000E+00 0.  1.
         23    2    1    2    0    0 -0.71905133919E+01 -0.14053944478E+02  0.82495888956E+02  0.12378995499E+03  0.90934946103E+02 0.  0.
          5    1    1    2  502    0 -0.35463755688E+02 -0.33084567216E+02  0.12913925447E+03  0.13800973155E+03  0.41800000000E+01 0.  1.
         -5    1    1    2    0  502  0.42654269079E+02  0.47138511693E+02  0.49688479128E+02  0.80795069858E+02  0.41800000000E+01 0.  1.
        -11    1    3    3    0    0 -0.17211787122E+02  0.87359203449E+00  0.98332010794E+02  0.99830822524E+02  0.00000000000E+00 0. -1.
         11    1    3    3    0    0  0.10021273730E+02 -0.14927536512E+02 -0.15836121838E+02  0.23959132463E+02  0.00000000000E+00 0.  1.
</event>
<event>
 7    1  0.4274778E-006  0.2897848E+03  0.7561462E-02  0.1090462E+00
          1   -1    0    0  501    0  0.00000000000E+00  0.00000000000E+00  0.11147924312E+03  0.11147924312E+03  0.00000000000E+00 0. -1.
         -1   -1    0    0    0  501 -0.00000000000E+00 -0.00000000000E+00 -0.82938611229E+03  0.82938611229E+03  0.00000000000E+00 0.  1.
         23    2    1    2    0    0  0.17148779328E+03 -0.22678223438E+03 -0.32061787501E+03  0.43655928804E+03  0.83366330914E+02 0.  0.
          5    1    1    2  502    0  0.12673131701E+01  0.20375801354E+02  0.38723860600E+01  0.21195450863E+02  0.41800000000E+01 0. -1.
         -5    1    1    2    0  502 -0.17275510645E+03  0.20640643303E+03 -0.40116138022E+03  0.48311061650E+03  0.41800000000E+01 0. -1.
        -11    1    3    3    0    0  0.11890242140E+03 -0.19409705227E+03 -0.28633598807E+03  0.36578648086E+03  0.00000000000E+00 0.  1.
         11    1    3    3    0    0  0.52585371875E+02 -0.32685182109E+02 -0.34281886935E+02  0.70772807183E+02  0.00000000000E+00 0. -1.
</event>
<event>
 7    1  0.4274778E-006  0.1472806E+03  0.7561462E-02  0.1203855E+00
          1   -1    0    0  501    0  0.00000000000E+00  0.00000000000E+00  0.56203868260E+03  0.56203868260E+03  0.00000000000E+00 0. -1.
         -1   -1    0    0    0  501 -0.00000000000E+00 -0.00000000000E+00 -0.62882038320E+02  0.62882038320E+02  0.00000000000E+00 0.  1.
         23    2    1    2    0    0 -0.27485411359E+02 -0.11552552426E+03  0.39728725840E+03  0.42464828699E+03  0.91582789662E+02 0.  0.
          5    1    1    2  502    0  0.15116723934E+02  0.13941982712E+03  0.65489487872E+02  0.15483135651E+03  0.41800000000E+01 0.  1.
         -5    1    1    2    0  502  0.12368687425E+02 -0.23894302860E+02  0.36379898010E+02  0.45441077419E+02  0.41800000000E+01 0.  1.
        -11    1    3    3    0    0 -0.14726078259E+01 -0.91843124176E+02  0.36670749466E+03  0.37803665784E+03  0.00000000000E+00 0.  1.
         11    1    3    3    0    0 -0.26012803533E+02 -0.23682400089E+02  0.30579763745E+02  0.46611629153E+02  0.00000000000E+00 0. -1.
</event>
<event>
 7    1  0.4274778E-006  0.2209269E+03  0.7561462E-02  0.1133194E+00
          2   -1    0    0  501    0  0.00000000000E+00  0.00000000000E+00  0.62265661932E+03  0.62265661932E+03  0.00000000000E+00 0. -1.
         -2   -1    0    0    0  501 -0.00000000000E+00 -0.00000000000E+00 -0.90366507535E+02  0.90366507535E+02  0.00000000000E+00 0.  1.
         23    2    1    2    0    0 -0.89887095084E+02 -0.79738890455E+02  0.28966076749E+03  0.32736547678E+03  0.93951129056E+02 0.  0.
          5    1    1    2  502    0  0.37670514159E+02 -0.97690232601E+02  0.13748939282E+03  0.17286773765E+03  0.41800000000E+01 0. -1.
         -5    1    1    2    0  502  0.52216580924E+02  0.17742912306E+03  0.10513995147E+03  0.21278991242E+03  0.41800000000E+01 0.  1.
        -11    1    3    3    0    0  0.17092589911E+02 -0.29008630233E+02  0.75178680418E+02  0.82374093302E+02  0.00000000000E+00 0.  1.
         11    1    3    3    0    0 -0.10697968499E+03 -0.50730260221E+02  0.21448208707E+03  0.24499138348E+03  0.00000000000E+00 0. -1.
</event>
<event>
 7    1  0.4274778E-006  0.1006310E+03  0.7561462E-02  0.1278975E+00
         -2   -1    0    0    0  501 -0.00000000000E+00  0.00000000000E+00  0.29316424439E+03  0.29316424439E+03  0.00000000000E+00 0.  1.
          2   -1    0    0  501    0  0.00000000000E+00 -0.00000000000E+00 -0.40100519486E+03  0.40100519486E+03  0.00000000000E+00 0. -1.
         23    2    1    2    0    0 -0.33332583355E+01 -0.43092556825E+02 -0.63191688434E+02  0.11882750536E+03  0.90877431069E+02 0.  0.
          5    1    1    2  502    0 -0.86086595065E+01 -0.48858588010E+02 -0.29976226774E+03  0.30386865616E+03  0.41800000000E+01 0. -1.
         -5    1    1    2    0  502  0.11941917842E+02  0.91951144835E+02  0.25511300570E+03  0.27147327772E+03  0.41800000000E+01 0.  1.
        -11    1    3    3    0    0 -0.20235778105E+02 -0.33732077936E+02  0.12053277757E+02  0.41141479094E+02  0.00000000000E+00 0.  1.
         11    1    3    3    0    0  0.16902519769E+02 -0.93604788891E+01 -0.75244966191E+02  0.77686026264E+02  0.00000000000E+00 0. -1.
</event>
<event>
 6    1  0.4274778E-006  0.9043831E+02  0.7561462E-02  0.1301794E+00
         -1   -1    0    0    0  501 -0.00000000000E+00  0.00000000000E+00  0.26843357387E+02  0.26843357387E+02  0.00000000000E+00 0.  1.
          1   -1    0    0  501    0  0.00000000000E+00 -0.00000000000E+00 -0.38271237388E+03  0.38271237388E+03  0.00000000000E+00 0. -1.
          5    1    1    2  502    0 -0.40322644235E+01  0.28968210487E+02 -0.12700971534E+02  0.32159033772E+02  0.41800000000E+01 0. -1.
         -5    1    1    2    0  502  0.27678577112E+02 -0.83703563050E+02 -0.18117859960E+03  0.20153299346E+03  0.41800000000E+01 0.  1.
        -11    1    1    2    0    0 -0.10554173170E+02  0.50681391762E+01 -0.98915311483E+01  0.15327067380E+02  0.00000000000E+00 0.  1.
         11    1    1    2    0    0 -0.13092139518E+02  0.49667213386E+02 -0.15209791421E+03  0.16053663666E+03  0.00000000000E+00 0. -1.
</event>
<event>
 7    1  0.4274778E-006  0.2317573E+03  0.7561462E-02  0.1125409E+00
         -3   -1    0    0    0  501 -0.00000000000E+00  0.00000000000E+00  0.12618676462E+04  0.12618676462E+04  0.00000000000E+00 0.  1.
          3   -1    0    0  501    0  0.00000000000E+00 -0.00000000000E+00 -0.47681054270E+02  0.47681054270E+02  0.00000000000E+00 0. -1.
         23    2    1    2    0    0  0.20218391940E+03  0.87547183205E+02  0.58614190866E+03  0.63232742487E+03  0.87936275808E+02 0.  0.
          5    1    1    2  502    0 -0.33506922064E+02  0.89982749101E+01  0.23302325339E+02  0.42001827862E+02  0.41800000000E+01 0.  1.
         -5    1    1    2    0  502 -0.16867699734E+03 -0.96545458115E+02  0.60474235797E+03  0.63521944778E+03  0.41800000000E+01 0.  1.
        -11    1    3    3    0    0  0.14770802159E+03  0.22638845446E+02  0.42060897196E+03  0.44636541561E+03  0.00000000000E+00 0.  1.
         11    1    3    3    0    0  0.54475897808E+02  0.64908337759E+02  0.16553293671E+03  0.18596200926E+03  0.00000000000E+00 0. -1.
</event>
<event>
 7    1  0.4274778E-006  0.1017813E+03  0.7561462E-02  0.1276594E+00
         -1   -1    0    0    0  501 -0.00000000000E+00  0.00000000000E+00  0.43745139853E+02  0.43745139853E+02  0.00000000000E+00 0.  1.
          1   -1    0    0  501    0  0.00000000000E+00 -0.00000000000E+00 -0.30533130692E+03  0.30533130692E+03  0.00000000000E+00 0. -1.
         23    2    1    2    0    0 -0.33525233470E+02 -0.17960572016E+01 -0.15003453948E+03  0.17814708453E+03  0.89993630816E+02 0.  0.
          5    1    1    2  502    0 -0.18118137210E+02 -0.46316049592E+02 -0.16709836634E+02  0.52632066139E+02  0.41800000000E+01 0. -1.
         -5    1    1    2    0  502  0.51643370680E+02  0.48112106794E+02 -0.94841790958E+02  0.11829729611E+03  0.41800000000E+01 0. -1.
        -11    1    3    3    0    0 -0.57290131621E+02 -0.92701923693E+01 -0.13951550434E+03  0.15110483645E+03  0.00000000000E+00 0. -1.
         11    1    3    3    0    0  0.23764898151E+02  0.74741351677E+01 -0.10519035138E+02  0.27042248073E+02  0.00000000000E+00 0.  1.
</event>
<event>
 7    1  0.4274778E-006  0.1003928E+03  0.7561462E-02  0.1279472E+00
         -1   -1    0    0    0  501 -0.00000000000E+00  0.00000000000E+00  0.30188030077E+03  0.30188030077E+03  0.00000000000E+00 0.  1.
          1   -1    0    0  501    0  0.00000000000E+00 -0.00000000000E+00 -0.54772251493E+02  0.54772251493E+02  0.00000000000E+00 0. -1.
         23    2    1    2    0    0 -0.60285273802E+02  0.36741639320E+02  0.10422944873E+03  0.15405577460E+03  0.88798318729E+02 0.  0.
          5    1    1    2  502    0  0.88568609702E+02 -0.46192666581E+02  0.65390834124E+02  0.11946377969E+03  0.41800000000E+01 0.  1.
         -5    1    1    2    0  502 -0.28283335900E+02  0.94510272610E+01  0.77487766426E+02  0.83132997971E+02  0.41800000000E+01 0.  1.
        -11    1    3    3    0    0 -0.36745435427E+02  0.24482161041E+02  0.11666866735E+03  0.12474446350E+03  0.00000000000E+00 0.  1.
         11    1    3    3    0    0 -0.23539838375E+02  0.12259478278E+02 -0.12439218622E+02  0.29311311098E+02  0.00000000000E+00 0. -1.
</event>
<event>
 7    1  0.4274778E-006  0.1232318E+03  0.7561462E-02  0.1237859E+00
         -3   -1    0    0    0  501 -0.00000000000E+00  0.00000000000E+00  0.23015183594E+03  0.23015183594E+03  0.00000000000E+00 0.  1.
          3   -1    0    0  501    0  0.00000000000E+00 -0.00000000000E+00 -0.10175804308E+03  0.10175804308E+03  0.00000000000E+00 0. -1.
         23    2    1    2    0    0  0.50596774983E+02 -0.91774268640E+02  0.40822767236E+02  0.14670541081E+03  0.94198881173E+02 0.  0.
          5    1    1    2  502    0 -0.27120033638E+02  0.38728859001E+02  0.11236692735E+03  0.12198040624E+03  0.41800000000E+01 0.  1.
         -5    1    1    2    0  502 -0.23476741345E+02  0.53045409639E+02 -0.24795901729E+02  0.63224061958E+02  0.41800000000E+01 0.  1.
        -11    1    3    3    0    0  0.72867063759E+02 -0.93456631909E+02  0.36038922722E+02  0.12386506763E+03  0.00000000000E+00 0. -1.
         11    1    3    3    0    0 -0.22270288776E+02  0.16823632689E+01  0.47838445144E+01  0.22840343182E+02  0.00000000000E+00 0.  1.
</event>
<event>
 7    1  0.4274778E-006  0.8465829E+02  0.7561462E-02  0.1316329E+00
          2   -1    0    0  501    0  0.00000000000E+00  0.00000000000E+00  0.18473677571E+03  0.18473677571E+03  0.00000000000E+00 0. -1.
         -2   -1    0    0    0  501 -0.00000000000E+00 -0.00000000000E+00 -0.22246121227E+03  0.22246121227E+03  0.00000000000E+00 0.  1.
         23    2    1    2    0    0 -0.33868643127E+02 -0.33013405717E+02  0.83686947466E+02  0.13326953068E+03  0.92305431518E+02 0.  0.
          5    1    1    2  502    0 -0.24625183869E+02  0.15147452467E+02  0.68446061176E+02  0.74418953817E+02  0.41800000000E+01 0. -1.
         -5    1    1    2    0  502  0.58493826997E+02  0.17865953251E+02 -0.18985744520E+03  0.19950950349E+03  0.41800000000E+01 0.  1.
        -11    1    3    3    0    0 -0.36870809950E+02  0.79578262459E+01  0.84116075823E+02  0.92186212835E+02  0.00000000000E+00 0.  1.
         11    1    3    3    0    0  0.30021668224E+01 -0.40971231963E+02 -0.42912835786E+00  0.41083317847E+02  0.00000000000E+00 0. -1.
</event>
<event>
 7    1  0.4274778E-006  0.2662892E+03  0.7561462E-02  0.1103422E+00
         -1   -1    0    0    0  501 -0.00000000000E+00  0.00000000000E+00  0.49361361146E+02  0.49361361146E+02  0.00000000000E+00 0.  1.
          1   -1    0    0  501    0  0.00000000000E+00 -0.00000000000E+00 -0.15352882190E+04  0.15352882190E+04  0.00000000000E+00 0. -1.
         23    2    1    2    0    0  0.70559267065E+01 -0.25235637508E+03 -0.68306084568E+03  0.73378178766E+03  0.90166883340E+02 0.  0.
          5    1    1    2  502    0  0.48473731055E+02  0.10476094623E+03 -0.24058174280E+03  0.26687376384E+03  0.41800000000E+01 0. -1.
         -5    1    1    2    0  502 -0.55529657762E+02  0.14759542885E+03 -0.56228426937E+03  0.58399402864E+03  0.41800000000E+01 0. -1.
        -11    1    3    3    0    0 -0.22076693291E+02 -0.17953083608E+03 -0.55372368421E+03  0.58251920135E+03  0.00000000000E+00 0. -1.
         11    1    3    3    0    0  0.29132619997E+02 -0.72825539000E+02 -0.12933716148E+03  0.15126258631E+03  0.00000000000E+00 0.  1.
</event>
<event>
 7    1  0.4274778E-006  0.1087186E+03  0.7561462E-02  0.1262961E+00
          2   -1    0    0  501    0  0.00000000000E+00  0.00000000000E+00  0.27880847606E+03  0.27880847606E+03  0.00000000000E+00 0. -1.
         -2   -1    0    0    0  501 -0.00000000000E+00 -0.00000000000E+00 -0.84856909917E+02  0.84856909917E+02  0.00000000000E+00 0.  1.
         23    2    1    2    0    0 -0.56431200328E+02  0.55886961148E+01  0.19922288209E+03  0.22622175346E+03  0.90943999770E+02 0.  0.
          5    1    1    2  502    0  0.93093267241E+02 -0.15250216505E+02 -0.20059426051E+02  0.96533820408E+02  0.41800000000E+01 0.  1.
         -5    1    1    2    0  502 -0.36662066913E+02  0.96615203904E+01  0.14788110103E+02  0.40909812111E+02  0.41800000000E+01 0.  1.
        -11    1    3    3    0    0 -0.44951091505E+01  0.27958952084E+02  0.12195695662E+02  0.30832515314E+02  0.00000000000E+00 0.  1.
         11    1    3    3    0    0 -0.51936091178E+02 -0.22370255969E+02  0.18702718643E+03  0.19538923814E+03  0.00000000000E+00 0. -1.
</event>
<event>
 7    1  0.4274778E-006  0.1049819E+03  0.7561462E-02  0.1270155E+00
          3   -1    0    0  501    0  0.00000000000E+00  0.00000000000E+00  0.14310279259E+02  0.14310279259E+02  0.00000000000E+00 0. -1.
         -3   -1    0    0    0  501 -0.00000000000E+00 -0.00000000000E+00 -0.97368367149E+03  0.97368367149E+03  0.00000000000E+00 0.  1.
         23    2    1    2    0    0 -0.37106205383E+02  0.20184220782E+02 -0.34772109818E+03  0.36225473023E+03  0.92381027315E+02 0.  0.
          5    1    1    2  502    0  0.73563002379E+02 -0.10568973198E+02 -0.21994296801E+03  0.23219733006E+03  0.41800000000E+01 0. -1.
         -5    1    1    2    0  502 -0.36456796996E+02 -0.96152475836E+01 -0.39170932604E+03  0.39354189045E+03  0.41800000000E+01 0. -1.
        -11    1    3    3    0    0  0.59388248908E+01  0.46674270833E+02 -0.21833254006E+03  0.22334470052E+03  0.00000000000E+00 0.  1.
         11    1    3    3    0    0 -0.43045030274E+02 -0.26490050051E+02 -0.12938855812E+03  0.13891002971E+03  0.00000000000E+00 0. -1.
</event>
<event>
 7    1  0.4274778E-006  0.1080883E+03  0.7561462E-02  0.1264152E+00
          1   -1    0    0  501    0  0.00000000000E+00  0.00000000000E+00  0.13415089020E+03  0.13415089020E+03  0.00000000000E+00 0. -1.
         -1   -1    0    0    0  501 -0.00000000000E+00 -0.00000000000E+00 -0.92298872711E+02  0.92298872711E+02  0.00000000000E+00 0.  1.
         23    2    1    2    0    0 -0.19945713771E+02  0.13184000304E+02  0.33360099157E+02  0.98812951235E+02  0.89885781713E+02 0.  0.
          5    1    1    2  502    0 -0.40185910403E+02 -0.42818395612E+02  0.13101606602E+02  0.60311250138E+02  0.41800000000E+01 0.  1.
         -5    1    1    2    0  502  0.60131624174E+02  0.29634395308E+02 -0.46096882663E+01  0.67325561542E+02  0.41800000000E+01 0.  1.
        -11    1    3    3    0    0  0.30145750925E+02  0.24427212397E+02  0.26575461799E+02  0.47028822802E+02  0.00000000000E+00 0. -1.
         11    1    3    3    0    0 -0.50091464695E+02 -0.11243212093E+02  0.67846373584E+01  0.51784128433E+02  0.00000000000E+00 0.  1.
</event>
<event>
 7    1  0.4274778E-006  0.9897891E+02  0.7561462E-02  0.1282458E+00
          1   -1    0    0  501    0  0.00000000000E+00  0.00000000000E+00  0.32686038325E+03  0.32686038325E+03  0.00000000000E+00 0. -1.
         -1   -1    0    0    0  501 -0.00000000000E+00 -0.00000000000E+00 -0.47422498505E+02  0.47422498505E+02  0.00000000000E+00 0.  1.
         23    2    1    2    0    0  0.26292825246E+02 -0.53472086606E+02  0.13808768486E+03  0.17634927765E+03  0.92088448307E+02 0.  0.
          5    1    1    2  502    0 -0.19182602624E+02 -0.11527605401E+02 -0.15772705558E+02  0.27696724903E+02  0.41800000000E+01 0. -1.
         -5    1    1    2    0  502 -0.71102226216E+01  0.64999692007E+02  0.15712290544E+03  0.17023687921E+03  0.41800000000E+01 0. -1.
        -11    1    3    3    0    0 -0.13822240799E+02 -0.66166121420E+02  0.86533061158E+02  0.10980428333E+03  0.00000000000E+00 0.  1.
         11    1    3    3    0    0  0.40115066045E+02  0.12694034814E+02  0.51554623704E+02  0.66544994319E+02  0.00000000000E+00 0. -1.
</event>
<event>
 7    1  0.4274778E-006  0.1763590E+03  0.7561462E-02  0.1171374E+00
          2   -1    0    0  501    0  0.00000000000E+00  0.00000000000E+00  0.82811645543E+03  0.82811645543E+03  0.00000000000E+00 0. -1.
         -2   -1    0    0    0  501 -0.00000000000E+00 -0.00000000000E+00 -0.73387219139E+02  0.73387219139E+02  0.00000000000E+00 0.  1.
         23    2    1    2    0    0  0.16179928408E+03 -0.52200508636E+02  0.62438888314E+03  0.65342510115E+03  0.90548241220E+02 0.  0.
          5    1    1    2  502    0 -0.50938882720E+01  0.10505425747E+02  0.76003183104E+02  0.77008232740E+02  0.41800000000E+01 0.  1.
         -5    1    1    2    0  502 -0.15670539580E+03  0.41695082890E+02  0.54337170040E+02  0.17107034068E+03  0.41800000000E+01 0.  1.
        -11    1    3    3    0    0  0.96679865444E+02 -0.34174043094E+01  0.21120870693E+03  0.23230969183E+03  0.00000000000E+00 0.  1.
         11    1    3    3    0    0  0.65119418632E+02 -0.48783104327E+02  0.41318017621E+03  0.42111540932E+03  0.00000000000E+00 0. -1.
</event>
<event>
 7    1  0.4274778E-006  0.1308067E+03  0.7561462E-02  0.1226264E+00
          2   -1    0    0  501    0  0.00000000000E+00  0.00000000000E+00  0.35215301813E+03  0.35215301813E+03  0.00000000000E+00 0.  1.
         -2   -1    0    0    0  501 -0.00000000000E+00 -0.00000000000E+00 -0.60022031189E+02  0.60022031189E+02  0.00000000000E+00 0. -1.
         23    2    1    2    0    0 -0.13176804244E+01  0.25537527517E+02  0.85846790924E+02  0.12317034602E+03  0.84542066650E+02 0.  0.
          5    1    1    2  502    0 -0.48886482365E+02 -0.86849363137E+02  0.45361860901E+02  0.10958043101E+03  0.41800000000E+01 0. -1.
         -5    1    1    2    0  502  0.50204162789E+02  0.61311835620E+02  0.16092233512E+03  0.17942427229E+03  0.41800000000E+01 0.  1.
        -11    1    3    3    0    0  0.68023159404E+01  0.53223541772E+02  0.75277728815E+02  0.92443243974E+02  0.00000000000E+00 0. -1.
         11    1    3    3    0    0 -0.81199963648E+01 -0.27686014255E+02  0.10569062109E+02  0.30727102046E+02  0.00000000000E+00 0.  1.
</event>
<event>
 7    1  0.4274778E-006  0.1017126E+03  0.7561462E-02  0.1276735E+00
         -1   -1    0    0    0  501 -0.00000000000E+00  0.00000000000E+00  0.33257274762E+03  0.33257274762E+03  0.00000000000E+00 0.  1.
          1   -1    0    0  501    0  0.00000000000E+00 -0.00000000000E+00 -0.49744373525E+02  0.49744373525E+02  0.00000000000E+00 0. -1.
         23    2    1    2    0    0  0.68468543130E+02 -0.52853009530E+01  0.13088128051E+03  0.17386721453E+03  0.91564310156E+02 0.  0.
          5    1    1    2  502    0 -0.24217152440E+02  0.48108211561E+02  0.11773812531E+02  0.55289832278E+02  0.41800000000E+01 0.  1.
         -5    1    1    2    0  502 -0.44251390690E+02 -0.42822910608E+02  0.14017328105E+03  0.15316007433E+03  0.41800000000E+01 0.  1.
        -11    1    3    3    0    0  0.45215166904E+02 -0.29597097848E+02  0.19395169367E+02  0.57415782795E+02  0.00000000000E+00 0.  1.
         11    1    3    3    0    0  0.23253376226E+02  0.24311796895E+02  0.11148611115E+03  0.11645143173E+03  0.00000000000E+00 0. -1.
</event>
<event>
 7    1  0.4274778E-006  0.1055401E+03  0.7561462E-02  0.1269059E+00
          1   -1    0    0  501    0  0.00000000000E+00  0.00000000000E+00  0.33954780133E+03  0.33954780133E+03  0.00000000000E+00 0. -1.
         -1   -1    0    0    0  501 -0.00000000000E+00 -0.00000000000E+00 -0.69825775788E+02  0.69825775788E+02  0.00000000000E+00 0.  1.
         23    2    1    2    0    0  0.42002433518E+02  0.23751186917E+02  0.20880267354E+03  0.23259306257E+03  0.90402726606E+02 0.  0.
          5    1    1    2  502    0 -0.37848042273E+02  0.37535950757E+02  0.93059687679E+02  0.10732660329E+03  0.41800000000E+01 0. -1.
         -5    1    1    2    0  502 -0.41543912451E+01 -0.61287137674E+02 -0.32140335677E+02  0.69453911253E+02  0.41800000000E+01 0.  1.
        -11    1    3    3    0    0 -0.15689510549E+02  0.34001091311E+02  0.44525869273E+02  0.58178930775E+02  0.00000000000E+00 0. -1.
         11    1    3    3    0    0  0.57691944067E+02 -0.10249904394E+02  0.16427680426E+03  0.17441413179E+03  0.00000000000E+00 0.  1.
</event>
<event>
 7    1  0.4274778E-006  0.9117927E+02  0.7561462E-02  0.1300021E+00
          2   -1    0    0  501    0  0.00000000000E+00  0.00000000000E+00  0.11084631499E+03  0.11084631499E+03  0.00000000000E+00 0. -1.
         -2   -1    0    0    0  501 -0.00000000000E+00 -0.00000000000E+00 -0.13909815583E+03  0.13909815583E+03  0.00000000000E+00 0.  1.
         23    2    1    2    0    0 -0.33946173638E+01  0.54001941767E+02  0.14484035859E+02  0.10723003478E+03  0.91437191131E+02 0.  0.
          5    1    1    2  502    0  0.26526740221E+02  0.28918829055E+00  0.35571612081E+02  0.44570882453E+02  0.41800000000E+01 0.  1.
         -5    1    1    2    0  502 -0.23132122857E+02 -0.54291130057E+02 -0.78307488786E+02  0.98143553588E+02  0.41800000000E+01 0.  1.
        -11    1    3    3    0    0 -0.33669136812E+00  0.75060827383E+02 -0.89298048327E+01  0.75590889549E+02  0.00000000000E+00 0.  1.
         11    1    3    3    0    0 -0.30579259957E+01 -0.21058885616E+02  0.23413840692E+02  0.31639145228E+02  0.00000000000E+00 0. -1.
</event>
<event>
 7    1  0.4274778E-006  0.1786627E+03  0.7561462E-02  0.1169104E+00
         -1   -1    0    0    0  501 -0.00000000000E+00  0.00000000000E+00  0.69453410598E+03  0.69453410598E+03  0.00000000000E+00 0.  1.
          1   -1    0    0  501    0  0.00000000000E+00 -0.00000000000E+00 -0.60386062750E+02  0.60386062750E+02  0.00000000000E+00 0. -1.
         23    2    1    2    0    0 -0.12515557539E+03  0.11305729298E+03  0.22464036554E+03  0.29471386829E+03  0.89146513014E+02 0.  0.
          5    1    1    2  502    0  0.95464945623E+02 -0.93105031033E+02  0.16096471336E+03  0.20906748670E+03  0.41800000000E+01 0. -1.
         -5    1    1    2    0  502  0.29690629769E+02 -0.19952261947E+02  0.24854296432E+03  0.25113881374E+03  0.41800000000E+01 0. -1.
        -11    1    3    3    0    0 -0.58887448592E+02  0.10599127300E+03  0.16840431003E+03  0.20751359760E+03  0.00000000000E+00 0.  1.
         11    1    3    3    0    0 -0.66268126799E+02  0.70660199832E+01  0.56236055509E+02  0.87200270682E+02  0.00000000000E+00 0. -1.
</event>
<event>
 7    1  0.4274778E-006  0.1140286E+03  0.7561462E-02  0.1253286E+00
          2   -1    0    0  501    0  0.00000000000E+00  0.00000000000E+00  0.47191771673E+03  0.47191771673E+03  0.00000000000E+00 0.  1.
         -2   -1    0    0    0  501 -0.00000000000E+00 -0.00000000000E+00 -0.39230932492E+02  0.39230932492E+02  0.00000000000E+00 0. -1.
         23    2    1    2    0    0  0.41830240533E+02  0.54499963653E+02  0.27958968797E+03  0.30185091977E+03  0.90683896507E+02 0.  0.
          5    1    1    2  502    0 -0.76483428427E+02 -0.13959383768E+02  0.48266804600E+02  0.91606419237E+02  0.41800000000E+01 0. -1.
         -5    1    1    2    0  502  0.34653187894E+02 -0.40540579885E+02  0.10483029166E+03  0.11769131021E+03  0.41800000000E+01 0. -1.
        -11    1    3    3    0    0  0.11205904791E+01  0.55954908728E+02  0.23449655766E+03  0.24108264783E+03  0.00000000000E+00 0.  1.
         11    1    3    3    0    0  0.40709650054E+02 -0.14549450752E+01  0.45093130315E+02  0.60768271938E+02  0.00000000000E+00 0. -1.
</event>
<event>
 7    1  0.4274778E-006  0.9372823E+02  0.7561462E-02  0.1294066E+00
         -3   -1    0    0    0  501 -0.00000000000E+00  0.00000000000E+00  0.94535721532E+02  0.94535721532E+02  0.00000000000E+00 0.  1.
          3   -1    0    0  501    0  0.00000000000E+00 -0.00000000000E+00 -0.19164264624E+03  0.19164264624E+03  0.00000000000E+00 0. -1.
         23    2    1    2    0    0  0.41713485392E+02  0.61821028247E+02 -0.72589932384E+02  0.13851596145E+03  0.91408527477E+02 0.  0.
          5    1    1    2  502    0 -0.44080840726E+02 -0.70648069387E+01  0.41956115333E+02  0.61407003102E+02  0.41800000000E+01 0.  1.
         -5    1    1    2    0  502  0.23673553340E+01 -0.54756221308E+02 -0.66473107657E+02  0.86255403221E+02  0.41800000000E+01 0.  1.
        -11    1    3    3    0    0 -0.44524085217E+01  0.32844771362E+02 -0.77000960985E+02  0.83831682197E+02  0.00000000000E+00 0. -1.
         11    1    3    3    0    0  0.46165893914E+02  0.28976256884E+02  0.44110286009E+01  0.54684279251E+02  0.00000000000E+00 0.  1.
</event>
<event>
 7    1  0.4274778E-006  0.1073104E+03  0.7561462E-02  0.1265633E+00
         -2   -1    0    0    0  501 -0.00000000000E+00  0.00000000000E+00  0.47066476678E+02  0.47066476678E+02  0.00000000000E+00 0.  1.
          2   -1    0    0  501    0  0.00000000000E+00 -0.00000000000E+00 -0.34167181261E+03  0.34167181261E+03  0.00000000000E+00 0. -1.
         23    2    1    2    0    0  0.10267195279E+02 -0.52536338565E+02 -0.18967882843E+03  0.21691807900E+03  0.90608569547E+02 0.  0.
          5    1    1    2  502    0  0.24580885699E+02 -0.27956802224E+02 -0.65733807295E+02  0.75658499548E+02  0.41800000000E+01 0. -1.
         -5    1    1    2    0  502 -0.34848080978E+02  0.80493140790E+02 -0.39192700207E+02  0.96161710735E+02  0.41800000000E+01 0. -1.
        -11    1    3    3    0    0  0.40082194766E+02 -0.18637994234E+02 -0.36812201869E+02  0.57524737050E+02  0.00000000000E+00 0.  1.
         11    1    3    3    0    0 -0.29814999487E+02 -0.33898344332E+02 -0.15286662656E+03  0.15939334195E+03  0.00000000000E+00 0. -1.
</event>
<event>
 7    1  0.4274778E-006  0.1255905E+03  0.7561462E-02  0.1234149E+00
          2   -1    0    0  501    0  0.00000000000E+00  0.00000000000E+00  0.35288839773E+03  0.35288839773E+03  0.00000000000E+00 0.  1.
         -2   -1    0    0    0  501 -0.00000000000E+00 -0.00000000000E+00 -0.84508469704E+02  0.84508469704E+02  0.00000000000E+00 0. -1.
         23    2    1    2    0    0  0.93108367876E+02  0.29874531295E+02  0.24121294336E+03  0.27631651908E+03  0.92765720418E+02 0.  0.
          5    1    1    2  502    0 -0.94324985641E+02 -0.65652273441E+02  0.41549010475E+02  0.12227516753E+03  0.41800000000E+01 0.  1.
         -5    1    1    2    0  502  0.12166177643E+01  0.35777742146E+02 -0.14382025809E+02  0.38805180817E+02  0.41800000000E+01 0.  1.
        -11    1    3    3    0    0  0.83576199893E+02  0.19056460397E+02  0.24648415884E+03  0.26096469192E+03  0.00000000000E+00 0.  1.
         11    1    3    3    0    0  0.95321679834E+01  0.10818070898E+02 -0.52712154821E+01  0.15351827157E+02  0.00000000000E+00 0. -1.
</event>
<event>
 7    1  0.4274778E-006  0.4055770E+03  0.7561462E-02  0.1041865E+00
         -1   -1    0    0    0  501 -0.00000000000E+00  0.00000000000E+00  0.57224502586E+03  0.57224502586E+03  0.00000000000E+00 0.  1.
          1   -1    0    0  501    0  0.00000000000E+00 -0.00000000000E+00 -0.32496421829E+03  0.32496421829E+03  0.00000000000E+00 0. -1.
         23    2    1    2    0    0 -0.13829512234E+02 -0.39284736595E+03 -0.23233340453E+02  0.40390900387E+03  0.89902096468E+02 0.  0.
          5    1    1    2  502    0 -0.44410777645E+02  0.61037045415E+02  0.48648703257E+02  0.89899982273E+02  0.41800000000E+01 0. -1.
         -5    1    1    2    0  502  0.58240289879E+02  0.33181032054E+03  0.22186544477E+03  0.40340025801E+03  0.41800000000E+01 0. -1.
        -11    1    3    3    0    0 -0.39988877125E+02 -0.19346865505E+03  0.18882332195E+02  0.19845849251E+03  0.00000000000E+00 0.  1.
         11    1    3    3    0    0  0.26159364891E+02 -0.19937871091E+03 -0.42115672648E+02  0.20545051136E+03  0.00000000000E+00 0. -1.
</event>
<event>
 7    1  0.4274778E-006  0.1133118E+03  0.7561462E-02  0.1254557E+00
         -4   -1    0    0    0  501 -0.00000000000E+00  0.00000000000E+00  0.39434138605E+03  0.39434138605E+03  0.00000000000E+00 0.  1.
          4   -1    0    0  501    0  0.00000000000E+00 -0.00000000000E+00 -0.36427202529E+02  0.36427202529E+02  0.00000000000E+00 0. -1.
         23    2    1    2    0    0  0.29239086160E+02  0.41783197436E+02  0.15654868691E+03  0.18828439313E+03  0.91338718918E+02 0.  0.
          5    1    1    2  502    0 -0.77652942478E+02 -0.14786218701E+02  0.12674471337E+03  0.14943328446E+03  0.41800000000E+01 0.  1.
         -5    1    1    2    0  502  0.48413856318E+02 -0.26996978735E+02  0.74620783238E+02  0.93050910986E+02  0.41800000000E+01 0.  1.
        -11    1    3    3    0    0 -0.11568915119E+02  0.49075643954E+02  0.39313925120E+02  0.63936244298E+02  0.00000000000E+00 0. -1.
         11    1    3    3    0    0  0.40808001280E+02 -0.72924465179E+01  0.11723476179E+03  0.12434814883E+03  0.00000000000E+00 0.  1.
</event>
<event>
 7    1  0.4274778E-006  0.1715911E+03  0.7561462E-02  0.1176199E+00
         -4   -1    0    0    0  501 -0.00000000000E+00  0.00000000000E+00  0.14319098259E+03  0.14319098259E+03  0.00000000000E+00 0.  1.
          4   -1    0    0  501    0  0.00000000000E+00 -0.00000000000E+00 -0.34013436279E+03  0.34013436279E+03  0.00000000000E+00 0. -1.
         23    2    1    2    0    0  0.10997627010E+03  0.11999075967E+03 -0.20616978806E+03  0.27783547262E+03  0.90520748710E+02 0.  0.
          5    1    1    2  502    0 -0.55294220236E+02 -0.24249334263E+02 -0.51569261437E+02  0.79513156954E+02  0.41800000000E+01 0.  1.
         -5    1    1    2    0  502 -0.54682049861E+02 -0.95741425409E+02  0.60795669300E+02  0.12597671579E+03  0.41800000000E+01 0.  1.
        -11    1    3    3    0    0  0.12045710676E+02  0.51323025278E+02 -0.19649706798E+02  0.56260670513E+02  0.00000000000E+00 0. -1.
         11    1    3    3    0    0  0.97930559421E+02  0.68667734395E+02 -0.18652008127E+03  0.22157480211E+03  0.00000000000E+00 0.  1.
</event>
<event>
 7    1  0.4274778E-006  0.2467244E+03  0.7561462E-02  0.1115393E+00
         -4   -1    0    0    0  501 -0.00000000000E+00  0.00000000000E+00  0.14746864457E+04  0.14746864457E+04  0.00000000000E+00 0.  1.
          4   -1    0    0  501    0  0.00000000000E+00 -0.00000000000E+00 -0.11036564285E+03  0.11036564285E+03  0.00000000000E+00 0. -1.
         23    2    1    2    0    0 -0.17836741596E+03 -0.14978429715E+03  0.64257222181E+02  0.25837813875E+03  0.91542346683E+02 0.  0.
          5    1    1    2  502    0  0.13594902171E+03  0.40911740958E+02  0.57735131330E+03  0.59456531888E+03  0.41800000000E+01 0. -1.
         -5    1    1    2    0  502  0.42418394244E+02  0.10887255619E+03  0.72271226734E+03  0.73210863089E+03  0.41800000000E+01 0. -1.
        -11    1    3    3    0    0 -0.86656210982E+02 -0.55165165905E+02  0.73455187468E+02  0.12628602059E+03  0.00000000000E+00 0. -1.
         11    1    3    3    0    0 -0.91711204973E+02 -0.94619131243E+02 -0.91979652863E+01  0.13209211816E+03  0.00000000000E+00 0.  1.
</event>
<event>
 7    1  0.4274778E-006  0.1244417E+03  0.7561462E-02  0.1235944E+00
         -2   -1    0    0    0  501 -0.00000000000E+00  0.00000000000E+00  0.61893187942E+02  0.61893187942E+02  0.00000000000E+00 0.  1.
          2   -1    0    0  501    0  0.00000000000E+00 -0.00000000000E+00 -0.32432622955E+03  0.32432622955E+03  0.00000000000E+00 0. -1.
         23    2    1    2    0    0 -0.86104358999E+02  0.24401892588E+02 -0.11390177856E+03  0.17240076953E+03  0.93482603593E+02 0.  0.
          5    1    1    2  502    0 -0.27714900254E+02  0.16801125319E+02 -0.32561895190E+02  0.46131799514E+02  0.41800000000E+01 0.  1.
         -5    1    1    2    0  502  0.11381925925E+03 -0.41203017906E+02 -0.11596936787E+03  0.16768684845E+03  0.41800000000E+01 0.  1.
        -11    1    3    3    0    0 -0.27224395199E+02 -0.73373803872E+01 -0.10024017823E+03  0.10413019820E+03  0.00000000000E+00 0. -1.
         11    1    3    3    0    0 -0.58879963801E+02  0.31739272975E+02 -0.13661600325E+02  0.68270571329E+02  0.00000000000E+00 0.  1.
</event>
<event>
 7    1  0.4274778E-006  0.1245163E+03  0.7561462E-02  0.1235827E+00
          1   -1    0    0  501    0  0.00000000000E+00  0.00000000000E+00  0.39373105257E+03  0.39373105257E+03  0.00000000000E+00 0. -1.
         -1   -1    0    0    0  501 -0.00000000000E+00 -0.00000000000E+00 -0.48325206175E+02  0.48325206175E+02  0.00000000000E+00 0.  1.
         23    2    1    2    0    0 -0.71068168870E+02  0.13450795645E+02  0.22826693276E+03  0.25604475770E+03  0.90672580331E+02 0.  0.
          5    1    1    2  502    0  0.83006613181E+02  0.32313422117E+02  0.45613783822E+02  0.10016159321E+03  0.41800000000E+01 0. -1.
         -5    1    1    2    0  502 -0.11938444311E+02 -0.45764217762E+02  0.71525129814E+02  0.85849907832E+02  0.41800000000E+01 0. -1.
        -11    1    3    3    0    0 -0.62625617363E+02  0.46671250851E+02  0.12658649421E+03  0.14874244224E+03  0.00000000000E+00 0.  1.
         11    1    3    3    0    0 -0.84425515067E+01 -0.33220455206E+02  0.10168043855E+03  0.10730231546E+03  0.00000000000E+00 0. -1.
</event>
<event>
 7    1  0.4274778E-006  0.1751366E+03  0.7561462E-02  0.1172595E+00
          1   -1    0    0  501    0  0.00000000000E+00  0.00000000000E+00  0.99166498163E+03  0.99166498163E+03  0.00000000000E+00 0.  1.
         -1   -1    0    0    0  501 -0.00000000000E+00 -0.00000000000E+00 -0.38137715605E+02  0.38137715605E+02  0.00000000000E+00 0. -1.
         23    2    1    2    0    0  0.56370750197E+02  0.14331821391E+03  0.57930754796E+03  0.60623956113E+03  0.90616766871E+02 0.  0.
          5    1    1    2  502    0  0.64961330399E+01  0.19659727529E+02  0.65536181805E+02  0.68856141023E+02  0.41800000000E+01 0.  1.
         -5    1    1    2    0  502 -0.62866883237E+02 -0.16297794144E+03  0.30868353627E+03  0.35470699509E+03  0.41800000000E+01 0.  1.
        -11    1    3    3    0    0  0.36468369483E+02  0.77415514657E+02  0.46494970565E+03  0.47275927560E+03  0.00000000000E+00 0.  1.
         11    1    3    3    0    0  0.19902380715E+02  0.65902699253E+02  0.11435784231E+03  0.13348028553E+03  0.00000000000E+00 0. -1.
</event>
<event>
 7    1  0.4274778E-006  0.1091615E+03  0.7561462E-02  0.1262131E+00
          1   -1    0    0  501    0  0.00000000000E+00  0.00000000000E+00  0.47381605835E+03  0.47381605835E+03  0.00000000000E+00 0. -1.
         -1   -1    0    0    0  501 -0.00000000000E+00 -0.00000000000E+00 -0.84578012097E+02  0.84578012097E+02  0.00000000000E+00 0.  1.
         23    2    1    2    0    0  0.39491822212E+02 -0.83993657618E+02  0.38014109099E+03  0.40221324911E+03  0.93025319993E+02 0.  0.
          5    1    1    2  502    0 -0.44554863404E+02  0.40579747495E+01  0.49096686152E+02  0.66554939735E+02  0.41800000000E+01 0.  1.
         -5    1    1    2    0  502  0.50630411916E+01  0.79935682869E+02 -0.39999730889E+02  0.89625881602E+02  0.41800000000E+01 0.  1.
        -11    1    3    3    0    0  0.17355968443E+02 -0.27623701367E+02  0.22859375567E+02  0.39835280457E+02  0.00000000000E+00 0.  1.
         11    1    3    3    0    0  0.22135853769E+02 -0.56369956251E+02  0.35728171542E+03  0.36237796865E+03  0.00000000000E+00 0. -1.
</event>
<event>
 7    1  0.4274778E-006  0.1813506E+03  0.7561462E-02  0.1166502E+00
          2   -1    0    0  501    0  0.00000000000E+00  0.00000000000E+00  0.48159011648E+03  0.48159011648E+03  0.00000000000E+00 0. -1.
         -2   -1    0    0    0  501 -0.00000000000E+00 -0.00000000000E+00 -0.11846256240E+03  0.11846256240E+03  0.00000000000E+00 0.  1.
         23    2    1    2    0    0 -0.12708673336E+03 -0.10092190879E+03  0.34678077300E+03  0.39450331698E+03  0.95077300738E+02 0.  0.
          5    1    1    2  502    0  0.68118676081E+02 -0.86201318141E+01  0.38931199745E+02  0.79041580305E+02  0.41800000000E+01 0. -1.
         -5    1    1    2    0  502  0.58968057284E+02  0.10954204060E+03 -0.22584418662E+02  0.12650778160E+03  0.41800000000E+01 0. -1.
        -11    1    3    3    0    0 -0.88847612107E+02 -0.39836749239E+02  0.27925779171E+03  0.29574613945E+03  0.00000000000E+00 0. -1.
         11    1    3    3    0    0 -0.38239121258E+02 -0.61085159552E+02  0.67522981285E+02  0.98757177529E+02  0.00000000000E+00 0.  1.
</event>
<event>
 7    1  0.4274778E-006  0.1293366E+03  0.7561462E-02  0.1228443E+00
          1   -1    0    0  501    0  0.00000000000E+00  0.00000000000E+00  0.25912157818E+03  0.25912157818E+03  0.00000000000E+00 0. -1.
         -1   -1    0    0    0  501 -0.00000000000E+00 -0.00000000000E+00 -0.13802698052E+03  0.13802698052E+03  0.00000000000E+00 0.  1.
         23    2    1    2    0    0 -0.40951042505E+02 -0.81195064516E+02  0.19492125752E+03  0.23551712566E+03  0.95939530241E+02 0.  0.
          5    1    1    2  502    0  0.15850068517E+02 -0.17958180971E+02  0.12847252880E+02  0.27499913497E+02  0.41800000000E+01 0. -1.
         -5    1    1    2    0  502  0.25100973988E+02  0.99153245487E+02 -0.86673912734E+02  0.13413151954E+03  0.41800000000E+01 0.  1.
        -11    1    3    3    0    0 -0.23544156817E+00  0.21509911724E+02  0.27209074609E+02  0.34685234268E+02  0.00000000000E+00 0.  1.
         11    1    3    3    0    0 -0.40715600937E+02 -0.10270497624E+03  0.16771218291E+03  0.20083189139E+03  0.00000000000E+00 0. -1.
</event>
<event>
 7    1  0.4274778E-006  0.9310536E+02  0.7561462E-02  0.1295501E+00
         -2   -1    0    0    0  501 -0.00000000000E+00  0.00000000000E+00  0.28068763244E+02  0.28068763244E+02  0.00000000000E+00 0.  1.
          2   -1    0    0  501    0  0.00000000000E+00 -0.00000000000E+00 -0.58164699700E+03  0.58164699700E+03  0.00000000000E+00 0. -1.
         23    2    1    2    0    0 -0.44602502099E+02 -0.25090058962E+02 -0.35269452480E+03  0.36760075022E+03  0.90099886160E+02 0.  0.
          5    1    1    2  502    0 -0.13109166684E+02  0.21275960742E+02 -0.17796844881E+03  0.17976306052E+03  0.41800000000E+01 0. -1.
         -5    1    1    2    0  502  0.57711668783E+02  0.38140982201E+01 -0.22915260146E+02  0.62351949501E+02  0.41800000000E+01 0. -1.
        -11    1    3    3    0    0 -0.70130371273E+02 -0.48340158656E+01 -0.26041119963E+03  0.26973251486E+03  0.00000000000E+00 0.  1.
         11    1    3    3    0    0  0.25527869174E+02 -0.20256043097E+02 -0.92283325172E+02  0.97868235354E+02  0.00000000000E+00 0. -1.
</event>
<event>
 7    1  0.4274778E-006  0.1885434E+03  0.7561462E-02  0.1159782E+00
         -1   -1    0    0    0  501 -0.00000000000E+00  0.00000000000E+00  0.30891189825E+03  0.30891189825E+03  0.00000000000E+00 0.  1.
          1   -1    0    0  501    0  0.00000000000E+00 -0.00000000000E+00 -0.15311606965E+03  0.15311606965E+03  0.00000000000E+00 0. -1.
         23    2    1    2    0    0  0.79196916553E+02  0.16994932372E+03  0.90820368806E+02  0.22745404384E+03  0.91280219354E+02 0.  0.
          5    1    1    2  502    0 -0.16527855583E+02 -0.18869973310E+02 -0.34675336756E+02  0.43001131171E+02  0.41800000000E+01 0. -1.
         -5    1    1    2    0  502 -0.62669060970E+02 -0.15107935041E+03  0.99650796549E+02  0.19157279289E+03  0.41800000000E+01 0. -1.
        -11    1    3    3    0    0  0.52865945579E+02  0.96770335799E+02  0.32262110046E+01  0.11031642910E+03  0.00000000000E+00 0. -1.
         11    1    3    3    0    0  0.26330970974E+02  0.73178987918E+02  0.87594157801E+02  0.11713761474E+03  0.00000000000E+00 0.  1.
</event>
<event>
 7    1  0.4274778E-006  0.3987291E+03  0.7561462E-02  0.1044221E+00
         -2   -1    0    0    0  501 -0.00000000000E+00  0.00000000000E+00  0.12962524020E+03  0.12962524020E+03  0.00000000000E+00 0.  1.
          2   -1    0    0  501    0  0.00000000000E+00 -0.00000000000E+00 -0.12491897619E+04  0.12491897619E+04  0.00000000000E+00 0. -1.
         23    2    1    2    0    0 -0.13274441927E+03  0.36154670923E+03 -0.48364067948E+03  0.62478735583E+03  0.90076797011E+02 0.  0.
          5    1    1    2  502    0  0.68018855983E+02 -0.31854800738E+03 -0.53816506299E+03  0.62907750333E+03  0.41800000000E+01 0.  1.
         -5    1    1    2    0  502  0.64725563287E+02 -0.42998701854E+02 -0.97758779216E+02  0.12495014293E+03  0.41800000000E+01 0.  1.
        -11    1    3    3    0    0 -0.36399039900E+01  0.11952157377E+03 -0.12134551859E+03  0.17036252634E+03  0.00000000000E+00 0. -1.
         11    1    3    3    0    0 -0.12910451528E+03  0.24202513546E+03 -0.36229516089E+03  0.45442482950E+03  0.00000000000E+00 0.  1.
</event>
<event>
 7    1  0.4274778E-006  0.1135108E+03  0.7561462E-02  0.1254203E+00
          2   -1    0    0  501    0  0.00000000000E+00  0.00000000000E+00  0.76461837469E+03  0.76461837469E+03  0.00000000000E+00 0. -1.
         -2   -1    0    0    0  501 -0.00000000000E+00 -0.00000000000E+00 -0.17052859004E+02  0.17052859004E+02  0.00000000000E+00 0.  1.
         23    2    1    2    0    0  0.30168144555E+02  0.18438615738E+02  0.33362116801E+03  0.34778617142E+03  0.91662630278E+02 0.  0.
          5    1    1    2  502    0 -0.12698787538E+02  0.53677227420E+02  0.16024645583E+03  0.16952552302E+03  0.41800000000E+01 0. -1.
         -5    1    1    2    0  502 -0.17469357017E+02 -0.72115843158E+02  0.25369789184E+03  0.26435953925E+03  0.41800000000E+01 0. -1.
        -11    1    3    3    0    0 -0.32087091091E+02 -0.11893560625E+01  0.13260032932E+03  0.13643255960E+03  0.00000000000E+00 0.  1.
         11    1    3    3    0    0  0.62255235645E+02  0.19627971801E+02  0.20102083869E+03  0.21135361182E+03  0.00000000000E+00 0. -1.
</event>
<event>
 7    1  0.4274778E-006  0.6941235E+02  0.7561462E-02  0.1362103E+00
         -1   -1    0    0    0  501 -0.00000000000E+00  0.00000000000E+00  0.13611823037E+03  0.13611823037E+03  0.00000000000E+00 0.  1.
          1   -1    0    0  501    0  0.00000000000E+00 -0.00000000000E+00 -0.11647787232E+03  0.11647787232E+03  0.00000000000E+00 0. -1.
         23    2    1    2    0    0 -0.31176687519E+02  0.12248415214E+02 -0.46433837128E+02  0.10721551552E+03  0.90647978563E+02 0.  0.
          5    1    1    2  502    0  0.55289482166E+02 -0.22011986716E+02 -0.13834682859E+02  0.61239899144E+02  0.41800000000E+01 0.  1.
         -5    1    1    2    0  502 -0.24112794646E+02  0.97635715015E+01  0.79908878029E+02  0.84140688029E+02  0.41800000000E+01 0.  1.
        -11    1    3    3    0    0 -0.11503309468E+02  0.26258508059E+02 -0.68652717780E+02  0.74397789166E+02  0.00000000000E+00 0. -1.
         11    1    3    3    0    0 -0.19673378051E+02 -0.14010092845E+02  0.22218880653E+02  0.32817726352E+02  0.00000000000E+00 0.  1.
</event>
<event>
 7    1  0.4274778E-006  0.1219266E+03  0.7561462E-02  0.1239952E+00
         -4   -1    0    0    0  501 -0.00000000000E+00  0.00000000000E+00  0.19272776763E+03  0.19272776763E+03  0.00000000000E+00 0.  1.
          4   -1    0    0  501    0  0.00000000000E+00 -0.00000000000E+00 -0.12730957631E+03  0.12730957631E+03  0.00000000000E+00 0. -1.
         23    2    1    2    0    0  0.11161509346E+03  0.25492324374E+01  0.18643271014E+02  0.14596934238E+03  0.92168593825E+02 0.  0.
          5    1    1    2  502    0 -0.82236098332E+00  0.85734101402E+00  0.61957667966E+02  0.62109873055E+02  0.41800000000E+01 0. -1.
         -5    1    1    2    0  502 -0.11079273247E+03 -0.34065734514E+01 -0.15182747652E+02  0.11195812850E+03  0.41800000000E+01 0. -1.
        -11    1    3    3    0    0  0.89670835185E+02 -0.25258405355E+02  0.43378647788E+02  0.10276455035E+03  0.00000000000E+00 0.  1.
         11    1    3    3    0    0  0.21944258273E+02  0.27807637792E+02 -0.24735376774E+02  0.43204792036E+02  0.00000000000E+00 0. -1.
</event>
<event>
 7    1  0.4274778E-006  0.8144019E+02  0.7561462E-02  0.1325013E+00
         -2   -1    0    0    0  501 -0.00000000000E+00  0.00000000000E+00  0.67753666635E+02  0.67753666635E+02  0.00000000000E+00 0.  1.
          2   -1    0    0  501    0  0.00000000000E+00 -0.00000000000E+00 -0.18810980738E+03  0.18810980738E+03  0.00000000000E+00 0. -1.
         23    2    1    2    0    0  0.26920874377E+02 -0.14104780926E+02 -0.79391429691E+02  0.12077062358E+03  0.85783833497E+02 0.  0.
          5    1    1    2  502    0 -0.36744521834E+02  0.58207326949E+02 -0.54326570542E+02  0.87790098885E+02  0.41800000000E+01 0. -1.
         -5    1    1    2    0  502  0.98236474566E+01 -0.44102546023E+02  0.13361859489E+02  0.47302751549E+02  0.41800000000E+01 0. -1.
        -11    1    3    3    0    0  0.17821183480E+02  0.11607011941E+02  0.12668768178E+02  0.24755100363E+02  0.00000000000E+00 0.  1.
         11    1    3    3    0    0  0.90996908968E+01 -0.25711792867E+02 -0.92060197869E+02  0.96015523216E+02  0.00000000000E+00 0. -1.
</event>
<event>
 7    1  0.4274778E-006  0.1399323E+03  0.7561462E-02  0.1213420E+00
          2   -1    0    0  501    0  0.00000000000E+00  0.00000000000E+00  0.13616608112E+03  0.13616608112E+03  0.00000000000E+00 0.  1.
         -2   -1    0    0    0  501 -0.00000000000E+00 -0.00000000000E+00 -0.17523774235E+03  0.17523774235E+03  0.00000000000E+00 0. -1.
         23    2    1    2    0    0  0.37853380988E+02 -0.82944169324E+02  0.44300703109E+02  0.13558718666E+03  0.90048427051E+02 0.  0.
          5    1    1    2  502    0  0.45478731995E+02  0.29032789279E+02 -0.18591023700E+02  0.57221643453E+02  0.41800000000E+01 0. -1.
         -5    1    1    2    0  502 -0.83332112983E+02  0.53911380045E+02 -0.64781340639E+02  0.11859499335E+03  0.41800000000E+01 0. -1.
        -11    1    3    3    0    0 -0.14637107239E+02  0.11327813215E+02 -0.10625797787E+01  0.18538968050E+02  0.00000000000E+00 0.  1.
         11    1    3    3    0    0  0.52490488227E+02 -0.94271982539E+02  0.45363282888E+02  0.11704821861E+03  0.00000000000E+00 0. -1.
</event>
<event>
 7    1  0.4274778E-006  0.9494167E+02  0.7561462E-02  0.1291308E+00
         -1   -1    0    0    0  501 -0.00000000000E+00  0.00000000000E+00  0.70005873464E+03  0.70005873464E+03  0.00000000000E+00 0.  1.
          1   -1    0    0  501    0  0.00000000000E+00 -0.00000000000E+00 -0.10986607933E+03  0.10986607933E+03  0.00000000000E+00 0. -1.
         23    2    1    2    0    0  0.24877174618E+02  0.75015449558E+01 -0.82667557508E+02  0.12470805037E+03  0.89682917934E+02 0.  0.
          5    1    1    2  502    0  0.27913711734E+02  0.44980778650E+02  0.33890910287E+03  0.34304416357E+03  0.41800000000E+01 0. -1.
         -5    1    1    2    0  502 -0.52790886352E+02 -0.52482323606E+02  0.33395110995E+03  0.34217260003E+03  0.41800000000E+01 0.  1.
        -11    1    3    3    0    0  0.26545980618E+02  0.29773403382E+02 -0.92173803770E+02  0.10043482831E+03  0.00000000000E+00 0. -1.
         11    1    3    3    0    0 -0.16688060004E+01 -0.22271858427E+02  0.95062462621E+01  0.24273222061E+02  0.00000000000E+00 0.  1.
</event>
<event>
 7    1  0.4274778E-006  0.9810558E+02  0.7561462E-02  0.1284331E+00
          1   -1    0    0  501    0  0.00000000000E+00  0.00000000000E+00  0.28768970581E+03  0.28768970581E+03  0.00000000000E+00 0. -1.
         -1   -1    0    0    0  501 -0.00000000000E+00 -0.00000000000E+00 -0.42472993584E+02  0.42472993584E+02  0.00000000000E+00 0.  1.
         23    2    1    2    0    0 -0.72330873920E+01  0.17286226333E+02  0.12808234470E+03  0.15778408803E+03  0.90219733079E+02 0.  0.
          5    1    1    2  502    0 -0.47365399858E+02 -0.35535675990E+02  0.26688219638E+02  0.65084551463E+02  0.41800000000E+01 0. -1.
         -5    1    1    2    0  502  0.54598487250E+02  0.18249449657E+02  0.90446147884E+02  0.10729405990E+03  0.41800000000E+01 0. -1.
        -11    1    3    3    0    0  0.34033485156E+02  0.16582258193E+02  0.21608976010E+02  0.43591251907E+02  0.00000000000E+00 0.  1.
         11    1    3    3    0    0 -0.41266572548E+02  0.70396813994E+00  0.10647336869E+03  0.11419283612E+03  0.00000000000E+00 0. -1.
</event>
<event>
 7    1  0.4274778E-006  0.1291120E+03  0.7561462E-02  0.1228779E+00
         -2   -1    0    0    0  501 -0.00000000000E+00  0.00000000000E+00  0.56467886512E+02  0.56467886512E+02  0.00000000000E+00 0. -1.
          2   -1    0    0  501    0  0.00000000000E+00 -0.00000000000E+00 -0.32181455977E+03  0.32181455977E+03  0.00000000000E+00 0.  1.
         23    2    1    2    0    0  0.41086613543E+02  0.62547903757E+02 -0.78831606709E+02  0.14156538776E+03  0.90697225526E+02 0.  0.
          5    1    1    2  502    0 -0.57267015038E+02  0.18317174357E+02 -0.55980470210E+02  0.82257615652E+02  0.41800000000E+01 0.  1.
         -5    1    1    2    0  502  0.16180401495E+02 -0.80865078114E+02 -0.13053459634E+03  0.15445944287E+03  0.41800000000E+01 0.  1.
        -11    1    3    3    0    0  0.11526210259E+02 -0.22533108366E+02 -0.29503928288E+02  0.38872564618E+02  0.00000000000E+00 0. -1.
         11    1    3    3    0    0  0.29560403284E+02  0.85081012123E+02 -0.49327678421E+02  0.10269282314E+03  0.00000000000E+00 0.  1.
</event>
<event>
 7    1  0.4274778E-006  0.9835087E+02  0.7561462E-02  0.1283803E+00
          2   -1    0    0  501    0  0.00000000000E+00  0.00000000000E+00  0.72212779279E+02  0.72212779279E+02  0.00000000000E+00 0. -1.
         -2   -1    0    0    0  501 -0.00000000000E+00 -0.00000000000E+00 -0.29191573968E+03  0.29191573968E+03  0.00000000000E+00 0.  1.
         23    2    1    2    0    0 -0.61446826468E+02  0.17317628826E+02 -0.29155929139E+02  0.13263770458E+03  0.11254812180E+03 0.  0.
          5    1    1    2  502    0  0.20156159239E+02  0.49415080779E+01  0.11455987740E+02  0.24070756375E+02  0.41800000000E+01 0. -1.
         -5    1    1    2    0  502  0.41290667229E+02 -0.22259136904E+02 -0.20200301900E+03  0.20742005800E+03  0.41800000000E+01 0.  1.
        -11    1    3    3    0    0 -0.44207452178E+02 -0.45415644209E+02 -0.63448168762E+01  0.63695653449E+02  0.00000000000E+00 0.  1.
         11    1    3    3    0    0 -0.17239374290E+02  0.62733273036E+02 -0.22811112262E+02  0.68942051132E+02  0.00000000000E+00 0. -1.
</event>
<event>
 7    1  0.4274778E-006  0.1210024E+03  0.7561462E-02  0.1241452E+00
          1   -1    0    0  501    0  0.00000000000E+00  0.00000000000E+00  0.47636252541E+03  0.47636252541E+03  0.00000000000E+00 0. -1.
         -1   -1    0    0    0  501 -0.00000000000E+00 -0.00000000000E+00 -0.55762400543E+02  0.55762400543E+02  0.00000000000E+00 0.  1.
         23    2    1    2    0    0  0.89199318018E+02 -0.50141803030E+02  0.87339824212E+02  0.16174608139E+03  0.89793269258E+02 0.  0.
          5    1    1    2  502    0 -0.79043702920E+02  0.84236032806E+01  0.77817445691E+02  0.11131887224E+03  0.41800000000E+01 0. -1.
         -5    1    1    2    0  502 -0.10155615099E+02  0.41718199749E+02  0.25544285497E+03  0.25905997233E+03  0.41800000000E+01 0. -1.
        -11    1    3    3    0    0  0.31189301137E+02  0.12758390309E+02 -0.69626530967E+01  0.34409701638E+02  0.00000000000E+00 0.  1.
         11    1    3    3    0    0  0.58010016882E+02 -0.62900193338E+02  0.94302477309E+02  0.12733637975E+03  0.00000000000E+00 0. -1.
</event>
<event>
 7    1  0.4274778E-006  0.9209370E+02  0.7561462E-02  0.1297859E+00
          2   -1    0    0  501    0  0.00000000000E+00  0.00000000000E+00  0.18319220421E+02  0.18319220421E+02  0.00000000000E+00 0. -1.
         -2   -1    0    0    0  501 -0.00000000000E+00 -0.00000000000E+00 -0.10443208612E+04  0.10443208612E+04  0.00000000000E+00 0.  1.
         23    2    1    2    0    0  0.85674171985E+01  0.23271085572E+02 -0.15631003312E+03  0.18364849671E+03  0.93161149791E+02 0.  0.
          5    1    1    2  502    0  0.14247531413E+02 -0.70671076116E+02 -0.41355513810E+03  0.41981271753E+03  0.41800000000E+01 0. -1.
         -5    1    1    2    0  502 -0.22814948612E+02  0.47399990545E+02 -0.45613646954E+03  0.45917886736E+03  0.41800000000E+01 0. -1.
        -11    1    3    3    0    0 -0.18839971552E+02 -0.53402838984E+01  0.27083294455E+01  0.19768616760E+02  0.00000000000E+00 0. -1.
         11    1    3    3    0    0  0.27407388751E+02  0.28611369470E+02 -0.15901836256E+03  0.16387987995E+03  0.00000000000E+00 0.  1.
</event>
<event>
 7    1  0.4274778E-006  0.1348744E+03  0.7561462E-02  0.1220397E+00
          1   -1    0    0  501    0  0.00000000000E+00  0.00000000000E+00  0.33098598609E+03  0.33098598609E+03  0.00000000000E+00 0. -1.
         -1   -1    0    0    0  501 -0.00000000000E+00 -0.00000000000E+00 -0.11156181542E+03  0.11156181542E+03  0.00000000000E+00 0.  1.
         23    2    1    2    0    0  0.42599383065E+02  0.88725065116E+02  0.24696550946E+03  0.28101313936E+03  0.91047114245E+02 0.  0.
          5    1    1    2  502    0 -0.60726066942E+02 -0.49737451859E+01 -0.42557667193E+02  0.74438033185E+02  0.41800000000E+01 0.  1.
         -5    1    1    2    0  502  0.18126683878E+02 -0.83751319930E+02  0.15016328393E+02  0.87096628964E+02  0.41800000000E+01 0.  1.
        -11    1    3    3    0    0 -0.21017560336E+02  0.27288512764E+02  0.12934626618E+03  0.13385386564E+03  0.00000000000E+00 0. -1.
         11    1    3    3    0    0  0.63616943401E+02  0.61436552352E+02  0.11761924328E+03  0.14715927372E+03  0.00000000000E+00 0.  1.
</event>
<event>
 7    1  0.4274778E-006  0.1096776E+03  0.7561462E-02  0.1261168E+00
          1   -1    0    0  501    0  0.00000000000E+00  0.00000000000E+00  0.63335877052E+03  0.63335877052E+03  0.00000000000E+00 0. -1.
         -1   -1    0    0    0  501 -0.00000000000E+00 -0.00000000000E+00 -0.23690048946E+02  0.23690048946E+02  0.00000000000E+00 0.  1.
         23    2    1    2    0    0  0.41939670248E+02  0.38067367699E+02  0.23993133912E+03  0.26263825762E+03  0.90574535318E+02 0.  0.
          5    1    1    2  502    0 -0.73731706108E+02 -0.85125606644E+01  0.12200218660E+03  0.14286649051E+03  0.41800000000E+01 0.  1.
         -5    1    1    2    0  502  0.31792035860E+02 -0.29554807034E+02  0.24773519584E+03  0.25154407133E+03  0.41800000000E+01 0.  1.
        -11    1    3    3    0    0  0.91072283534E+01 -0.27017085182E+02  0.11020691701E+03  0.11383509589E+03  0.00000000000E+00 0. -1.
         11    1    3    3    0    0  0.32832441894E+02  0.65084452881E+02  0.12972442212E+03  0.14880316173E+03  0.00000000000E+00 0.  1.
</event>
<event>
 7    1  0.4274778E-006  0.1119023E+03  0.7561462E-02  0.1257087E+00
          1   -1    0    0  501    0  0.00000000000E+00  0.00000000000E+00  0.37091688651E+03  0.37091688651E+03  0.00000000000E+00 0. -1.
         -1   -1    0    0    0  501 -0.00000000000E+00 -0.00000000000E+00 -0.45093705398E+02  0.45093705398E+02  0.00000000000E+00 0.  1.
         23    2    1    2    0    0 -0.15275135990E+02 -0.68767915753E+02  0.19101939237E+03  0.21907636298E+03  0.80893068537E+02 0.  0.
          5    1    1    2  502    0  0.60783145605E+02  0.72459885206E+02  0.70861934588E+02  0.11825359160E+03  0.41800000000E+01 0. -1.
         -5    1    1    2    0  502 -0.45508009615E+02 -0.36919694535E+01  0.63941854149E+02  0.78680637323E+02  0.41800000000E+01 0. -1.
        -11    1    3    3    0    0 -0.30176637710E+02 -0.34007671901E+02  0.31941245762E+02  0.55564326617E+02  0.00000000000E+00 0.  1.
         11    1    3    3    0    0  0.14901501720E+02 -0.34760243852E+02  0.15907814661E+03  0.16351203636E+03  0.00000000000E+00 0. -1.
</event>
<event>
 7    1  0.4274778E-006  0.1558221E+03  0.7561462E-02  0.1193496E+00
          2   -1    0    0  501    0  0.00000000000E+00  0.00000000000E+00  0.30443208097E+03  0.30443208097E+03  0.00000000000E+00 0. -1.
         -2   -1    0    0    0  501 -0.00000000000E+00 -0.00000000000E+00 -0.11816031304E+03  0.11816031304E+03  0.00000000000E+00 0.  1.
         23    2    1    2    0    0  0.13884168245E+03  0.65332155716E+02  0.11534238435E+03  0.21229865601E+03  0.90672765280E+02 0.  0.
          5    1    1    2  502    0 -0.71119325547E+02 -0.14287653861E+02  0.97253065950E+02  0.12139903935E+03  0.41800000000E+01 0. -1.
         -5    1    1    2    0  502 -0.67722356899E+02 -0.51044501854E+02 -0.26323682361E+02  0.88894698641E+02  0.41800000000E+01 0. -1.
        -11    1    3    3    0    0  0.90194218246E+02  0.35001772806E+02  0.12073665289E+03  0.15471735667E+03  0.00000000000E+00 0. -1.
         11    1    3    3    0    0  0.48647464200E+02  0.30330382910E+02 -0.53942685448E+01  0.57581299340E+02  0.00000000000E+00 0.  1.
</event>
<event>
 7    1  0.4274778E-006  0.1212060E+03  0.7561462E-02  0.1241121E+00
          3   -1    0    0  501    0  0.00000000000E+00  0.00000000000E+00  0.88478271894E+02  0.88478271894E+02  0.00000000000E+00 0. -1.
         -3   -1    0    0    0  501 -0.00000000000E+00 -0.00000000000E+00 -0.20403687136E+03  0.20403687136E+03  0.00000000000E+00 0.  1.
         23    2    1    2    0    0 -0.77138740376E+02 -0.12919656516E+02 -0.45048945547E+02  0.12902093883E+03  0.92193776198E+02 0.  0.
          5    1    1    2  502    0 -0.14669580290E+02  0.24525010333E+02  0.19088228946E+02  0.34619439655E+02  0.41800000000E+01 0.  1.
         -5    1    1    2    0  502  0.91808320666E+02 -0.11605353818E+02 -0.89597882862E+02  0.12887476477E+03  0.41800000000E+01 0.  1.
        -11    1    3    3    0    0 -0.93987087668E+02  0.76620020490E+01 -0.35546607687E+02  0.10077618886E+03  0.00000000000E+00 0. -1.
         11    1    3    3    0    0  0.16848347292E+02 -0.20581658565E+02 -0.95023378606E+01  0.28244749965E+02  0.00000000000E+00 0.  1.
</event>
<event>
 7    1  0.4274778E-006  0.3803413E+03  0.7561462E-02  0.1050808E+00
         -1   -1    0    0    0  501 -0.00000000000E+00  0.00000000000E+00  0.65043738711E+03  0.65043738711E+03  0.00000000000E+00 0.  1.
          1   -1    0    0  501    0  0.00000000000E+00 -0.00000000000E+00 -0.34218427682E+03  0.34218427682E+03  0.00000000000E+00 0. -1.
         23    2    1    2    0    0 -0.99664992984E+02  0.35749068055E+03 -0.13045406038E+03  0.40453613706E+03  0.94332003115E+02 0.  0.
          5    1    1    2  502    0  0.88902384592E+01  0.23634470018E+01 -0.35649435380E+01  0.10714636906E+02  0.41800000000E+01 0. -1.
         -5    1    1    2    0  502  0.90774754525E+02 -0.35985412755E+03  0.44227211422E+03  0.57737088997E+03  0.41800000000E+01 0. -1.
        -11    1    3    3    0    0 -0.10205056519E+03  0.22664252835E+03 -0.11104250698E+03  0.27223444284E+03  0.00000000000E+00 0. -1.
         11    1    3    3    0    0  0.23855722036E+01  0.13084815219E+03 -0.19411553408E+02  0.13230169422E+03  0.00000000000E+00 0.  1.
</event>
<event>
 7    1  0.4274778E-006  0.1742414E+03  0.7561462E-02  0.1173496E+00
         -1   -1    0    0    0  501 -0.00000000000E+00  0.00000000000E+00  0.10820494175E+04  0.10820494175E+04  0.00000000000E+00 0.  1.
          1   -1    0    0  501    0  0.00000000000E+00 -0.00000000000E+00 -0.39097671734E+02  0.39097671734E+02  0.00000000000E+00 0. -1.
         23    2    1    2    0    0 -0.17035889289E+03  0.15452893729E+02  0.43569137468E+03  0.47797322037E+03  0.96801245393E+02 0.  0.
          5    1    1    2  502    0  0.10492418862E+03  0.65042940222E+01  0.52625949482E+03  0.53667300984E+03  0.41800000000E+01 0. -1.
         -5    1    1    2    0  502  0.65434704269E+02 -0.21957187751E+02  0.81000876251E+02  0.10650085901E+03  0.41800000000E+01 0. -1.
        -11    1    3    3    0    0 -0.44063372329E+02  0.18513302388E+02  0.39112593102E+02  0.61758546660E+02  0.00000000000E+00 0. -1.
         11    1    3    3    0    0 -0.12629552056E+03 -0.30604086587E+01  0.39657878158E+03  0.41621467371E+03  0.00000000000E+00 0.  1.
</event>
<event>
 7    1  0.4274778E-006  0.3005537E+03  0.7561462E-02  0.1084964E+00
         -2   -1    0    0    0  501 -0.00000000000E+00  0.00000000000E+00  0.19283854839E+03  0.19283854839E+03  0.00000000000E+00 0.  1.
          2   -1    0    0  501    0  0.00000000000E+00 -0.00000000000E+00 -0.58960521912E+03  0.58960521912E+03  0.00000000000E+00 0. -1.
         23    2    1    2    0    0 -0.15499141524E+03 -0.24220005173E+03 -0.35546983422E+03  0.46617638474E+03  0.90985794453E+02 0.  0.
          5    1    1    2  502    0  0.36990647437E+01  0.74377246367E+02 -0.50526714064E+02  0.90089283998E+02  0.41800000000E+01 0.  1.
         -5    1    1    2    0  502  0.15129235050E+03  0.16782280536E+03  0.92298775538E+01  0.22617809876E+03  0.41800000000E+01 0.  1.
        -11    1    3    3    0    0 -0.13170168909E+03 -0.12685787932E+03 -0.19688943541E+03  0.26870747334E+03  0.00000000000E+00 0.  1.
         11    1    3    3    0    0 -0.23289726150E+02 -0.11534217242E+03 -0.15858039882E+03  0.19746891140E+03  0.00000000000E+00 0. -1.
</event>
<event>
 7    1  0.4274778E-006  0.2366341E+03  0.7561462E-02  0.1122056E+00
         -2   -1    0    0    0  501 -0.00000000000E+00  0.00000000000E+00  0.27617900340E+02  0.27617900340E+02  0.00000000000E+00 0. -1.
          2   -1    0    0  501    0  0.00000000000E+00 -0.00000000000E+00 -0.21705077556E+04  0.21705077556E+04  0.00000000000E+00 0.  1.
         23    2    1    2    0    0 -0.21549057983E+03  0.37374697847E+02 -0.98169502253E+03  0.10099108567E+04  0.91442676687E+02 0.  0.
          5    1    1    2  502    0  0.79694459168E+02  0.33302385766E+02 -0.25741023173E+03  0.27154696743E+03  0.41800000000E+01 0. -1.
         -5    1    1    2    0  502  0.13579612066E+03 -0.70677083612E+02 -0.90378460096E+03  0.91666783181E+03  0.41800000000E+01 0. -1.
        -11    1    3    3    0    0 -0.19590552304E+03  0.51900417492E+01 -0.87739231236E+03  0.89901233599E+03  0.00000000000E+00 0.  1.
         11    1    3    3    0    0 -0.19585056793E+02  0.32184656097E+02 -0.10430271018E+03  0.11089852068E+03  0.00000000000E+00 0. -1.
</event>
<event>
 7    1  0.4274778E-006  0.1584793E+03  0.7561462E-02  0.1190424E+00
          1   -1    0    0  501    0  0.00000000000E+00  0.00000000000E+00  0.71954236650E+03  0.71954236650E+03  0.00000000000E+00 0. -1.
         -1   -1    0    0    0  501 -0.00000000000E+00 -0.00000000000E+00 -0.64768398688E+02  0.64768398688E+02  0.00000000000E+00 0.  1.
         23    2    1    2    0    0 -0.23897266936E+02  0.14457417698E+03  0.52364877132E+03  0.55125516885E+03  0.90561876408E+02 0.  0.
          5    1    1    2  502    0  0.44523323642E+02 -0.14090792451E+03  0.14540641327E+03  0.20735927025E+03  0.41800000000E+01 0. -1.
         -5    1    1    2    0  502 -0.20626056706E+02 -0.36662524633E+01 -0.14281216772E+02  0.25696326096E+02  0.41800000000E+01 0. -1.
        -11    1    3    3    0    0 -0.42511020665E+01  0.83459412508E+02  0.42786127181E+03  0.43594588347E+03  0.00000000000E+00 0. -1.
         11    1    3    3    0    0 -0.19646164869E+02  0.61114764470E+02  0.95787499516E+02  0.11530928538E+03  0.00000000000E+00 0.  1.
</event>
<event>
 7    1  0.4274778E-006  0.1194979E+03  0.7561462E-02  0.1243928E+00
          1   -1    0    0  501    0  0.00000000000E+00  0.00000000000E+00  0.74437944935E+03  0.74437944935E+03  0.00000000000E+00 0. -1.
         -1   -1    0    0    0  501 -0.00000000000E+00 -0.00000000000E+00 -0.20449377457E+02  0.20449377457E+02  0.00000000000E+00 0.  1.
         23    2    1    2    0    0  0.26596427769E+02 -0.61879472601E+02  0.33598981179E+03  0.35561178519E+03  0.95048140643E+02 0.  0.
          5    1    1    2  502    0  0.27624369793E+02 -0.12316468406E+02  0.16899915835E+03  0.17173522971E+03  0.41800000000E+01 0. -1.
         -5    1    1    2    0  502 -0.54220797562E+02  0.74195941006E+02  0.21894110176E+03  0.23748181191E+03  0.41800000000E+01 0.  1.
        -11    1    3    3    0    0 -0.30670732605E+02  0.19311397707E+01  0.85667194775E+02  0.91012589239E+02  0.00000000000E+00 0.  1.
         11    1    3    3    0    0  0.57267160374E+02 -0.63810612371E+02  0.25032261701E+03  0.26459919595E+03  0.00000000000E+00 0. -1.
</event>
<event>
 7    1  0.4274778E-006  0.1197561E+03  0.7561462E-02  0.1243500E+00
          3   -1    0    0  501    0  0.00000000000E+00  0.00000000000E+00  0.45845625945E+02  0.45845625945E+02  0.00000000000E+00 0. -1.
         -3   -1    0    0    0  501 -0.00000000000E+00 -0.00000000000E+00 -0.47156717046E+03  0.47156717046E+03  0.00000000000E+00 0.  1.
         23    2    1    2    0    0 -0.63747544139E+01 -0.96378605418E+02 -0.16126630306E+03  0.20932955338E+03  0.92100859592E+02 0.  0.
          5    1    1    2  502    0 -0.85719681942E+01  0.10533724978E+03 -0.11003123775E+03  0.15262293573E+03  0.41800000000E+01 0.  1.
         -5    1    1    2    0  502  0.14946722608E+02 -0.89586443613E+01 -0.15442400370E+03  0.15546030730E+03  0.41800000000E+01 0.  1.
        -11    1    3    3    0    0 -0.33229300807E+02 -0.32278640862E+02 -0.11969507077E+03  0.12834721288E+03  0.00000000000E+00 0.  1.
         11    1    3    3    0    0  0.26854546393E+02 -0.64099964555E+02 -0.41571232296E+02  0.80982340498E+02  0.00000000000E+00 0. -1.
</event>
<event>
 7    1  0.4274778E-006  0.1206467E+03  0.7561462E-02  0.1242034E+00
         -3   -1    0    0    0  501 -0.00000000000E+00  0.00000000000E+00  0.23755119673E+02  0.23755119673E+02  0.00000000000E+00 0.  1.
          3   -1    0    0  501    0  0.00000000000E+00 -0.00000000000E+00 -0.67324162655E+03  0.67324162655E+03  0.00000000000E+00 0. -1.
         23    2    1    2    0    0  0.15839140989E+01  0.61232436499E+02 -0.34651738179E+03  0.36354654768E+03  0.91322923682E+02 0.  0.
          5    1    1    2  502    0  0.18143807176E+02  0.34897425592E+02 -0.66206353312E+02  0.77121862469E+02  0.41800000000E+01 0. -1.
         -5    1    1    2    0  502 -0.19727721275E+02 -0.96129862092E+02 -0.23676277178E+03  0.25632833608E+03  0.41800000000E+01 0. -1.
        -11    1    3    3    0    0 -0.31469026436E+02 -0.26605446120E+01 -0.56362853371E+02  0.64607657151E+02  0.00000000000E+00 0.  1.
         11    1    3    3    0    0  0.33052940535E+02  0.63892981111E+02 -0.29015452841E+03  0.29893889053E+03  0.00000000000E+00 0. -1.
</event>
<event>
 7    1  0.4274778E-006  0.1981242E+03  0.7561462E-02  0.1151331E+00
         -1   -1    0    0    0  501 -0.00000000000E+00  0.00000000000E+00  0.74225307297E+02  0.74225307297E+02  0.00000000000E+00 0.  1.
          1   -1    0    0  501    0  0.00000000000E+00 -0.00000000000E+00 -0.97062461236E+03  0.97062461236E+03  0.00000000000E+00 0. -1.
         23    2    1    2    0    0 -0.17326068465E+03 -0.62566158522E+02 -0.76385280012E+03  0.79114585937E+03  0.92232757220E+02 0.  0.
          5    1    1    2  502    0  0.71296922332E+02  0.51644044135E+02 -0.12203686873E+03  0.15053513928E+03  0.41800000000E+01 0. -1.
         -5    1    1    2    0  502  0.10196376231E+03  0.10922114386E+02 -0.10509636205E+02  0.10316892100E+03  0.41800000000E+01 0.  1.
        -11    1    3    3    0    0 -0.10236591943E+02 -0.39533961958E+02 -0.17566961328E+03  0.18035391594E+03  0.00000000000E+00 0.  1.
         11    1    3    3    0    0 -0.16302409270E+03 -0.23032196564E+02 -0.58818318684E+03  0.61079194343E+03  0.00000000000E+00 0. -1.
</event>
<event>
 7    1  0.4274778E-006  0.2431681E+03  0.7561462E-02  0.1117700E+00
         -1   -1    0    0    0  501 -0.00000000000E+00  0.00000000000E+00  0.91822421817E+02  0.91822421817E+02  0.00000000000E+00 0.  1.
          1   -1    0    0  501    0  0.00000000000E+00 -0.00000000000E+00 -0.93936784900E+03  0.93936784900E+03  0.00000000000E+00 0. -1.
         23    2    1    2    0    0 -0.22286025814E+03  0.79754342339E+02 -0.65037562821E+03  0.69869812830E+03  0.95724432330E+02 0.  0.
          5    1    1    2  502    0  0.77442855108E+02 -0.67859736360E+02 -0.14415055371E+03  0.17719817764E+03  0.41800000000E+01 0. -1.
         -5    1    1    2    0  502  0.14541740304E+03 -0.11894605979E+02 -0.53019245272E+02  0.15529396487E+03  0.41800000000E+01 0. -1.
        -11    1    3    3    0    0 -0.15571144523E+03  0.63985024772E+02 -0.56152282893E+03  0.58621499893E+03  0.00000000000E+00 0. -1.
         11    1    3    3    0    0 -0.67148812913E+02  0.15769317567E+02 -0.88852799281E+02  0.11248312937E+03  0.00000000000E+00 0.  1.
</event>
<event>
 7    1  0.4274778E-006  0.1010707E+03  0.7561462E-02  0.1278060E+00
         -2   -1    0    0    0  501 -0.00000000000E+00  0.00000000000E+00  0.29994558414E+03  0.29994558414E+03  0.00000000000E+00 0.  1.
          2   -1    0    0  501    0  0.00000000000E+00 -0.00000000000E+00 -0.66448724903E+02  0.66448724903E+02  0.00000000000E+00 0. -1.
         23    2    1    2    0    0 -0.52255625790E+02  0.42644173296E+02  0.32571815992E+02  0.12029009799E+03  0.94125493544E+02 0.  0.
          5    1    1    2  502    0 -0.22729636128E+02 -0.24933156125E+02  0.14964131155E+03  0.15345453123E+03  0.41800000000E+01 0. -1.
         -5    1    1    2    0  502  0.74985261918E+02 -0.17711017171E+02  0.51283731692E+02  0.92649679818E+02  0.41800000000E+01 0. -1.
        -11    1    3    3    0    0 -0.65097520602E+02  0.43202503989E+02  0.54229531632E+02  0.95105129412E+02  0.00000000000E+00 0.  1.
         11    1    3    3    0    0  0.12841894813E+02 -0.55833069325E+00 -0.21657715640E+02  0.25184968578E+02  0.00000000000E+00 0. -1.
</event>
<event>
 7    1  0.4274778E-006  0.1349125E+03  0.7561462E-02  0.1220343E+00
          2   -1    0    0  501    0  0.00000000000E+00  0.00000000000E+00  0.24745866804E+03  0.24745866804E+03  0.00000000000E+00 0. -1.
         -2   -1    0    0    0  501 -0.00000000000E+00 -0.00000000000E+00 -0.96313704735E+02  0.96313704735E+02  0.00000000000E+00 0.  1.
         23    2    1    2    0    0  0.23210107033E+02 -0.10537523645E+03  0.85013955799E+02  0.16582340776E+03  0.92883692612E+02 0.  0.
          5    1    1    2  502    0 -0.35862990378E+02  0.19112478749E+02 -0.28038224621E+02  0.49548515242E+02  0.41800000000E+01 0.  1.
         -5    1    1    2    0  502  0.12652883344E+02  0.86262757703E+02  0.94169232126E+02  0.12840044978E+03  0.41800000000E+01 0.  1.
        -11    1    3    3    0    0  0.56148715613E+02 -0.88156554791E+02  0.69680939478E+02  0.12561723506E+03  0.00000000000E+00 0.  1.
         11    1    3    3    0    0 -0.32938608580E+02 -0.17218681662E+02  0.15333016321E+02  0.40206172696E+02  0.00000000000E+00 0. -1.
</event>
<event>
 7    1  0.4274778E-006  0.9195234E+02  0.7561462E-02  0.1298192E+00
          1   -1    0    0  501    0  0.00000000000E+00  0.00000000000E+00  0.24545447283E+03  0.24545447283E+03  0.00000000000E+00 0. -1.
         -1   -1    0    0    0  501 -0.00000000000E+00 -0.00000000000E+00 -0.53176323761E+02  0.53176323761E+02  0.00000000000E+00 0.  1.
         23    2    1    2    0    0 -0.46123190787E-01 -0.27657285402E+02  0.12866595027E+03  0.15559846301E+03  0.83012212173E+02 0.  0.
          5    1    1    2  502    0  0.47312800984E+02 -0.22510732818E+02  0.56269916814E+01  0.52861797778E+02  0.41800000000E+01 0.  1.
         -5    1    1    2    0  502 -0.47266677793E+02  0.50168018220E+02  0.57985207112E+02  0.90170535795E+02  0.41800000000E+01 0.  1.
        -11    1    3    3    0    0 -0.20992737691E+02  0.67123080648E+01  0.10824284197E+03  0.11046385360E+03  0.00000000000E+00 0. -1.
         11    1    3    3    0    0  0.20946614500E+02 -0.34369593467E+02  0.20423108305E+02  0.45134609414E+02  0.00000000000E+00 0.  1.
</event>
<event>
 7    1  0.4274778E-006  0.9839781E+02  0.7561462E-02  0.1283702E+00
          3   -1    0    0  501    0  0.00000000000E+00  0.00000000000E+00  0.16956194653E+02  0.16956194653E+02  0.00000000000E+00 0. -1.
         -3   -1    0    0    0  501 -0.00000000000E+00 -0.00000000000E+00 -0.88016057667E+03  0.88016057667E+03  0.00000000000E+00 0.  1.
         23    2    1    2    0    0  0.22486983652E+02  0.50357804314E+02 -0.35746643288E+03  0.37322796596E+03  0.92061343915E+02 0.  0.
          5    1    1    2  502    0 -0.49432184127E+02 -0.36115248584E+02 -0.47963324811E+03  0.48354252874E+03  0.41800000000E+01 0.  1.
         -5    1    1    2    0  502  0.26945200475E+02 -0.14242555730E+02 -0.26104701031E+02  0.40346276635E+02  0.41800000000E+01 0.  1.
        -11    1    3    3    0    0  0.12348428182E+02  0.76052108711E+02 -0.29557912666E+03  0.30545609674E+03  0.00000000000E+00 0.  1.
         11    1    3    3    0    0  0.10138555470E+02 -0.25694304397E+02 -0.61887306226E+02  0.67771869218E+02  0.00000000000E+00 0. -1.
</event>
<event>
 7    1  0.4274778E-006  0.1440867E+03  0.7561462E-02  0.1207933E+00
         -1   -1    0    0    0  501 -0.00000000000E+00  0.00000000000E+00  0.33710807176E+03  0.33710807176E+03  0.00000000000E+00 0.  1.
          1   -1    0    0  501    0  0.00000000000E+00 -0.00000000000E+00 -0.80964492177E+02  0.80964492177E+02  0.00000000000E+00 0. -1.
         23    2    1    2    0    0 -0.12027508527E+03 -0.22700591760E+02  0.92556453734E+02  0.17850778673E+03  0.91197147947E+02 0.  0.
          5    1    1    2  502    0  0.26754070345E+02 -0.28128433115E+02 -0.57938650676E+01  0.39471892556E+02  0.41800000000E+01 0. -1.
         -5    1    1    2    0  502  0.93521014926E+02  0.50829024874E+02  0.16938099091E+03  0.20009288464E+03  0.41800000000E+01 0. -1.
        -11    1    3    3    0    0 -0.37347959547E+02  0.26854224035E+02  0.19194706467E+01  0.46040241077E+02  0.00000000000E+00 0. -1.
         11    1    3    3    0    0 -0.82927125724E+02 -0.49554815794E+02  0.90636983088E+02  0.13246754566E+03  0.00000000000E+00 0.  1.
</event>
<event>
 7    1  0.4274778E-006  0.1198180E+03  0.7561462E-02  0.1243398E+00
         -4   -1    0    0    0  501 -0.00000000000E+00  0.00000000000E+00  0.10620234352E+03  0.10620234352E+03  0.00000000000E+00 0.  1.
          4   -1    0    0  501    0  0.00000000000E+00 -0.00000000000E+00 -0.17968634029E+03  0.17968634029E+03  0.00000000000E+00 0. -1.
         23    2    1    2    0    0 -0.25808956354E+02 -0.54337002438E+02 -0.93480067216E+02  0.14564960984E+03  0.94109902870E+02 0.  0.
          5    1    1    2  502    0  0.78748234781E+01 -0.37877206199E+02 -0.12304289146E+02  0.40811316147E+02  0.41800000000E+01 0. -1.
         -5    1    1    2    0  502  0.17934132876E+02  0.92214208637E+02  0.32300359590E+02  0.99427757825E+02  0.41800000000E+01 0. -1.
        -11    1    3    3    0    0  0.14944836954E+02 -0.63233257906E+02 -0.77119323140E+02  0.10084236738E+03  0.00000000000E+00 0. -1.
         11    1    3    3    0    0 -0.40753793309E+02  0.88962554680E+01 -0.16360744076E+02  0.44807242463E+02  0.00000000000E+00 0.  1.
</event>
<event>
 7    1  0.4274778E-006  0.1079665E+03  0.7561462E-02  0.1264383E+00
         -3   -1    0    0    0  501 -0.00000000000E+00  0.00000000000E+00  0.15984989302E+03  0.15984989302E+03  0.00000000000E+00 0.  1.
          3   -1    0    0  501    0  0.00000000000E+00 -0.00000000000E+00 -0.86357657870E+02  0.86357657870E+02  0.00000000000E+00 0. -1.
         23    2    1    2    0    0 -0.11961704997E+02 -0.72805864049E+01 -0.15272642691E+02  0.92185776731E+02  0.89826914074E+02 0.  0.
          5    1    1    2  502    0  0.58503693273E+02 -0.30156089491E+02  0.44491988599E+02  0.79555523438E+02  0.41800000000E+01 0. -1.
         -5    1    1    2    0  502 -0.46541988276E+02  0.37436675896E+02  0.44272889244E+02  0.74466250724E+02  0.41800000000E+01 0. -1.
        -11    1    3    3    0    0  0.34470063069E+02  0.16185809813E+02 -0.12527081065E+02  0.40088570033E+02  0.00000000000E+00 0.  1.
         11    1    3    3    0    0 -0.46431768065E+02 -0.23466396218E+02 -0.27455616263E+01  0.52097206699E+02  0.00000000000E+00 0. -1.
</event>
<event>
 7    1  0.4274778E-006  0.1215547E+03  0.7561462E-02  0.1240554E+00
         -1   -1    0    0    0  501 -0.00000000000E+00  0.00000000000E+00  0.13142049303E+03  0.13142049303E+03  0.00000000000E+00 0.  1.
          1   -1    0    0  501    0  0.00000000000E+00 -0.00000000000E+00 -0.18337106387E+03  0.18337106387E+03  0.00000000000E+00 0. -1.
         23    2    1    2    0    0  0.60183471854E+02 -0.24515637871E+02 -0.11473139593E+03  0.16052277133E+03  0.91548894688E+02 0.  0.
          5    1    1    2  502    0 -0.96174032196E+02  0.30949606842E+02  0.31328359039E+02  0.10585962929E+03  0.41800000000E+01 0.  1.
         -5    1    1    2    0  502  0.35990560342E+02 -0.64339689713E+01  0.31452466054E+02  0.48409156276E+02  0.41800000000E+01 0.  1.
        -11    1    3    3    0    0  0.99108463793E+01 -0.48492346140E+02 -0.26394596298E+02  0.56092844676E+02  0.00000000000E+00 0.  1.
         11    1    3    3    0    0  0.50272625475E+02  0.23976708269E+02 -0.88336799635E+02  0.10442992666E+03  0.00000000000E+00 0. -1.
</event>
<event>
 7    1  0.4274778E-006  0.1078826E+03  0.7561462E-02  0.1264542E+00
         -2   -1    0    0    0  501 -0.00000000000E+00  0.00000000000E+00  0.18352588069E+03  0.18352588069E+03  0.00000000000E+00 0.  1.
          2   -1    0    0  501    0  0.00000000000E+00 -0.00000000000E+00 -0.73093172704E+02  0.73093172704E+02  0.00000000000E+00 0. -1.
         23    2    1    2    0    0 -0.21951655926E+02  0.41996001122E+01  0.44279422934E+01  0.91135763428E+02  0.88241763716E+02 0.  0.
          5    1    1    2  502    0  0.84012158692E+01 -0.63664729280E+02  0.67366605274E+02  0.93163888328E+02  0.41800000000E+01 0.  1.
         -5    1    1    2    0  502  0.13550440056E+02  0.59465129168E+02  0.38638160418E+02  0.72319401637E+02  0.41800000000E+01 0.  1.
        -11    1    3    3    0    0  0.33937388486E+02  0.54765457666E+01  0.73592544286E+01  0.35155334112E+02  0.00000000000E+00 0. -1.
         11    1    3    3    0    0 -0.55889044412E+02 -0.12769456544E+01 -0.29313121352E+01  0.55980429316E+02  0.00000000000E+00 0.  1.
</event>
<event>
 7    1  0.4274778E-006  0.2287620E+03  0.7561462E-02  0.1127514E+00
         -2   -1    0    0    0  501 -0.00000000000E+00  0.00000000000E+00  0.10558626486E+04  0.10558626486E+04  0.00000000000E+00 0.  1.
          2   -1    0    0  501    0  0.00000000000E+00 -0.00000000000E+00 -0.62621144875E+02  0.62621144875E+02  0.00000000000E+00 0. -1.
         23    2    1    2    0    0  0.50911886039E+02  0.20050594991E+03  0.25107156560E+03  0.33793408456E+03  0.91475998847E+02 0.  0.
          5    1    1    2  502    0 -0.91805882548E+02 -0.13014838447E+03  0.52259164488E+03  0.54633910875E+03  0.41800000000E+01 0.  1.
         -5    1    1    2    0  502  0.40893996510E+02 -0.70357565445E+02  0.21957829328E+03  0.23421060020E+03  0.41800000000E+01 0.  1.
        -11    1    3    3    0    0  0.23536491972E+02  0.18235366940E+03  0.24187097314E+03  0.30382296629E+03  0.00000000000E+00 0.  1.
         11    1    3    3    0    0  0.27375394066E+02  0.18152280511E+02  0.92005924618E+01  0.34111118271E+02  0.00000000000E+00 0. -1.
</event>
<event>
 7    1  0.4274778E-006  0.1258202E+03  0.7561462E-02  0.1233793E+00
          1   -1    0    0  501    0  0.00000000000E+00  0.00000000000E+00  0.59418748531E+03  0.59418748531E+03  0.00000000000E+00 0. -1.
         -1   -1    0    0    0  501 -0.00000000000E+00 -0.00000000000E+00 -0.27989420377E+02  0.27989420377E+02  0.00000000000E+00 0.  1.
         23    2    1    2    0    0 -0.63633772267E+02 -0.48823612550E+01  0.31211556220E+03  0.33187003167E+03  0.92997308181E+02 0.  0.
          5    1    1    2  502    0  0.10175604227E+03  0.23650280448E+01  0.18986082616E+03  0.21546343357E+03  0.41800000000E+01 0. -1.
         -5    1    1    2    0  502 -0.38122269998E+02  0.25173332102E+01  0.64221676564E+02  0.74843440440E+02  0.41800000000E+01 0. -1.
        -11    1    3    3    0    0 -0.37115906952E+02 -0.48025723648E+02  0.14335481639E+03  0.15567486651E+03  0.00000000000E+00 0.  1.
         11    1    3    3    0    0 -0.26517865315E+02  0.43143362392E+02  0.16876074581E+03  0.17619516516E+03  0.00000000000E+00 0. -1.
</event>
<event>
 7    1  0.4274778E-006  0.1003315E+03  0.7561462E-02  0.1279600E+00
          2   -1    0    0  501    0  0.00000000000E+00  0.00000000000E+00  0.25203892286E+03  0.25203892286E+03  0.00000000000E+00 0. -1.
         -2   -1    0    0    0  501 -0.00000000000E+00 -0.00000000000E+00 -0.82352870593E+02  0.82352870593E+02  0.00000000000E+00 0.  1.
         23    2    1    2    0    0  0.67155250499E+02 -0.23770251406E+02  0.14990428583E+03  0.18908716115E+03  0.90596948522E+02 0.  0.
          5    1    1    2  502    0 -0.87839871421E+00  0.27935442648E+02  0.60864068898E+02  0.67104901632E+02  0.41800000000E+01 0. -1.
         -5    1    1    2    0  502 -0.66276851785E+02 -0.41651912425E+01 -0.41082302462E+02  0.78199730666E+02  0.41800000000E+01 0. -1.
        -11    1    3    3    0    0  0.46274682628E+02 -0.52733795251E+02  0.13119676447E+03  0.14877765431E+03  0.00000000000E+00 0.  1.
         11    1    3    3    0    0  0.20880567871E+02  0.28963543845E+02  0.18707521358E+02  0.40309506845E+02  0.00000000000E+00 0. -1.
</event>
<event>
 7    1  0.4274778E-006  0.7794086E+02  0.7561462E-02  0.1334999E+00
          2   -1    0    0  501    0  0.00000000000E+00  0.00000000000E+00  0.12245897685E+03  0.12245897685E+03  0.00000000000E+00 0. -1.
         -2   -1    0    0    0  501 -0.00000000000E+00 -0.00000000000E+00 -0.14013383561E+03  0.14013383561E+03  0.00000000000E+00 0.  1.
         23    2    1    2    0    0  0.51482852405E+02  0.52113095623E+02  0.16297979632E+01  0.11643978817E+03  0.90494802068E+02 0.  0.
          5    1    1    2  502    0  0.21469749702E+01 -0.99711958718E+01  0.48589699426E+02  0.49824346850E+02  0.41800000000E+01 0.  1.
         -5    1    1    2    0  502 -0.53629827375E+02 -0.42141899751E+02 -0.67894356154E+02  0.96328677435E+02  0.41800000000E+01 0.  1.
        -11    1    3    3    0    0  0.38050545011E+02  0.22999184253E+02 -0.42756489583E+02  0.61684064825E+02  0.00000000000E+00 0.  1.
         11    1    3    3    0    0  0.13432307394E+02  0.29113911370E+02  0.44386287546E+02  0.54755723348E+02  0.00000000000E+00 0. -1.
</event>
<event>
 7    1  0.4274778E-006  0.1605271E+03  0.7561462E-02  0.1188103E+00
         -2   -1    0    0    0  501 -0.00000000000E+00  0.00000000000E+00  0.54540194718E+02  0.54540194718E+02  0.00000000000E+00 0.  1.
          2   -1    0    0  501    0  0.00000000000E+00 -0.00000000000E+00 -0.65100012661E+03  0.65100012661E+03  0.00000000000E+00 0. -1.
         23    2    1    2    0    0  0.13706455663E+03 -0.10024438993E+02 -0.41309057612E+03  0.44446516294E+03  0.89544820762E+02 0.  0.
          5    1    1    2  502    0 -0.55123880134E+02 -0.40191941999E+02 -0.19530475897E+02  0.71084078748E+02  0.41800000000E+01 0.  1.
         -5    1    1    2    0  502 -0.81940676497E+02  0.50216380992E+02 -0.16383887987E+03  0.18999107964E+03  0.41800000000E+01 0.  1.
        -11    1    3    3    0    0  0.13676350582E+03  0.93982038166E+01 -0.39425290000E+03  0.41740619535E+03  0.00000000000E+00 0.  1.
         11    1    3    3    0    0  0.30105081152E+00 -0.19422642809E+02 -0.18837676119E+02  0.27058967587E+02  0.00000000000E+00 0. -1.
</event>
<event>
 7    1  0.4274778E-006  0.7383311E+02  0.7561462E-02  0.1347523E+00
         -3   -1    0    0    0  501 -0.00000000000E+00  0.00000000000E+00  0.17713603119E+03  0.17713603119E+03  0.00000000000E+00 0.  1.
          3   -1    0    0  501    0  0.00000000000E+00 -0.00000000000E+00 -0.86479266542E+02  0.86479266542E+02  0.00000000000E+00 0. -1.
         23    2    1    2    0    0  0.53303890550E+02  0.65883124616E+01  0.13926538706E+02  0.10734763494E+03  0.91895895649E+02 0.  0.
          5    1    1    2  502    0 -0.54600352059E+02 -0.34843982495E+02 -0.93381688023E+01  0.65574197347E+02  0.41800000000E+01 0. -1.
         -5    1    1    2    0  502  0.12964615086E+01  0.28255670034E+02  0.86068394741E+02  0.90693465447E+02  0.41800000000E+01 0. -1.
        -11    1    3    3    0    0  0.16269616416E+02  0.52998192103E+01  0.51684524434E+02  0.54443351917E+02  0.00000000000E+00 0.  1.
         11    1    3    3    0    0  0.37034274134E+02  0.12884932513E+01 -0.37757985728E+02  0.52904283019E+02  0.00000000000E+00 0. -1.
</event>
<event>
 7    1  0.4274778E-006  0.1097242E+03  0.7561462E-02  0.1261081E+00
         -3   -1    0    0    0  501 -0.00000000000E+00  0.00000000000E+00  0.56242977037E+03  0.56242977037E+03  0.00000000000E+00 0.  1.
          3   -1    0    0  501    0  0.00000000000E+00 -0.00000000000E+00 -0.28473931513E+02  0.28473931513E+02  0.00000000000E+00 0. -1.
         23    2    1    2    0    0  0.36516463542E+02  0.34680518346E+02  0.13558404676E+03  0.17032792012E+03  0.89957635451E+02 0.  0.
          5    1    1    2  502    0  0.26515687404E+02 -0.59810241244E+02  0.16646031569E+03  0.17890459953E+03  0.41800000000E+01 0. -1.
         -5    1    1    2    0  502 -0.63032150946E+02  0.25129722899E+02  0.23191147641E+03  0.24167118223E+03  0.41800000000E+01 0. -1.
        -11    1    3    3    0    0  0.11028107247E+02  0.53243525289E+02  0.12622270336E+03  0.13743603231E+03  0.00000000000E+00 0.  1.
         11    1    3    3    0    0  0.25488356295E+02 -0.18563006943E+02  0.93613433953E+01  0.32891887808E+02  0.00000000000E+00 0. -1.
</event>
<event>
 7    1  0.4274778E-006  0.1757862E+03  0.7561462E-02  0.1171945E+00
          2   -1    0    0  501    0  0.00000000000E+00  0.00000000000E+00  0.43563732594E+03  0.43563732594E+03  0.00000000000E+00 0.  1.
         -2   -1    0    0    0  501 -0.00000000000E+00 -0.00000000000E+00 -0.92427843908E+02  0.92427843908E+02  0.00000000000E+00 0. -1.
         23    2    1    2    0    0  0.13171949514E+03  0.97286162183E+02  0.21719523216E+03  0.28652541471E+03  0.90046774770E+02 0.  0.
          5    1    1    2  502    0 -0.11145168984E+03 -0.75441473067E+02  0.15108147419E+03  0.20237583668E+03  0.41800000000E+01 0. -1.
         -5    1    1    2    0  502 -0.20267805304E+02 -0.21844689116E+02 -0.25067224322E+02  0.39163918466E+02  0.41800000000E+01 0. -1.
        -11    1    3    3    0    0  0.11782652060E+03  0.34853933243E+02  0.13986592067E+03  0.18617293408E+03  0.00000000000E+00 0.  1.
         11    1    3    3    0    0  0.13892974541E+02  0.62432228940E+02  0.77329311487E+02  0.10035248062E+03  0.00000000000E+00 0. -1.
</event>
<event>
 7    1  0.4274778E-006  0.8869161E+02  0.7561462E-02  0.1306051E+00
          2   -1    0    0  501    0  0.00000000000E+00  0.00000000000E+00  0.39327454783E+03  0.39327454783E+03  0.00000000000E+00 0.  1.
         -2   -1    0    0    0  501 -0.00000000000E+00 -0.00000000000E+00 -0.34624130179E+02  0.34624130179E+02  0.00000000000E+00 0. -1.
         23    2    1    2    0    0 -0.73986100149E+01  0.29556484003E+02  0.21047226943E+03  0.23160075183E+03  0.91716993373E+02 0.  0.
          5    1    1    2  502    0 -0.26018468007E+02  0.10981651000E+02 -0.94663700809E+01  0.30077265478E+02  0.41800000000E+01 0.  1.
         -5    1    1    2    0  502  0.33417078022E+02 -0.40538135003E+02  0.15764451830E+03  0.16622066070E+03  0.41800000000E+01 0.  1.
        -11    1    3    3    0    0 -0.57032020994E+01  0.62693321151E+02  0.12614616740E+03  0.14098168172E+03  0.00000000000E+00 0. -1.
         11    1    3    3    0    0 -0.16954079155E+01 -0.33136837148E+02  0.84326102036E+02  0.90619070116E+02  0.00000000000E+00 0.  1.
</event>
<event>
 7    1  0.4274778E-006  0.9095927E+02  0.7561462E-02  0.1300545E+00
          2   -1    0    0  501    0  0.00000000000E+00  0.00000000000E+00  0.21088891841E+03  0.21088891841E+03  0.00000000000E+00 0.  1.
         -2   -1    0    0    0  501 -0.00000000000E+00 -0.00000000000E+00 -0.75601832300E+02  0.75601832300E+02  0.00000000000E+00 0. -1.
         23    2    1    2    0    0  0.23401345236E+02  0.47602048834E+02  0.10267000567E+03  0.14675644966E+03  0.90458539902E+02 0.  0.
          5    1    1    2  502    0 -0.22522280495E+02 -0.75056027133E+02 -0.19333753663E+02  0.80820336292E+02  0.41800000000E+01 0.  1.
         -5    1    1    2    0  502 -0.87906474144E+00  0.27453978299E+02  0.51950834095E+02  0.58913964749E+02  0.41800000000E+01 0.  1.
        -11    1    3    3    0    0 -0.12628892449E+02  0.35456158154E+02  0.39262653928E+00  0.37640167788E+02  0.00000000000E+00 0. -1.
         11    1    3    3    0    0  0.36030237685E+02  0.12145890681E+02  0.10227737913E+03  0.10911628188E+03  0.00000000000E+00 0.  1.
</event>
<event>
 7    1  0.4274778E-006  0.9493064E+02  0.7561462E-02  0.1291332E+00
         -1   -1    0    0    0  501 -0.00000000000E+00  0.00000000000E+00  0.13211890998E+03  0.13211890998E+03  0.00000000000E+00 0.  1.
          1   -1    0    0  501    0  0.00000000000E+00 -0.00000000000E+00 -0.12398906216E+03  0.12398906216E+03  0.00000000000E+00 0. -1.
         23    2    1    2    0    0  0.35854490311E+02  0.40207199702E+02 -0.37895635770E+02  0.11234394802E+03  0.91010549183E+02 0.  0.
          5    1    1    2  502    0 -0.69741931413E+02  0.64640227049E+01  0.49442362009E+02  0.85835541286E+02  0.41800000000E+01 0. -1.
         -5    1    1    2    0  502  0.33887441102E+02 -0.46671222407E+02 -0.34168784263E+01  0.57928482836E+02  0.41800000000E+01 0. -1.
        -11    1    3    3    0    0  0.18165123357E+02  0.24598812485E+00  0.27938357403E+02  0.33325426196E+02  0.00000000000E+00 0.  1.
         11    1    3    3    0    0  0.17689366954E+02  0.39961211578E+02 -0.65833993173E+02  0.79018521823E+02  0.00000000000E+00 0. -1.
</event>
<event>
 7    1  0.4274778E-006  0.1041218E+03  0.7561462E-02  0.1271860E+00
         -1   -1    0    0    0  501 -0.00000000000E+00  0.00000000000E+00  0.78724050466E+02  0.78724050466E+02  0.00000000000E+00 0.  1.
          1   -1    0    0  501    0  0.00000000000E+00 -0.00000000000E+00 -0.22153113929E+03  0.22153113929E+03  0.00000000000E+00 0. -1.
         23    2    1    2    0    0  0.18903598752E+02 -0.63299142818E+02 -0.10196945440E+03  0.15301282496E+03  0.93010899593E+02 0.  0.
          5    1    1    2  502    0  0.29842163854E+02  0.83141583775E+02 -0.21434230009E+02  0.90994375168E+02  0.41800000000E+01 0. -1.
         -5    1    1    2    0  502 -0.48745762607E+02 -0.19842440956E+02 -0.19403404420E+02  0.56247989638E+02  0.41800000000E+01 0. -1.
        -11    1    3    3    0    0  0.79068820121E+01 -0.44809285707E+02  0.32492316746E+01  0.45617413070E+02  0.00000000000E+00 0.  1.
         11    1    3    3    0    0  0.10996716740E+02 -0.18489857112E+02 -0.10521868607E+03  0.10739541189E+03  0.00000000000E+00 0. -1.
</event>
<event>
 7    1  0.4274778E-006  0.7990248E+02  0.7561462E-02  0.1329328E+00
          1   -1    0    0  501    0  0.00000000000E+00  0.00000000000E+00  0.22850472132E+03  0.22850472132E+03  0.00000000000E+00 0. -1.
         -1   -1    0    0    0  501 -0.00000000000E+00 -0.00000000000E+00 -0.54492690212E+02  0.54492690212E+02  0.00000000000E+00 0.  1.
         23    2    1    2    0    0 -0.32427585240E+01  0.21419584138E+02  0.96705447391E+02  0.13435770162E+03  0.90723394786E+02 0.  0.
          5    1    1    2  502    0  0.12820177483E+02  0.29949584506E+02  0.89054259279E+02  0.94918217738E+02  0.41800000000E+01 0. -1.
         -5    1    1    2    0  502 -0.95774189589E+01 -0.51369168644E+02 -0.11747675558E+02  0.53721492181E+02  0.41800000000E+01 0. -1.
        -11    1    3    3    0    0 -0.46981278781E+01 -0.26340514678E+02  0.78987621988E+02  0.83396280171E+02  0.00000000000E+00 0. -1.
         11    1    3    3    0    0  0.14553693541E+01  0.47760098816E+02  0.17717825403E+02  0.50961421447E+02  0.00000000000E+00 0.  1.
</event>
<event>
 7    1  0.4274778E-006  0.1122258E+03  0.7561462E-02  0.1256503E+00
         -2   -1    0    0    0  501 -0.00000000000E+00  0.00000000000E+00  0.38819849462E+02  0.38819849462E+02  0.00000000000E+00 0.  1.
          2   -1    0    0  501    0  0.00000000000E+00 -0.00000000000E+00 -0.42972956238E+03  0.42972956238E+03  0.00000000000E+00 0. -1.
         23    2    1    2    0    0 -0.18068142914E+02  0.62888743219E+02 -0.20786129934E+03  0.23738044349E+03  0.94136620802E+02 0.  0.
          5    1    1    2  502    0 -0.13122009328E+01 -0.96402485706E+02 -0.97532288330E+02  0.13720488617E+03  0.41800000000E+01 0. -1.
         -5    1    1    2    0  502  0.19380343847E+02  0.33513742486E+02 -0.85516125245E+02  0.93964082180E+02  0.41800000000E+01 0. -1.
        -11    1    3    3    0    0 -0.33114257027E+02  0.10859299535E+02 -0.16407041661E+03  0.16773067702E+03  0.00000000000E+00 0. -1.
         11    1    3    3    0    0  0.15046114113E+02  0.52029443685E+02 -0.43790882733E+02  0.69649766479E+02  0.00000000000E+00 0.  1.
</event>
<event>
 7    1  0.4274778E-006  0.1135420E+03  0.7561462E-02  0.1254148E+00
          2   -1    0    0  501    0  0.00000000000E+00  0.00000000000E+00  0.47441085801E+03  0.47441085801E+03  0.00000000000E+00 0. -1.
         -2   -1    0    0    0  501 -0.00000000000E+00 -0.00000000000E+00 -0.36876193492E+02  0.36876193492E+02  0.00000000000E+00 0.  1.
         23    2    1    2    0    0  0.36679580680E+02 -0.52381277322E+02  0.27428393568E+03  0.29590949143E+03  0.90783037478E+02 0.  0.
          5    1    1    2  502    0 -0.49649349442E+02  0.86693127932E+02  0.95761063421E+02  0.13845002708E+03  0.41800000000E+01 0. -1.
         -5    1    1    2    0  502  0.12969768762E+02 -0.34311850611E+02  0.67489665413E+02  0.76927532988E+02  0.41800000000E+01 0. -1.
        -11    1    3    3    0    0  0.12543286041E+02  0.14440183473E+02  0.87474341697E+01  0.21032606305E+02  0.00000000000E+00 0.  1.
         11    1    3    3    0    0  0.24136294639E+02 -0.66821460795E+02  0.26553650151E+03  0.27487688513E+03  0.00000000000E+00 0. -1.
</event>
<event>
 7    1  0.4274778E-006  0.1355746E+03  0.7561462E-02  0.1219411E+00
         -2   -1    0    0    0  501 -0.00000000000E+00  0.00000000000E+00  0.13181146633E+03  0.13181146633E+03  0.00000000000E+00 0.  1.
          2   -1    0    0  501    0  0.00000000000E+00 -0.00000000000E+00 -0.17203876094E+03  0.17203876094E+03  0.00000000000E+00 0. -1.
         23    2    1    2    0    0 -0.59171811431E+02  0.85952733857E+02 -0.23454065330E+02  0.14008785092E+03  0.90472852668E+02 0.  0.
          5    1    1    2  502    0  0.46762661338E+02  0.22584984946E+02  0.48344196898E+01  0.52322768028E+02  0.41800000000E+01 0. -1.
         -5    1    1    2    0  502  0.12409150093E+02 -0.10853771880E+03 -0.21607648971E+02  0.11143960832E+03  0.41800000000E+01 0. -1.
        -11    1    3    3    0    0 -0.23487794026E+01  0.29614906676E+02  0.31281595170E+02  0.43140441102E+02  0.00000000000E+00 0.  1.
         11    1    3    3    0    0 -0.56823032028E+02  0.56337827181E+02 -0.54735660500E+02  0.96947409820E+02  0.00000000000E+00 0. -1.
</event>
<event>
 7    1  0.4274778E-006  0.1672109E+03  0.7561462E-02  0.1180788E+00
          2   -1    0    0  501    0  0.00000000000E+00  0.00000000000E+00  0.67875003409E+03  0.67875003409E+03  0.00000000000E+00 0. -1.
         -2   -1    0    0    0  501 -0.00000000000E+00 -0.00000000000E+00 -0.58498296257E+02  0.58498296257E+02  0.00000000000E+00 0.  1.
         23    2    1    2    0    0  0.38703332775E+01  0.15530121542E+03  0.40754783881E+03  0.44565796802E+03  0.91555101140E+02 0.  0.
          5    1    1    2  502    0  0.98130133331E+01 -0.12907083069E+03  0.22473388537E+03  0.25938073598E+03  0.41800000000E+01 0. -1.
         -5    1    1    2    0  502 -0.13683346611E+02 -0.26230384737E+02 -0.12029986350E+02  0.32209626348E+02  0.41800000000E+01 0. -1.
        -11    1    3    3    0    0 -0.30601550494E+02  0.12638878422E+03  0.24982566456E+03  0.28164417683E+03  0.00000000000E+00 0.  1.
         11    1    3    3    0    0  0.34471883772E+02  0.28912431204E+02  0.15772217425E+03  0.16401379119E+03  0.00000000000E+00 0. -1.
</event>
<event>
 7    1  0.4274778E-006  0.1377275E+03  0.7561462E-02  0.1216420E+00
         -1   -1    0    0    0  501 -0.00000000000E+00  0.00000000000E+00  0.47255694659E+02  0.47255694659E+02  0.00000000000E+00 0.  1.
          1   -1    0    0  501    0  0.00000000000E+00 -0.00000000000E+00 -0.46972893695E+03  0.46972893695E+03  0.00000000000E+00 0. -1.
         23    2    1    2    0    0 -0.97989880951E+02  0.17938492108E+01 -0.15529701859E+03  0.20611724478E+03  0.93605127781E+02 0.  0.
          5    1    1    2  502    0  0.12161824785E+03 -0.50597931316E+00 -0.25779064412E+03  0.28506971572E+03  0.41800000000E+01 0.  1.
         -5    1    1    2    0  502 -0.23628366895E+02 -0.12878698976E+01 -0.93855795816E+01  0.25797671117E+02  0.41800000000E+01 0.  1.
        -11    1    3    3    0    0 -0.63142111785E+02  0.42527363118E+02 -0.60610390187E+02  0.97309415234E+02  0.00000000000E+00 0.  1.
         11    1    3    3    0    0 -0.34847769166E+02 -0.40733513908E+02 -0.94686628406E+02  0.10880782954E+03  0.00000000000E+00 0. -1.
</event>
<event>
 7    1  0.4274778E-006  0.1223465E+03  0.7561462E-02  0.1239276E+00
          2   -1    0    0  501    0  0.00000000000E+00  0.00000000000E+00  0.46416281318E+03  0.46416281318E+03  0.00000000000E+00 0. -1.
         -2   -1    0    0    0  501 -0.00000000000E+00 -0.00000000000E+00 -0.46433187877E+02  0.46433187877E+02  0.00000000000E+00 0.  1.
         23    2    1    2    0    0 -0.95640669660E+01  0.76649731320E+02  0.32187118168E+03  0.34431010915E+03  0.94772047440E+02 0.  0.
          5    1    1    2  502    0 -0.19496823696E+01 -0.10143077784E+03  0.94344424696E+02  0.13860139547E+03  0.41800000000E+01 0. -1.
         -5    1    1    2    0  502  0.11513749336E+02  0.24781046517E+02  0.15140189310E+01  0.27684496447E+02  0.41800000000E+01 0.  1.
        -11    1    3    3    0    0  0.28334641655E+02 -0.17980180750E+01  0.38422118460E+02  0.47773883803E+02  0.00000000000E+00 0. -1.
         11    1    3    3    0    0 -0.37898708621E+02  0.78447749395E+02  0.28344906322E+03  0.29653622534E+03  0.00000000000E+00 0.  1.
</event>
<event>
 7    1  0.4274778E-006  0.9345145E+02  0.7561462E-02  0.1294702E+00
          1   -1    0    0  501    0  0.00000000000E+00  0.00000000000E+00  0.47693662882E+03  0.47693662882E+03  0.00000000000E+00 0. -1.
         -1   -1    0    0    0  501 -0.00000000000E+00 -0.00000000000E+00 -0.24490784708E+02  0.24490784708E+02  0.00000000000E+00 0.  1.
         23    2    1    2    0    0 -0.14312448205E+02 -0.15861095448E+02  0.23277361817E+03  0.24773339638E+03  0.82047899702E+02 0.  0.
          5    1    1    2  502    0  0.42864998439E+02  0.46627747474E+02  0.19444711612E+03  0.20454512533E+03  0.41800000000E+01 0.  1.
         -5    1    1    2    0  502 -0.28552550233E+02 -0.30766652026E+02  0.25225109822E+02  0.49148891821E+02  0.41800000000E+01 0.  1.
        -11    1    3    3    0    0 -0.17294853125E+02  0.30353935302E+02  0.66336780097E+02  0.74973606867E+02  0.00000000000E+00 0. -1.
         11    1    3    3    0    0  0.29824049200E+01 -0.46215030750E+02  0.16643683807E+03  0.17275978951E+03  0.00000000000E+00 0.  1.
</event>
<event>
 7    1  0.4274778E-006  0.7607860E+02  0.7561462E-02  0.1340563E+00
          2   -1    0    0  501    0  0.00000000000E+00  0.00000000000E+00  0.51870940765E+02  0.51870940765E+02  0.00000000000E+00 0. -1.
         -2   -1    0    0    0  501 -0.00000000000E+00 -0.00000000000E+00 -0.27594686760E+03  0.27594686760E+03  0.00000000000E+00 0.  1.
         23    2    1    2    0    0  0.34524261706E+02  0.15987308262E+02 -0.45387020532E+02  0.10640157843E+03  0.88395676295E+02 0.  0.
          5    1    1    2  502    0  0.11468625710E+02  0.25807590667E+01  0.16099882656E+02  0.20368316439E+02  0.41800000000E+01 0. -1.
         -5    1    1    2    0  502 -0.45992887417E+02 -0.18568067328E+02 -0.19478878895E+03  0.20104791349E+03  0.41800000000E+01 0. -1.
        -11    1    3    3    0    0  0.60087730646E+02  0.64482806634E+00 -0.47376507207E+02  0.76521138338E+02  0.00000000000E+00 0.  1.
         11    1    3    3    0    0 -0.25563468940E+02  0.15342480195E+02  0.19894866751E+01  0.29880440091E+02  0.00000000000E+00 0. -1.
</event>
<event>
 7    1  0.4274778E-006  0.2423182E+03  0.7561462E-02  0.1118258E+00
          1   -1    0    0  501    0  0.00000000000E+00  0.00000000000E+00  0.47574398516E+02  0.47574398516E+02  0.00000000000E+00 0. -1.
         -1   -1    0    0    0  501 -0.00000000000E+00 -0.00000000000E+00 -0.18476443826E+04  0.18476443826E+04  0.00000000000E+00 0.  1.
         23    2    1    2    0    0  0.85271469685E+02 -0.20166414046E+03 -0.34540678283E+03  0.41886130644E+03  0.90549982435E+02 0.  0.
          5    1    1    2  502    0 -0.10361429610E+03  0.93466381764E+02 -0.92002844799E+03  0.93055988759E+03  0.41800000000E+01 0.  1.
         -5    1    1    2    0  502  0.18342826414E+02  0.10819775870E+03 -0.53463475323E+03  0.54579758705E+03  0.41800000000E+01 0.  1.
        -11    1    3    3    0    0  0.90872422469E+02 -0.10699806926E+03 -0.23042048937E+03  0.26981472516E+03  0.00000000000E+00 0.  1.
         11    1    3    3    0    0 -0.56009527842E+01 -0.94666071199E+02 -0.11498629346E+03  0.14904658128E+03  0.00000000000E+00 0. -1.
</event>
<event>
 7    1  0.4910465E-006  0.2470887E+03  0.7561462E-02  0.1115159E+00
         -1   -1    0    0    0  501 -0.00000000000E+00  0.00000000000E+00  0.62237010717E+02  0.62237010717E+02  0.00000000000E+00 0.  1.
          1   -1    0    0  501    0  0.00000000000E+00 -0.00000000000E+00 -0.11531690411E+04  0.11531690411E+04  0.00000000000E+00 0. -1.
         23    2    1    2    0    0 -0.18069821352E+03 -0.15641077030E+03 -0.66864133114E+03  0.71431432266E+03  0.77765984920E+02 0.  0.
          5    1    1    2  502    0  0.60782721068E+02  0.25319363190E+02 -0.34352087347E+02  0.74385130489E+02  0.41800000000E+01 0.  1.
         -5    1    1    2    0  502  0.11991549246E+03  0.13109140711E+03 -0.38793861192E+03  0.42670659870E+03  0.41800000000E+01 0.  1.
        -11    1    3    3    0    0 -0.88049804474E+02 -0.12451326083E+03 -0.43504603947E+03  0.46100040851E+03  0.00000000000E+00 0.  1.
         11    1    3    3    0    0 -0.92648409050E+02 -0.31897509472E+02 -0.23359529168E+03  0.25331391415E+03  0.00000000000E+00 0. -1.
</event>
<event>
 7    1  0.4274778E-006  0.1587054E+03  0.7561462E-02  0.1190166E+00
          1   -1    0    0  501    0  0.00000000000E+00  0.00000000000E+00  0.11471790654E+03  0.11471790654E+03  0.00000000000E+00 0. -1.
         -1   -1    0    0    0  501 -0.00000000000E+00 -0.00000000000E+00 -0.23851247536E+03  0.23851247536E+03  0.00000000000E+00 0.  1.
         23    2    1    2    0    0  0.98325315546E+02  0.66046196621E+02 -0.16794989029E+02  0.15043706819E+03  0.91210043653E+02 0.  0.
          5    1    1    2  502    0 -0.12679582488E+03 -0.42359743975E+02 -0.73154076509E+02  0.15244841890E+03  0.41800000000E+01 0.  1.
         -5    1    1    2    0  502  0.28470509332E+02 -0.23686452646E+02 -0.33845503280E+02  0.50344894804E+02  0.41800000000E+01 0.  1.
        -11    1    3    3    0    0  0.91416786762E+02  0.85854901984E+02 -0.25056221751E+02  0.12789021599E+03  0.00000000000E+00 0.  1.
         11    1    3    3    0    0  0.69085287840E+01 -0.19808705363E+02  0.82612327216E+01  0.22546852202E+02  0.00000000000E+00 0. -1.
</event>
<event>
 7    1  0.4274778E-006  0.1487103E+03  0.7561462E-02  0.1202067E+00
         -2   -1    0    0    0  501 -0.00000000000E+00  0.00000000000E+00  0.42745019166E+03  0.42745019166E+03  0.00000000000E+00 0.  1.
          2   -1    0    0  501    0  0.00000000000E+00 -0.00000000000E+00 -0.59727608029E+02  0.59727608029E+02  0.00000000000E+00 0. -1.
         23    2    1    2    0    0  0.10350248214E+03 -0.32694421855E+02  0.96362812623E+02  0.16926749618E+03  0.87086190503E+02 0.  0.
          5    1    1    2  502    0 -0.74172619967E+02  0.77227646888E+02  0.14174555512E+03  0.17769344893E+03  0.41800000000E+01 0.  1.
         -5    1    1    2    0  502 -0.29329862176E+02 -0.44533225033E+02  0.12961421589E+03  0.14021685458E+03  0.41800000000E+01 0.  1.
        -11    1    3    3    0    0  0.83307600351E+02  0.15302258748E+02  0.74458400809E+02  0.11277574584E+03  0.00000000000E+00 0.  1.
         11    1    3    3    0    0  0.20194881792E+02 -0.47996680603E+02  0.21904411814E+02  0.56491750339E+02  0.00000000000E+00 0. -1.
</event>
<event>
 7    1  0.4274778E-006  0.1741638E+03  0.7561462E-02  0.1173574E+00
          2   -1    0    0  501    0  0.00000000000E+00  0.00000000000E+00  0.15991509393E+03  0.15991509393E+03  0.00000000000E+00 0. -1.
         -2   -1    0    0    0  501 -0.00000000000E+00 -0.00000000000E+00 -0.21401187811E+03  0.21401187811E+03  0.00000000000E+00 0.  1.
         23    2    1    2    0    0 -0.14470750961E+03  0.37009887581E+02 -0.31712791660E+02  0.17781807935E+03  0.91123943478E+02 0.  0.
          5    1    1    2  502    0  0.76130400460E+02  0.32080981737E+02 -0.47633806579E+02  0.95454068497E+02  0.41800000000E+01 0.  1.
         -5    1    1    2    0  502  0.68577109146E+02 -0.69090869318E+02  0.25249814060E+02  0.10065482419E+03  0.41800000000E+01 0.  1.
        -11    1    3    3    0    0 -0.72013813982E+02  0.58046745321E+02 -0.41745400384E+02  0.10147951764E+03  0.00000000000E+00 0.  1.
         11    1    3    3    0    0 -0.72693695624E+02 -0.21036857740E+02  0.10032608725E+02  0.76338561716E+02  0.00000000000E+00 0. -1.
</event>
<event>
 7    1  0.4274778E-006  0.9699307E+02  0.7561462E-02  0.1286749E+00
          2   -1    0    0  501    0  0.00000000000E+00  0.00000000000E+00  0.11820130545E+03  0.11820130545E+03  0.00000000000E+00 0. -1.
         -2   -1    0    0    0  501 -0.00000000000E+00 -0.00000000000E+00 -0.12491694101E+03  0.12491694101E+03  0.00000000000E+00 0.  1.
         23    2    1    2    0    0  0.34660863235E+02 -0.28476678172E+02  0.37364500213E+02  0.11611825878E+03  0.10037453615E+03 0.  0.
          5    1    1    2  502    0 -0.56562057415E+02  0.21939901009E+02  0.15748403418E+02  0.62818072284E+02  0.41800000000E+01 0. -1.
         -5    1    1    2    0  502  0.21901194180E+02  0.65367771635E+01 -0.59828539195E+02  0.64181915400E+02  0.41800000000E+01 0.  1.
        -11    1    3    3    0    0  0.28356689889E+02 -0.66029455899E+02  0.23995455468E+02  0.75761288208E+02  0.00000000000E+00 0.  1.
         11    1    3    3    0    0  0.63041733453E+01  0.37552777727E+02  0.13369044745E+02  0.40356970575E+02  0.00000000000E+00 0. -1.
</event>
<event>
 7    1  0.4274778E-006  0.2288516E+03  0.7561462E-02  0.1127451E+00
         -1   -1    0    0    0  501 -0.00000000000E+00  0.00000000000E+00  0.37375460287E+03  0.37375460287E+03  0.00000000000E+00 0.  1.
          1   -1    0    0  501    0  0.00000000000E+00 -0.00000000000E+00 -0.15322407482E+03  0.15322407482E+03  0.00000000000E+00 0. -1.
         23    2    1    2    0    0 -0.13335224244E+03  0.15341144405E+03  0.36897446710E+02  0.22584034335E+03  0.91238957578E+02 0.  0.
          5    1    1    2  502    0  0.12902093483E+03 -0.61854310227E+02  0.85234574699E+02  0.16659760635E+03  0.41800000000E+01 0.  1.
         -5    1    1    2    0  502  0.43313076091E+01 -0.91557133826E+02  0.98398506646E+02  0.13454072800E+03  0.41800000000E+01 0.  1.
        -11    1    3    3    0    0 -0.41574534535E+02  0.11682889784E+03  0.20643321101E+02  0.12571229056E+03  0.00000000000E+00 0. -1.
         11    1    3    3    0    0 -0.91777707902E+02  0.36582546213E+02  0.16254125608E+02  0.10012805278E+03  0.00000000000E+00 0.  1.
</event>
<event>
 7    1  0.4274778E-006  0.1412881E+03  0.7561462E-02  0.1211606E+00
          2   -1    0    0  501    0  0.00000000000E+00  0.00000000000E+00  0.84583096638E+03  0.84583096638E+03  0.00000000000E+00 0. -1.
         -2   -1    0    0    0  501 -0.00000000000E+00 -0.00000000000E+00 -0.28544248076E+02  0.28544248076E+02  0.00000000000E+00 0.  1.
         23    2    1    2    0    0  0.58311962210E+02  0.91149248413E+02  0.44398034082E+03  0.46606983165E+03  0.91619182025E+02 0.  0.
          5    1    1    2  502    0 -0.16249485315E+02  0.31155536386E+02  0.66576755894E+02  0.75396618266E+02  0.41800000000E+01 0.  1.
         -5    1    1    2    0  502 -0.42062476895E+02 -0.12230478480E+03  0.30672962158E+03  0.33290876454E+03  0.41800000000E+01 0.  1.
        -11    1    3    3    0    0  0.30001778656E+02  0.96579743847E+01  0.31119795632E+02  0.44292492275E+02  0.00000000000E+00 0.  1.
         11    1    3    3    0    0  0.28310183554E+02  0.81491274029E+02  0.41286054519E+03  0.42177733938E+03  0.00000000000E+00 0. -1.
</event>
<event>
 7    1  0.4274778E-006  0.1449044E+03  0.7561462E-02  0.1206878E+00
         -1   -1    0    0    0  501 -0.00000000000E+00  0.00000000000E+00  0.65317731233E+02  0.65317731233E+02  0.00000000000E+00 0.  1.
          1   -1    0    0  501    0  0.00000000000E+00 -0.00000000000E+00 -0.33782584203E+03  0.33782584203E+03  0.00000000000E+00 0. -1.
         23    2    1    2    0    0  0.63562755335E+02  0.76399288767E+02 -0.15700269586E+03  0.20600046996E+03  0.88934087559E+02 0.  0.
          5    1    1    2  502    0  0.23338022838E+02 -0.65911033307E+02 -0.35701466321E+02  0.78619302458E+02  0.41800000000E+01 0. -1.
         -5    1    1    2    0  502 -0.86900778173E+02 -0.10488255461E+02 -0.79803948616E+02  0.11852380083E+03  0.41800000000E+01 0. -1.
        -11    1    3    3    0    0  0.55714322556E+02  0.38720963594E+00 -0.52621766648E+02  0.76637366828E+02  0.00000000000E+00 0.  1.
         11    1    3    3    0    0  0.78484327788E+01  0.76012079131E+02 -0.10438092921E+03  0.12936310314E+03  0.00000000000E+00 0. -1.
</event>
<event>
 7    1  0.4274778E-006  0.1983622E+03  0.7561462E-02  0.1151128E+00
          2   -1    0    0  501    0  0.00000000000E+00  0.00000000000E+00  0.16382536998E+04  0.16382536998E+04  0.00000000000E+00 0. -1.
         -2   -1    0    0    0  501 -0.00000000000E+00 -0.00000000000E+00 -0.32532585343E+02  0.32532585343E+02  0.00000000000E+00 0.  1.
         23    2    1    2    0    0 -0.75236697269E+02 -0.17110514733E+03  0.10648721056E+04  0.10850356335E+04  0.91718006300E+02 0.  0.
          5    1    1    2  502    0  0.10394956813E+02  0.10832304932E+02 -0.22817846090E+01  0.15750330101E+02  0.41800000000E+01 0.  1.
         -5    1    1    2    0  502  0.64841740456E+02  0.16027284240E+03  0.54313079348E+03  0.57000032153E+03  0.41800000000E+01 0.  1.
        -11    1    3    3    0    0 -0.94163278897E+02 -0.11302007936E+03  0.74783887845E+03  0.76217009227E+03  0.00000000000E+00 0. -1.
         11    1    3    3    0    0  0.18926581629E+02 -0.58085067975E+02  0.31703322713E+03  0.32286554124E+03  0.00000000000E+00 0.  1.
</event>
<event>
 7    1  0.4274778E-006  0.9926935E+02  0.7561462E-02  0.1281840E+00
         -1   -1    0    0    0  501 -0.00000000000E+00  0.00000000000E+00  0.60164718585E+02  0.60164718585E+02  0.00000000000E+00 0.  1.
          1   -1    0    0  501    0  0.00000000000E+00 -0.00000000000E+00 -0.23873800653E+03  0.23873800653E+03  0.00000000000E+00 0. -1.
         23    2    1    2    0    0  0.27642769197E+02 -0.33246285520E+02 -0.34690317956E+02  0.10340071590E+03  0.87286033814E+02 0.  0.
          5    1    1    2  502    0 -0.30287291900E+02  0.67914119190E+02 -0.37267328593E+02  0.83282494058E+02  0.41800000000E+01 0.  1.
         -5    1    1    2    0  502  0.26445227027E+01 -0.34667833670E+02 -0.10661564139E+03  0.11221951515E+03  0.41800000000E+01 0.  1.
        -11    1    3    3    0    0  0.32226085021E+02 -0.56659615214E+02 -0.50882902944E+01  0.65381367760E+02  0.00000000000E+00 0.  1.
         11    1    3    3    0    0 -0.45833158241E+01  0.23413329695E+02 -0.29602027662E+02  0.38019348141E+02  0.00000000000E+00 0. -1.
</event>
<event>
 7    1  0.4274778E-006  0.8496237E+02  0.7561462E-02  0.1315531E+00
          3   -1    0    0  501    0  0.00000000000E+00  0.00000000000E+00  0.19215665450E+03  0.19215665450E+03  0.00000000000E+00 0. -1.
         -3   -1    0    0    0  501 -0.00000000000E+00 -0.00000000000E+00 -0.73725507582E+02  0.73725507582E+02  0.00000000000E+00 0.  1.
         23    2    1    2    0    0 -0.47523343868E+02 -0.11599554283E+02  0.59585888549E+02  0.11924151639E+03  0.90967264686E+02 0.  0.
          5    1    1    2  502    0  0.10922474248E+02 -0.33149645557E+02  0.78033100314E+02  0.85585259180E+02  0.41800000000E+01 0.  1.
         -5    1    1    2    0  502  0.36600869620E+02  0.44749199839E+02 -0.19187841949E+02  0.61055386510E+02  0.41800000000E+01 0.  1.
        -11    1    3    3    0    0 -0.76108151757E+01  0.22851798229E+02 -0.14646962932E+02  0.28189762558E+02  0.00000000000E+00 0.  1.
         11    1    3    3    0    0 -0.39912528692E+02 -0.34451352512E+02  0.74232851481E+02  0.91051753830E+02  0.00000000000E+00 0. -1.
</event>
<event>
 7    1  0.4274778E-006  0.1237865E+03  0.7561462E-02  0.1236978E+00
          2   -1    0    0  501    0  0.00000000000E+00  0.00000000000E+00  0.46633443249E+03  0.46633443249E+03  0.00000000000E+00 0. -1.
         -2   -1    0    0    0  501 -0.00000000000E+00 -0.00000000000E+00 -0.43867204166E+02  0.43867204166E+02  0.00000000000E+00 0.  1.
         23    2    1    2    0    0  0.88427068472E+02 -0.22240887561E+02  0.15735587871E+03  0.20320689089E+03  0.90654092147E+02 0.  0.
          5    1    1    2  502    0 -0.10286962547E+03  0.22339849956E+02  0.27106930696E+03  0.29082171569E+03  0.41800000000E+01 0.  1.
         -5    1    1    2    0  502  0.14442556995E+02 -0.98962395058E-01 -0.59579573459E+01  0.16173030076E+02  0.41800000000E+01 0.  1.
        -11    1    3    3    0    0  0.87015437725E+02 -0.49353716179E+02  0.11051976701E+03  0.14907077045E+03  0.00000000000E+00 0.  1.
         11    1    3    3    0    0  0.14116307470E+01  0.27112828618E+02  0.46836111702E+02  0.54136120441E+02  0.00000000000E+00 0. -1.
</event>
<event>
 7    1  0.4274778E-006  0.9001218E+02  0.7561462E-02  0.1302822E+00
          1   -1    0    0  501    0  0.00000000000E+00  0.00000000000E+00  0.27071877758E+03  0.27071877758E+03  0.00000000000E+00 0. -1.
         -1   -1    0    0    0  501 -0.00000000000E+00 -0.00000000000E+00 -0.84220745988E+02  0.84220745988E+02  0.00000000000E+00 0.  1.
         23    2    1    2    0    0  0.53004113840E+02 -0.37125295439E+02  0.18392213886E+03  0.21407709264E+03  0.88396407069E+02 0.  0.
          5    1    1    2  502    0 -0.21408140262E+02 -0.65982786611E+01  0.58661352706E+02  0.62932284656E+02  0.41800000000E+01 0. -1.
         -5    1    1    2    0  502 -0.31595973578E+02  0.43723574101E+02 -0.56085459973E+02  0.77930146278E+02  0.41800000000E+01 0. -1.
        -11    1    3    3    0    0  0.18328384019E+02  0.25583688432E+02  0.26610944558E+02  0.41214040627E+02  0.00000000000E+00 0.  1.
         11    1    3    3    0    0  0.34675729821E+02 -0.62708983871E+02  0.15731119431E+03  0.17286305201E+03  0.00000000000E+00 0. -1.
</event>
<event>
 7    1  0.4274778E-006  0.1108670E+03  0.7561462E-02  0.1258973E+00
         -2   -1    0    0    0  501 -0.00000000000E+00  0.00000000000E+00  0.58393803199E+02  0.58393803199E+02  0.00000000000E+00 0.  1.
          2   -1    0    0  501    0  0.00000000000E+00 -0.00000000000E+00 -0.21870770893E+03  0.21870770893E+03  0.00000000000E+00 0. -1.
         23    2    1    2    0    0  0.27226134086E+02  0.49269237699E+01 -0.89881123434E+02  0.13089902108E+03  0.91051635986E+02 0.  0.
          5    1    1    2  502    0 -0.42555539382E+02 -0.58000598639E+02 -0.32432571365E+02  0.79021436712E+02  0.41800000000E+01 0.  1.
         -5    1    1    2    0  502  0.15329405296E+02  0.53073674869E+02 -0.38000210936E+02  0.67181054338E+02  0.41800000000E+01 0.  1.
        -11    1    3    3    0    0  0.47651215366E+02 -0.28189562232E+02 -0.43848921726E+02  0.70625899507E+02  0.00000000000E+00 0.  1.
         11    1    3    3    0    0 -0.20425081280E+02  0.33116486002E+02 -0.46032201708E+02  0.60273121576E+02  0.00000000000E+00 0. -1.
</event>
<event>
 7    1  0.4274778E-006  0.1303861E+03  0.7561462E-02  0.1226884E+00
          2   -1    0    0  501    0  0.00000000000E+00  0.00000000000E+00  0.58647672298E+02  0.58647672298E+02  0.00000000000E+00 0. -1.
         -2   -1    0    0    0  501 -0.00000000000E+00 -0.00000000000E+00 -0.38151513392E+03  0.38151513392E+03  0.00000000000E+00 0.  1.
         23    2    1    2    0    0 -0.35648879203E+02 -0.95026203657E+02 -0.12628944560E+03  0.18600956728E+03  0.91376764438E+02 0.  0.
          5    1    1    2  502    0 -0.19509822349E+02  0.97282204169E+02 -0.15820989469E+03  0.18679481683E+03  0.41800000000E+01 0. -1.
         -5    1    1    2    0  502  0.55158701552E+02 -0.22560005119E+01 -0.38368121338E+02  0.67358422118E+02  0.41800000000E+01 0. -1.
        -11    1    3    3    0    0 -0.21998941227E+02 -0.19640667031E+02 -0.10117706011E+03  0.10538741248E+03  0.00000000000E+00 0.  1.
         11    1    3    3    0    0 -0.13649937976E+02 -0.75385536626E+02 -0.25112385488E+02  0.80622154797E+02  0.00000000000E+00 0. -1.
</event>
<event>
 7    1  0.4274778E-006  0.9507222E+02  0.7561462E-02  0.1291014E+00
         -2   -1    0    0    0  501 -0.00000000000E+00  0.00000000000E+00  0.24761036238E+02  0.24761036238E+02  0.00000000000E+00 0.  1.
          2   -1    0    0  501    0  0.00000000000E+00 -0.00000000000E+00 -0.60353792035E+03  0.60353792035E+03  0.00000000000E+00 0. -1.
         23    2    1    2    0    0 -0.13971610882E+02  0.51805986247E+02 -0.29627755621E+03  0.31471885556E+03  0.91588763565E+02 0.  0.
          5    1    1    2  502    0  0.12694284602E+02 -0.67157880899E+02 -0.28850952354E+03  0.29652410257E+03  0.41800000000E+01 0.  1.
         -5    1    1    2    0  502  0.12773262794E+01  0.15351894653E+02  0.60101956383E+01  0.17055998460E+02  0.41800000000E+01 0.  1.
        -11    1    3    3    0    0  0.20929671535E+01 -0.26089292425E+02 -0.61589478434E+02  0.66920068324E+02  0.00000000000E+00 0. -1.
         11    1    3    3    0    0 -0.16064578035E+02  0.77895278671E+02 -0.23468807778E+03  0.24779878724E+03  0.00000000000E+00 0.  1.
</event>
<event>
 7    1  0.4274778E-006  0.9394414E+02  0.7561462E-02  0.1293572E+00
         -1   -1    0    0    0  501 -0.00000000000E+00  0.00000000000E+00  0.16471337651E+03  0.16471337651E+03  0.00000000000E+00 0.  1.
          1   -1    0    0  501    0  0.00000000000E+00 -0.00000000000E+00 -0.76476573601E+02  0.76476573601E+02  0.00000000000E+00 0. -1.
         23    2    1    2    0    0  0.92007506577E+01  0.69177741301E+01  0.10908091378E+01  0.88301286839E+02  0.87540950311E+02 0.  0.
          5    1    1    2  502    0  0.14399530001E+02  0.42346244997E+02  0.87214159553E+02  0.98103684722E+02  0.41800000000E+01 0. -1.
         -5    1    1    2    0  502 -0.23600280659E+02 -0.49264019128E+02 -0.68165785472E-01  0.54784978546E+02  0.41800000000E+01 0. -1.
        -11    1    3    3    0    0 -0.17333121299E+02 -0.34720699684E+02  0.27032532917E+01  0.38900792522E+02  0.00000000000E+00 0.  1.
         11    1    3    3    0    0  0.26533871957E+02  0.41638473814E+02 -0.16124441539E+01  0.49400494317E+02  0.00000000000E+00 0. -1.
</event>
<event>
 7    1  0.4274778E-006  0.1491441E+03  0.7561462E-02  0.1201529E+00
          2   -1    0    0  501    0  0.00000000000E+00  0.00000000000E+00  0.33258117365E+03  0.33258117365E+03  0.00000000000E+00 0.  1.
         -2   -1    0    0    0  501 -0.00000000000E+00 -0.00000000000E+00 -0.95095191412E+02  0.95095191412E+02  0.00000000000E+00 0. -1.
         23    2    1    2    0    0 -0.12406582906E+03  0.46281330180E+02  0.15834987935E+03  0.22906750512E+03  0.99312366540E+02 0.  0.
          5    1    1    2  502    0  0.30063620448E+02 -0.17012727562E+02 -0.33948686382E+02  0.48613165713E+02  0.41800000000E+01 0.  1.
         -5    1    1    2    0  502  0.94002208614E+02 -0.29268602618E+02  0.11308478927E+03  0.14999569423E+03  0.41800000000E+01 0.  1.
        -11    1    3    3    0    0 -0.12288522391E+03  0.43080954167E+01  0.12605992476E+03  0.17609782103E+03  0.00000000000E+00 0. -1.
         11    1    3    3    0    0 -0.11806051512E+01  0.41973234763E+02  0.32289954596E+02  0.52969684092E+02  0.00000000000E+00 0.  1.
</event>
<event>
 7    1  0.4274778E-006  0.1042347E+03  0.7561462E-02  0.1271635E+00
         -2   -1    0    0    0  501 -0.00000000000E+00  0.00000000000E+00  0.83496466184E+03  0.83496466184E+03  0.00000000000E+00 0.  1.
          2   -1    0    0  501    0  0.00000000000E+00 -0.00000000000E+00 -0.15822616667E+02  0.15822616667E+02  0.00000000000E+00 0. -1.
         23    2    1    2    0    0 -0.18625784756E+02  0.30230879805E+02  0.39836279748E+03  0.41037395128E+03  0.91940391167E+02 0.  0.
          5    1    1    2  502    0 -0.35253237455E+02  0.16756588548E+02  0.54305943708E+02  0.67008819814E+02  0.41800000000E+01 0. -1.
         -5    1    1    2    0  502  0.53879022211E+02 -0.46987468352E+02  0.36647330399E+03  0.37340450741E+03  0.41800000000E+01 0. -1.
        -11    1    3    3    0    0 -0.50338168690E+02 -0.45381660440E+01  0.23466585869E+03  0.24004706083E+03  0.00000000000E+00 0. -1.
         11    1    3    3    0    0  0.31712383934E+02  0.34769045849E+02  0.16369693878E+03  0.17032689045E+03  0.00000000000E+00 0.  1.
</event>
<event>
 7    1  0.4274778E-006  0.1332638E+03  0.7561462E-02  0.1222692E+00
          1   -1    0    0  501    0  0.00000000000E+00  0.00000000000E+00  0.24821410800E+03  0.24821410800E+03  0.00000000000E+00 0. -1.
         -1   -1    0    0    0  501 -0.00000000000E+00 -0.00000000000E+00 -0.10485189967E+03  0.10485189967E+03  0.00000000000E+00 0.  1.
         23    2    1    2    0    0 -0.23862839025E+02  0.44881649613E+02  0.13549315578E+03  0.17067010358E+03  0.90477021570E+02 0.  0.
          5    1    1    2  502    0  0.82387059730E+02  0.22872680530E+02  0.28866179807E+02  0.90341108374E+02  0.41800000000E+01 0. -1.
         -5    1    1    2    0  502 -0.58524220705E+02 -0.67754330144E+02 -0.20997127263E+02  0.92054795723E+02  0.41800000000E+01 0.  1.
        -11    1    3    3    0    0 -0.33932841142E+01  0.63519937407E+02  0.12644754993E+03  0.14154603388E+03  0.00000000000E+00 0. -1.
         11    1    3    3    0    0 -0.20469554911E+02 -0.18638287794E+02  0.90456058545E+01  0.29124069692E+02  0.00000000000E+00 0.  1.
</event>
<event>
 7    1  0.4274778E-006  0.2385132E+03  0.7561462E-02  0.1120787E+00
          1   -1    0    0  501    0  0.00000000000E+00  0.00000000000E+00  0.49585478255E+03  0.49585478255E+03  0.00000000000E+00 0. -1.
         -1   -1    0    0    0  501 -0.00000000000E+00 -0.00000000000E+00 -0.14315925638E+03  0.14315925638E+03  0.00000000000E+00 0.  1.
         23    2    1    2    0    0 -0.15019854820E+03 -0.16396125341E+03  0.28947409838E+03  0.37617470211E+03  0.90935451671E+02 0.  0.
          5    1    1    2  502    0  0.10134901825E+03  0.21166872860E+02  0.34041287010E+02  0.10906851804E+03  0.41800000000E+01 0.  1.
         -5    1    1    2    0  502  0.48849529957E+02  0.14279438055E+03  0.29180140779E+02  0.15377081879E+03  0.41800000000E+01 0.  1.
        -11    1    3    3    0    0 -0.14034588245E+03 -0.15518276692E+03  0.21302069700E+03  0.29859081570E+03  0.00000000000E+00 0.  1.
         11    1    3    3    0    0 -0.98526657541E+01 -0.87784864877E+01  0.76453401380E+02  0.77583886408E+02  0.00000000000E+00 0. -1.
</event>
<event>
 7    1  0.4274778E-006  0.1900531E+03  0.7561462E-02  0.1158413E+00
          1   -1    0    0  501    0  0.00000000000E+00  0.00000000000E+00  0.50913559593E+03  0.50913559593E+03  0.00000000000E+00 0. -1.
         -1   -1    0    0    0  501 -0.00000000000E+00 -0.00000000000E+00 -0.79442731236E+02  0.79442731236E+02  0.00000000000E+00 0.  1.
         23    2    1    2    0    0 -0.16767443470E+03  0.15345228656E+02  0.18690623779E+03  0.26773081055E+03  0.91627796538E+02 0.  0.
          5    1    1    2  502    0  0.11904684750E+03 -0.62489311871E+02  0.11861268363E+03  0.17934187218E+03  0.41800000000E+01 0. -1.
         -5    1    1    2    0  502  0.48627587208E+02  0.47144083215E+02  0.12417394327E+03  0.14150564444E+03  0.41800000000E+01 0. -1.
        -11    1    3    3    0    0 -0.15169743132E+03 -0.51022460674E+01  0.11250038615E+03  0.18892982948E+03  0.00000000000E+00 0.  1.
         11    1    3    3    0    0 -0.15977003386E+02  0.20447474723E+02  0.74405851638E+02  0.78800981071E+02  0.00000000000E+00 0. -1.
</event>
<event>
 7    1  0.4274778E-006  0.3523519E+03  0.7561462E-02  0.1061654E+00
          1   -1    0    0  501    0  0.00000000000E+00  0.00000000000E+00  0.18034624737E+04  0.18034624737E+04  0.00000000000E+00 0. -1.
         -1   -1    0    0    0  501 -0.00000000000E+00 -0.00000000000E+00 -0.72864076326E+02  0.72864076326E+02  0.00000000000E+00 0.  1.
         23    2    1    2    0    0 -0.11309891446E+03 -0.32449710890E+03  0.77562838723E+03  0.85372933266E+03  0.95732127485E+02 0.  0.
          5    1    1    2  502    0  0.62787206101E+02  0.29491971948E+03  0.72314832690E+03  0.78350548772E+03  0.41800000000E+01 0. -1.
         -5    1    1    2    0  502  0.50311708361E+02  0.29577389413E+02  0.23182168320E+03  0.23909172960E+03  0.41800000000E+01 0. -1.
        -11    1    3    3    0    0 -0.23806132429E+02 -0.41031777921E+02  0.20418028147E+03  0.20961852514E+03  0.00000000000E+00 0. -1.
         11    1    3    3    0    0 -0.89292782033E+02 -0.28346533097E+03  0.57144810576E+03  0.64411080752E+03  0.00000000000E+00 0.  1.
</event>
<event>
 7    1  0.4274778E-006  0.9603872E+02  0.7561462E-02  0.1288854E+00
         -2   -1    0    0    0  501 -0.00000000000E+00  0.00000000000E+00  0.14775138922E+03  0.14775138922E+03  0.00000000000E+00 0.  1.
          2   -1    0    0  501    0  0.00000000000E+00 -0.00000000000E+00 -0.10940472057E+03  0.10940472057E+03  0.00000000000E+00 0. -1.
         23    2    1    2    0    0  0.59970257600E+02 -0.16621230298E+02 -0.16821289446E+02  0.11137539180E+03  0.90823042377E+02 0.  0.
          5    1    1    2  502    0 -0.16607963772E+02  0.31580834964E+02 -0.31405161169E+02  0.47717189206E+02  0.41800000000E+01 0. -1.
         -5    1    1    2    0  502 -0.43362293828E+02 -0.14959604666E+02  0.86573119263E+02  0.98063528779E+02  0.41800000000E+01 0.  1.
        -11    1    3    3    0    0  0.19227517986E+02  0.37622446347E+02 -0.70304721441E+01  0.42831920989E+02  0.00000000000E+00 0.  1.
         11    1    3    3    0    0  0.40742739614E+02 -0.54243676645E+02 -0.97908173022E+01  0.68543470810E+02  0.00000000000E+00 0. -1.
</event>
<event>
 7    1  0.4274778E-006  0.3418915E+03  0.7561462E-02  0.1065993E+00
          2   -1    0    0  501    0  0.00000000000E+00  0.00000000000E+00  0.12949360880E+04  0.12949360880E+04  0.00000000000E+00 0. -1.
         -2   -1    0    0    0  501 -0.00000000000E+00 -0.00000000000E+00 -0.96842258602E+02  0.96842258602E+02  0.00000000000E+00 0.  1.
         23    2    1    2    0    0 -0.31837053975E+03 -0.98154976861E+02  0.68969454457E+03  0.77120572067E+03  0.89919401282E+02 0.  0.
          5    1    1    2  502    0  0.13847964073E+03 -0.46248273769E+01  0.27832162113E+03  0.31093149906E+03  0.41800000000E+01 0.  1.
         -5    1    1    2    0  502  0.17989089902E+03  0.10277980424E+03  0.23007766368E+03  0.30964112685E+03  0.41800000000E+01 0.  1.
        -11    1    3    3    0    0 -0.56606545692E+02 -0.41300548145E+02  0.87329489210E+02  0.11196640558E+03  0.00000000000E+00 0.  1.
         11    1    3    3    0    0 -0.26176399405E+03 -0.56854428717E+02  0.60236505536E+03  0.65923931510E+03  0.00000000000E+00 0. -1.
</event>
<event>
 7    1  0.4274778E-006  0.1205350E+03  0.7561462E-02  0.1242217E+00
         -2   -1    0    0    0  501 -0.00000000000E+00  0.00000000000E+00  0.99220789693E+02  0.99220789693E+02  0.00000000000E+00 0.  1.
          2   -1    0    0  501    0  0.00000000000E+00 -0.00000000000E+00 -0.29919355451E+03  0.29919355451E+03  0.00000000000E+00 0. -1.
         23    2    1    2    0    0 -0.78862100689E+02  0.42430417058E+02 -0.20889778493E+03  0.24431374867E+03  0.89617810860E+02 0.  0.
          5    1    1    2  502    0  0.80968997749E+02  0.29744741621E+00 -0.38790865487E+02  0.89879200690E+02  0.41800000000E+01 0.  1.
         -5    1    1    2    0  502 -0.21068970603E+01 -0.42727864474E+02  0.47715885596E+02  0.64221394846E+02  0.41800000000E+01 0.  1.
        -11    1    3    3    0    0 -0.68500462539E+02  0.63578739248E+02 -0.19674092370E+03  0.21781083654E+03  0.00000000000E+00 0. -1.
         11    1    3    3    0    0 -0.10361638150E+02 -0.21148322190E+02 -0.12156861221E+02  0.26502912129E+02  0.00000000000E+00 0.  1.
</event>
<event>
 7    1  0.4274778E-006  0.1152522E+03  0.7561462E-02  0.1251142E+00
          1   -1    0    0  501    0  0.00000000000E+00  0.00000000000E+00  0.20783971045E+03  0.20783971045E+03  0.00000000000E+00 0. -1.
         -1   -1    0    0    0  501 -0.00000000000E+00 -0.00000000000E+00 -0.67235693794E+02  0.67235693794E+02  0.00000000000E+00 0.  1.
         23    2    1    2    0    0  0.13786219873E+02  0.41068963801E+02  0.82053006461E+02  0.13032715631E+03  0.91519135466E+02 0.  0.
          5    1    1    2  502    0 -0.46484367638E+02 -0.71353024157E+02  0.51005448935E+02  0.99353302472E+02  0.41800000000E+01 0.  1.
         -5    1    1    2    0  502  0.32698147765E+02  0.30284060356E+02  0.75455612624E+01  0.45394945464E+02  0.41800000000E+01 0.  1.
        -11    1    3    3    0    0 -0.38881665922E+02  0.14580085693E+02  0.26091476716E+02  0.49042104369E+02  0.00000000000E+00 0.  1.
         11    1    3    3    0    0  0.52667885796E+02  0.26488878108E+02  0.55961529745E+02  0.81285051941E+02  0.00000000000E+00 0. -1.
</event>
<event>
 7    1  0.4274778E-006  0.1585637E+03  0.7561462E-02  0.1190328E+00
          1   -1    0    0  501    0  0.00000000000E+00  0.00000000000E+00  0.29258637545E+03  0.29258637545E+03  0.00000000000E+00 0. -1.
         -1   -1    0    0    0  501 -0.00000000000E+00 -0.00000000000E+00 -0.11093526269E+03  0.11093526269E+03  0.00000000000E+00 0.  1.
         23    2    1    2    0    0 -0.13831199801E+03  0.21178937168E+02  0.12089506789E+03  0.20619973170E+03  0.91235715264E+02 0.  0.
          5    1    1    2  502    0  0.83508135902E+02 -0.65807298872E+02  0.38258065804E+01  0.10647214914E+03  0.41800000000E+01 0. -1.
         -5    1    1    2    0  502  0.54803862106E+02  0.44628361704E+02  0.56930238291E+02  0.90849757303E+02  0.41800000000E+01 0. -1.
        -11    1    3    3    0    0 -0.80529935059E+02  0.12287665362E+02  0.11643942264E+02  0.82289966290E+02  0.00000000000E+00 0.  1.
         11    1    3    3    0    0 -0.57782062949E+02  0.88912718066E+01  0.10925112562E+03  0.12390976541E+03  0.00000000000E+00 0. -1.
</event>
<event>
 7    1  0.4274778E-006  0.1048166E+03  0.7561462E-02  0.1270481E+00
          2   -1    0    0  501    0  0.00000000000E+00  0.00000000000E+00  0.73677179635E+02  0.73677179635E+02  0.00000000000E+00 0.  1.
         -2   -1    0    0    0  501 -0.00000000000E+00 -0.00000000000E+00 -0.25382212408E+03  0.25382212408E+03  0.00000000000E+00 0. -1.
         23    2    1    2    0    0 -0.12384174774E+02 -0.43327399487E+02  0.20156466269E+01  0.10197629127E+03  0.91457475462E+02 0.  0.
          5    1    1    2  502    0  0.15361703127E+02  0.85630835988E+02 -0.14415106931E+03  0.16842097606E+03  0.41800000000E+01 0. -1.
         -5    1    1    2    0  502 -0.29775283532E+01 -0.42303436501E+02 -0.38009521762E+02  0.57102036386E+02  0.41800000000E+01 0. -1.
        -11    1    3    3    0    0 -0.22707285283E+02 -0.57825244191E+02  0.29861908688E+02  0.68928319733E+02  0.00000000000E+00 0.  1.
         11    1    3    3    0    0  0.10323110509E+02  0.14497844705E+02 -0.27846262061E+02  0.33047971533E+02  0.00000000000E+00 0. -1.
</event>
<event>
 7    1  0.4274778E-006  0.8652996E+02  0.7561462E-02  0.1311479E+00
         -2   -1    0    0    0  501 -0.00000000000E+00  0.00000000000E+00  0.11755927160E+03  0.11755927160E+03  0.00000000000E+00 0.  1.
          2   -1    0    0  501    0  0.00000000000E+00 -0.00000000000E+00 -0.17822471838E+03  0.17822471838E+03  0.00000000000E+00 0. -1.
         23    2    1    2    0    0 -0.28589820532E+02 -0.16435544831E+02 -0.12206478718E+03  0.15258127710E+03  0.85403330624E+02 0.  0.
          5    1    1    2  502    0  0.14888745962E+01  0.62427363380E+02  0.64103205379E+02  0.89588424397E+02  0.41800000000E+01 0. -1.
         -5    1    1    2    0  502  0.27100945936E+02 -0.45991818549E+02 -0.27038649847E+01  0.53614288486E+02  0.41800000000E+01 0. -1.
        -11    1    3    3    0    0 -0.38022775942E+02 -0.50704332876E-01 -0.10527925679E+02  0.39453406448E+02  0.00000000000E+00 0.  1.
         11    1    3    3    0    0  0.94329554103E+01 -0.16384840498E+02 -0.11153686150E+03  0.11312787065E+03  0.00000000000E+00 0. -1.
</event>
<event>
 7    1  0.4274778E-006  0.2082127E+03  0.7561462E-02  0.1142989E+00
          2   -1    0    0  501    0  0.00000000000E+00  0.00000000000E+00  0.24583239833E+02  0.24583239833E+02  0.00000000000E+00 0.  1.
         -2   -1    0    0    0  501 -0.00000000000E+00 -0.00000000000E+00 -0.34352420160E+04  0.34352420160E+04  0.00000000000E+00 0. -1.
         23    2    1    2    0    0  0.19125285292E+03 -0.25732723287E+02 -0.55175927805E+03  0.59169117683E+03  0.91762307164E+02 0.  0.
          5    1    1    2  502    0 -0.19743439576E+03  0.43639844629E+02 -0.27567595932E+04  0.27641681758E+04  0.41800000000E+01 0.  1.
         -5    1    1    2    0  502  0.61815428332E+01 -0.17907121342E+02 -0.10213990491E+03  0.10396590327E+03  0.41800000000E+01 0.  1.
        -11    1    3    3    0    0  0.12070578407E+03 -0.29069079724E+02 -0.45664699144E+03  0.47322444199E+03  0.00000000000E+00 0. -1.
         11    1    3    3    0    0  0.70547068854E+02  0.33363564372E+01 -0.95112286613E+02  0.11846673484E+03  0.00000000000E+00 0.  1.
</event>
<event>
 7    1  0.4274778E-006  0.1534509E+03  0.7561462E-02  0.1196296E+00
          1   -1    0    0  501    0  0.00000000000E+00  0.00000000000E+00  0.94788406115E+03  0.94788406115E+03  0.00000000000E+00 0. -1.
         -1   -1    0    0    0  501 -0.00000000000E+00 -0.00000000000E+00 -0.27375865549E+02  0.27375865549E+02  0.00000000000E+00 0.  1.
         23    2    1    2    0    0  0.11273419680E+03  0.32748541347E+02  0.38154199455E+03  0.40964942412E+03  0.91961355920E+02 0.  0.
          5    1    1    2  502    0  0.14909390892E+02  0.14880270874E+02  0.21098634450E+02  0.30105434289E+02  0.41800000000E+01 0. -1.
         -5    1    1    2    0  502 -0.12764358770E+03 -0.47628812221E+02  0.51786756659E+03  0.53550506829E+03  0.41800000000E+01 0. -1.
        -11    1    3    3    0    0  0.77949085697E+02  0.65145488378E+02  0.26113571558E+03  0.28019967267E+03  0.00000000000E+00 0.  1.
         11    1    3    3    0    0  0.34785111106E+02 -0.32396947032E+02  0.12040627898E+03  0.12944975144E+03  0.00000000000E+00 0. -1.
</event>
<event>
 7    1  0.4274778E-006  0.9118006E+02  0.7561462E-02  0.1300019E+00
         -2   -1    0    0    0  501 -0.00000000000E+00  0.00000000000E+00  0.22480450802E+03  0.22480450802E+03  0.00000000000E+00 0.  1.
          2   -1    0    0  501    0  0.00000000000E+00 -0.00000000000E+00 -0.23624257729E+03  0.23624257729E+03  0.00000000000E+00 0. -1.
         23    2    1    2    0    0 -0.32318843182E+02  0.10485422729E+02 -0.10497480090E+03  0.14350017952E+03  0.91750427699E+02 0.  0.
          5    1    1    2  502    0 -0.24956111384E+02  0.39965974214E+02 -0.99365956641E+02  0.11005068073E+03  0.41800000000E+01 0. -1.
         -5    1    1    2    0  502  0.57274954566E+02 -0.50451396943E+02  0.19290268827E+03  0.20749622506E+03  0.41800000000E+01 0.  1.
        -11    1    3    3    0    0 -0.22011620357E+02  0.29607398407E+02 -0.60966453780E+00  0.36898254187E+02  0.00000000000E+00 0.  1.
         11    1    3    3    0    0 -0.10307222825E+02 -0.19121975678E+02 -0.10436513636E+03  0.10660192533E+03  0.00000000000E+00 0. -1.
</event>
<event>
 7    1  0.4274778E-006  0.1213616E+03  0.7561462E-02  0.1240868E+00
         -2   -1    0    0    0  501 -0.00000000000E+00  0.00000000000E+00  0.19959479709E+02  0.19959479709E+02  0.00000000000E+00 0.  1.
          2   -1    0    0  501    0  0.00000000000E+00 -0.00000000000E+00 -0.93920155313E+03  0.93920155313E+03  0.00000000000E+00 0. -1.
         23    2    1    2    0    0 -0.95492320877E+01  0.64182631609E+02 -0.59972842223E+03  0.60995267868E+03  0.90318833907E+02 0.  0.
          5    1    1    2  502    0 -0.13941170883E+02  0.30581410892E+02 -0.14784376954E+03  0.15167343713E+03  0.41800000000E+01 0. -1.
         -5    1    1    2    0  502  0.23490402971E+02 -0.94764042501E+02 -0.17166988164E+03  0.19753491703E+03  0.41800000000E+01 0. -1.
        -11    1    3    3    0    0 -0.32640504401E+02 -0.94371669876E+01 -0.19406726283E+03  0.19701919995E+03  0.00000000000E+00 0.  1.
         11    1    3    3    0    0  0.23091272313E+02  0.73619798596E+02 -0.40566115941E+03  0.41293347873E+03  0.00000000000E+00 0. -1.
</event>
<event>
 7    1  0.4274778E-006  0.1584843E+03  0.7561462E-02  0.1190419E+00
          1   -1    0    0  501    0  0.00000000000E+00  0.00000000000E+00  0.24010961517E+03  0.24010961517E+03  0.00000000000E+00 0. -1.
         -1   -1    0    0    0  501 -0.00000000000E+00 -0.00000000000E+00 -0.11169943689E+03  0.11169943689E+03  0.00000000000E+00 0.  1.
         23    2    1    2    0    0 -0.11367303625E+03  0.48877026831E+02  0.97709781300E+02  0.18222379970E+03  0.91366234983E+02 0.  0.
          5    1    1    2  502    0 -0.18867532232E+02  0.99234297410E+01  0.38267723619E+01  0.22058440948E+02  0.41800000000E+01 0. -1.
         -5    1    1    2    0  502  0.13254056848E+03 -0.58800456572E+02  0.26873624620E+02  0.14752681141E+03  0.41800000000E+01 0.  1.
        -11    1    3    3    0    0 -0.25380672315E+02  0.56124812387E+02  0.59846098439E+02  0.85882062103E+02  0.00000000000E+00 0. -1.
         11    1    3    3    0    0 -0.88292363930E+02 -0.72477855558E+01  0.37863682862E+02  0.96341737600E+02  0.00000000000E+00 0.  1.
</event>
<event>
 7    1  0.4274778E-006  0.9826418E+02  0.7561462E-02  0.1283989E+00
         -2   -1    0    0    0  501 -0.00000000000E+00  0.00000000000E+00  0.32253422188E+02  0.32253422188E+02  0.00000000000E+00 0.  1.
          2   -1    0    0  501    0  0.00000000000E+00 -0.00000000000E+00 -0.45981833365E+03  0.45981833365E+03  0.00000000000E+00 0. -1.
         23    2    1    2    0    0  0.10485662861E+02 -0.41410813512E+02 -0.23981261255E+03  0.26245508280E+03  0.97712725641E+02 0.  0.
          5    1    1    2  502    0 -0.65518816220E+02  0.38902534249E+02 -0.97765338419E+02  0.12402280535E+03  0.41800000000E+01 0.  1.
         -5    1    1    2    0  502  0.55033153359E+02  0.25082792632E+01 -0.89986960497E+02  0.10559386769E+03  0.41800000000E+01 0.  1.
        -11    1    3    3    0    0 -0.13266225493E+02  0.38835805488E+01  0.31420551271E+01  0.14175593361E+02  0.00000000000E+00 0.  1.
         11    1    3    3    0    0  0.23751888354E+02 -0.45294394061E+02 -0.24295466767E+03  0.24827948944E+03  0.00000000000E+00 0. -1.
</event>
<event>
 7    1  0.4274778E-006  0.1337171E+03  0.7561462E-02  0.1222042E+00
         -1   -1    0    0    0  501 -0.00000000000E+00  0.00000000000E+00  0.16360000239E+03  0.16360000239E+03  0.00000000000E+00 0.  1.
          1   -1    0    0  501    0  0.00000000000E+00 -0.00000000000E+00 -0.26095204697E+03  0.26095204697E+03  0.00000000000E+00 0. -1.
         23    2    1    2    0    0 -0.49874660006E+02  0.83854415229E+02 -0.19650433507E+03  0.23747559338E+03  0.90893669125E+02 0.  0.
          5    1    1    2  502    0  0.79848679564E+02 -0.62796539011E+02  0.10885681306E+03  0.14895131785E+03  0.41800000000E+01 0. -1.
         -5    1    1    2    0  502 -0.29974019558E+02 -0.21057876218E+02 -0.97045225603E+01  0.38125138129E+02  0.41800000000E+01 0. -1.
        -11    1    3    3    0    0 -0.66171322333E+02  0.30046181654E+02 -0.79786501104E+02  0.10792266995E+03  0.00000000000E+00 0.  1.
         11    1    3    3    0    0  0.16296662327E+02  0.53808233575E+02 -0.11671783396E+03  0.12955292343E+03  0.00000000000E+00 0. -1.
</event>
<event>
 7    1  0.4274778E-006  0.1157430E+03  0.7561462E-02  0.1250290E+00
          2   -1    0    0  501    0  0.00000000000E+00  0.00000000000E+00  0.11598449068E+03  0.11598449068E+03  0.00000000000E+00 0. -1.
         -2   -1    0    0    0  501 -0.00000000000E+00 -0.00000000000E+00 -0.15426040844E+03  0.15426040844E+03  0.00000000000E+00 0.  1.
         23    2    1    2    0    0 -0.10211094527E+02  0.76146023639E+02  0.62548073958E-01  0.11851768759E+03  0.90243864013E+02 0.  0.
          5    1    1    2  502    0 -0.38353672436E+02 -0.13722713072E+02 -0.57166977574E+02  0.70319647100E+02  0.41800000000E+01 0.  1.
         -5    1    1    2    0  502  0.48564766963E+02 -0.62423310566E+02  0.18828511740E+02  0.81407564431E+02  0.41800000000E+01 0.  1.
        -11    1    3    3    0    0 -0.37288124804E+02  0.75553110588E+02 -0.17748024399E+02  0.86102666283E+02  0.00000000000E+00 0.  1.
         11    1    3    3    0    0  0.27077030277E+02  0.59291305072E+00  0.17810572473E+02  0.32415021307E+02  0.00000000000E+00 0. -1.
</event>
<event>
 7    1  0.4274778E-006  0.1127792E+03  0.7561462E-02  0.1255508E+00
         -1   -1    0    0    0  501 -0.00000000000E+00  0.00000000000E+00  0.67843316935E+02  0.67843316935E+02  0.00000000000E+00 0.  1.
          1   -1    0    0  501    0  0.00000000000E+00 -0.00000000000E+00 -0.33773358709E+03  0.33773358709E+03  0.00000000000E+00 0. -1.
         23    2    1    2    0    0 -0.51367302120E+02 -0.90632008310E+02 -0.10870942054E+03  0.17649463073E+03  0.92086133080E+02 0.  0.
          5    1    1    2  502    0  0.21046526078E+00  0.45674769854E+02  0.80923757030E+01  0.46574540699E+02  0.41800000000E+01 0.  1.
         -5    1    1    2    0  502  0.51156836859E+02  0.44957238457E+02 -0.16927322532E+03  0.18250773260E+03  0.41800000000E+01 0.  1.
        -11    1    3    3    0    0 -0.22749489770E+02 -0.81678332727E+01 -0.81582453887E+02  0.85087893189E+02  0.00000000000E+00 0. -1.
         11    1    3    3    0    0 -0.28617812350E+02 -0.82464175038E+02 -0.27126966652E+02  0.91406737542E+02  0.00000000000E+00 0.  1.
</event>
<event>
 7    1  0.4274778E-006  0.1045652E+03  0.7561462E-02  0.1270979E+00
          2   -1    0    0  501    0  0.00000000000E+00  0.00000000000E+00  0.27922172513E+03  0.27922172513E+03  0.00000000000E+00 0. -1.
         -2   -1    0    0    0  501 -0.00000000000E+00 -0.00000000000E+00 -0.78366158435E+02  0.78366158435E+02  0.00000000000E+00 0.  1.
         23    2    1    2    0    0 -0.27625816135E+02 -0.27594196255E+02  0.21465754067E+03  0.23596116959E+03  0.89862052073E+02 0.  0.
          5    1    1    2  502    0 -0.29362396176E+01  0.66031720172E+02  0.98555852096E+01  0.66958304428E+02  0.41800000000E+01 0. -1.
         -5    1    1    2    0  502  0.30562055753E+02 -0.38437523917E+02 -0.23657559180E+02  0.54668409553E+02  0.41800000000E+01 0.  1.
        -11    1    3    3    0    0  0.50456886035E+01 -0.52370771353E+02  0.84915906390E+02  0.99894283237E+02  0.00000000000E+00 0. -1.
         11    1    3    3    0    0 -0.32671504739E+02  0.24776575098E+02  0.12974163428E+03  0.13606688635E+03  0.00000000000E+00 0.  1.
</event>
<event>
 7    1  0.4274778E-006  0.6170033E+02  0.7561462E-02  0.1390832E+00
         -2   -1    0    0    0  501 -0.00000000000E+00  0.00000000000E+00  0.51435169425E+02  0.51435169425E+02  0.00000000000E+00 0.  1.
          2   -1    0    0  501    0  0.00000000000E+00 -0.00000000000E+00 -0.28689651423E+03  0.28689651423E+03  0.00000000000E+00 0. -1.
         23    2    1    2    0    0  0.19845184189E+02 -0.42195777023E+02 -0.14780456599E+03  0.17862884353E+03  0.88813056904E+02 0.  0.
          5    1    1    2  502    0 -0.16597178740E+01  0.51895127018E+02 -0.11438854023E+03  0.12569037118E+03  0.41800000000E+01 0. -1.
         -5    1    1    2    0  502 -0.18185466315E+02 -0.96993499956E+01  0.26731761419E+02  0.34012468949E+02  0.41800000000E+01 0. -1.
        -11    1    3    3    0    0  0.19693522989E+02 -0.19943349329E+02 -0.15319046634E+03  0.15573339721E+03  0.00000000000E+00 0. -1.
         11    1    3    3    0    0  0.15166119919E+00 -0.22252427694E+02  0.53859003444E+01  0.22895446314E+02  0.00000000000E+00 0.  1.
</event>
<event>
 7    1  0.4274778E-006  0.1117138E+03  0.7561462E-02  0.1257429E+00
          1   -1    0    0  501    0  0.00000000000E+00  0.00000000000E+00  0.13186195949E+03  0.13186195949E+03  0.00000000000E+00 0. -1.
         -1   -1    0    0    0  501 -0.00000000000E+00 -0.00000000000E+00 -0.10595762358E+03  0.10595762358E+03  0.00000000000E+00 0.  1.
         23    2    1    2    0    0  0.33272081983E+02  0.46235126552E+02  0.68509394382E+01  0.99057202487E+02  0.80750700472E+02 0.  0.
          5    1    1    2  502    0  0.32834208096E+02  0.22863783077E+02  0.15076446805E+02  0.42960556864E+02  0.41800000000E+01 0.  1.
         -5    1    1    2    0  502 -0.66106290078E+02 -0.69098909628E+02  0.39769496617E+01  0.95801823721E+02  0.41800000000E+01 0.  1.
        -11    1    3    3    0    0  0.53653850002E+02  0.30381031842E+02  0.25993766052E+02  0.66913515745E+02  0.00000000000E+00 0. -1.
         11    1    3    3    0    0 -0.20381768019E+02  0.15854094710E+02 -0.19142826613E+02  0.32143686742E+02  0.00000000000E+00 0.  1.
</event>
<event>
 7    1  0.4274778E-006  0.1167235E+03  0.7561462E-02  0.1248602E+00
          2   -1    0    0  501    0  0.00000000000E+00  0.00000000000E+00  0.27765133143E+03  0.27765133143E+03  0.00000000000E+00 0.  1.
         -2   -1    0    0    0  501 -0.00000000000E+00 -0.00000000000E+00 -0.66887684930E+02  0.66887684930E+02  0.00000000000E+00 0. -1.
         23    2    1    2    0    0  0.59583188560E+02 -0.77912296934E+01  0.16565693121E+03  0.19861547136E+03  0.91624379875E+02 0.  0.
          5    1    1    2  502    0  0.31226720927E+02 -0.11750181136E+02 -0.13254092413E+02  0.36143024531E+02  0.41800000000E+01 0.  1.
         -5    1    1    2    0  502 -0.90809909487E+02  0.19541410829E+02  0.58360807705E+02  0.10978052047E+03  0.41800000000E+01 0.  1.
        -11    1    3    3    0    0  0.51647103486E+01  0.36383374879E+02  0.79244933301E+02  0.87350922459E+02  0.00000000000E+00 0.  1.
         11    1    3    3    0    0  0.54418478211E+02 -0.44174604573E+02  0.86411997905E+02  0.11126454890E+03  0.00000000000E+00 0. -1.
</event>
<event>
 7    1  0.4274778E-006  0.1018324E+03  0.7561462E-02  0.1276489E+00
         -1   -1    0    0    0  501 -0.00000000000E+00  0.00000000000E+00  0.71340044516E+03  0.71340044516E+03  0.00000000000E+00 0.  1.
          1   -1    0    0  501    0  0.00000000000E+00 -0.00000000000E+00 -0.24122139905E+02  0.24122139905E+02  0.00000000000E+00 0. -1.
         23    2    1    2    0    0  0.16478732395E+01  0.13924831109E+02  0.11803303612E+03  0.15242649466E+03  0.95422336236E+02 0.  0.
          5    1    1    2  502    0  0.53296327292E+02  0.14885794920E+02  0.16408096190E+03  0.17321120013E+03  0.41800000000E+01 0. -1.
         -5    1    1    2    0  502 -0.54944200531E+02 -0.28810626029E+02  0.40716430724E+03  0.41188489027E+03  0.41800000000E+01 0. -1.
        -11    1    3    3    0    0 -0.39987055259E+02  0.18586471383E+02  0.94721618003E+02  0.10448256517E+03  0.00000000000E+00 0.  1.
         11    1    3    3    0    0  0.41634928498E+02 -0.46616402749E+01  0.23311418114E+02  0.47943929497E+02  0.00000000000E+00 0. -1.
</event>
<event>
 7    1  0.4274778E-006  0.1064995E+03  0.7561462E-02  0.1267193E+00
         -1   -1    0    0    0  501 -0.00000000000E+00  0.00000000000E+00  0.22105357622E+02  0.22105357622E+02  0.00000000000E+00 0.  1.
          1   -1    0    0  501    0  0.00000000000E+00 -0.00000000000E+00 -0.61271679995E+03  0.61271679995E+03  0.00000000000E+00 0. -1.
         23    2    1    2    0    0  0.35879088294E+02 -0.10291950177E+02 -0.30773534742E+03  0.32327712705E+03  0.91726896856E+02 0.  0.
          5    1    1    2  502    0 -0.60934886917E+02  0.46853836757E+02 -0.22935014324E+03  0.24192416801E+03  0.41800000000E+01 0.  1.
         -5    1    1    2    0  502  0.25055798623E+02 -0.36561886581E+02 -0.53525951667E+02  0.69620862511E+02  0.41800000000E+01 0.  1.
        -11    1    3    3    0    0 -0.68773364023E+01 -0.39257635530E+02 -0.19833180637E+03  0.20229672544E+03  0.00000000000E+00 0. -1.
         11    1    3    3    0    0  0.42756424697E+02  0.28965685353E+02 -0.10940354105E+03  0.12098040161E+03  0.00000000000E+00 0.  1.
</event>
<event>
 7    1  0.4274778E-006  0.8994278E+02  0.7561462E-02  0.1302990E+00
          2   -1    0    0  501    0  0.00000000000E+00  0.00000000000E+00  0.35369326330E+03  0.35369326330E+03  0.00000000000E+00 0. -1.
         -2   -1    0    0    0  501 -0.00000000000E+00 -0.00000000000E+00 -0.45120061692E+02  0.45120061692E+02  0.00000000000E+00 0.  1.
         23    2    1    2    0    0  0.64131693375E+01 -0.41156106415E+02  0.21398546743E+03  0.23655119557E+03  0.91824473964E+02 0.  0.
          5    1    1    2  502    0 -0.33087404104E+02  0.24960744133E+01  0.10814408819E+03  0.11319727430E+03  0.41800000000E+01 0. -1.
         -5    1    1    2    0  502  0.26674234766E+02  0.38660032002E+02 -0.13556354008E+02  0.49064855128E+02  0.41800000000E+01 0. -1.
        -11    1    3    3    0    0  0.23250350998E+02 -0.65603970103E+02  0.16763015521E+03  0.18150572622E+03  0.00000000000E+00 0. -1.
         11    1    3    3    0    0 -0.16837181660E+02  0.24447863687E+02  0.46355312222E+02  0.55045469353E+02  0.00000000000E+00 0.  1.
</event>
<event>
 7    1  0.4274778E-006  0.2616499E+03  0.7561462E-02  0.1106156E+00
          1   -1    0    0  501    0  0.00000000000E+00  0.00000000000E+00  0.67577781310E+02  0.67577781310E+02  0.00000000000E+00 0. -1.
         -1   -1    0    0    0  501 -0.00000000000E+00 -0.00000000000E+00 -0.13154842793E+04  0.13154842793E+04  0.00000000000E+00 0.  1.
         23    2    1    2    0    0  0.14752669834E+03  0.21426808587E+03 -0.38533765135E+03  0.47347581582E+03  0.89550562645E+02 0.  0.
          5    1    1    2  502    0 -0.96822776415E+02 -0.10662224080E+03 -0.27914629054E+03  0.31413862575E+03  0.41800000000E+01 0.  1.
         -5    1    1    2    0  502 -0.50703921922E+02 -0.10764584507E+03 -0.58342255614E+03  0.59544761909E+03  0.41800000000E+01 0.  1.
        -11    1    3    3    0    0  0.65058654446E+02  0.92710922793E+02 -0.24685709808E+03  0.27159965132E+03  0.00000000000E+00 0.  1.
         11    1    3    3    0    0  0.82468043891E+02  0.12155716308E+03 -0.13848055327E+03  0.20187616450E+03  0.00000000000E+00 0. -1.
</event>
<event>
 7    1  0.4274778E-006  0.2131190E+03  0.7561462E-02  0.1139120E+00
          2   -1    0    0  501    0  0.00000000000E+00  0.00000000000E+00  0.12877754716E+03  0.12877754716E+03  0.00000000000E+00 0. -1.
         -2   -1    0    0    0  501 -0.00000000000E+00 -0.00000000000E+00 -0.40358585772E+03  0.40358585772E+03  0.00000000000E+00 0.  1.
         23    2    1    2    0    0 -0.85402513222E+02 -0.17589551698E+03 -0.81804375030E+02  0.23048394792E+03  0.90543206894E+02 0.  0.
          5    1    1    2  502    0  0.10195329911E+03  0.18488796770E+03 -0.16559322715E+03  0.26835913451E+03  0.41800000000E+01 0. -1.
         -5    1    1    2    0  502 -0.16550785888E+02 -0.89924507204E+01 -0.27410708385E+02  0.33520322457E+02  0.41800000000E+01 0. -1.
        -11    1    3    3    0    0 -0.34635585081E+02 -0.60811557764E+02  0.15230178030E+02  0.71621418825E+02  0.00000000000E+00 0.  1.
         11    1    3    3    0    0 -0.50766928141E+02 -0.11508395922E+03 -0.97034553060E+02  0.15886252909E+03  0.00000000000E+00 0. -1.
</event>
<event>
 7    1  0.4274778E-006  0.9765696E+02  0.7561462E-02  0.1285302E+00
          3   -1    0    0  501    0  0.00000000000E+00  0.00000000000E+00  0.17442427597E+03  0.17442427597E+03  0.00000000000E+00 0. -1.
         -3   -1    0    0    0  501 -0.00000000000E+00 -0.00000000000E+00 -0.60084736326E+02  0.60084736326E+02  0.00000000000E+00 0.  1.
         23    2    1    2    0    0  0.17867808990E+02  0.36137295251E+02  0.57367483214E+02  0.91267503242E+02  0.58425733299E+02 0.  0.
          5    1    1    2  502    0 -0.60478961684E+02  0.10449772144E+02  0.50588981622E+02  0.79646845548E+02  0.41800000000E+01 0.  1.
         -5    1    1    2    0  502  0.42611152694E+02 -0.46587067395E+02  0.63830748087E+01  0.63594663506E+02  0.41800000000E+01 0.  1.
        -11    1    3    3    0    0 -0.19927610245E+02  0.23180054690E+02  0.19769368500E+02  0.36404017861E+02  0.00000000000E+00 0. -1.
         11    1    3    3    0    0  0.37795419235E+02  0.12957240561E+02  0.37598114714E+02  0.54863485381E+02  0.00000000000E+00 0.  1.
</event>
<event>
 7    1  0.4274778E-006  0.1071263E+03  0.7561462E-02  0.1265986E+00
          2   -1    0    0  501    0  0.00000000000E+00  0.00000000000E+00  0.64177733237E+02  0.64177733237E+02  0.00000000000E+00 0. -1.
         -2   -1    0    0    0  501 -0.00000000000E+00 -0.00000000000E+00 -0.29332675937E+03  0.29332675937E+03  0.00000000000E+00 0.  1.
         23    2    1    2    0    0 -0.72870304389E+02  0.39533080719E+02 -0.83245182427E+02  0.14820931110E+03  0.90350947786E+02 0.  0.
          5    1    1    2  502    0  0.76889486344E+02 -0.37082089270E+02 -0.16682698689E+03  0.18744543315E+03  0.41800000000E+01 0.  1.
         -5    1    1    2    0  502 -0.40191819552E+01 -0.24509914490E+01  0.20923143183E+02  0.21849748358E+02  0.41800000000E+01 0.  1.
        -11    1    3    3    0    0  0.14468462542E+02 -0.13932514123E+02 -0.16258605324E+02  0.25841702831E+02  0.00000000000E+00 0.  1.
         11    1    3    3    0    0 -0.87338766931E+02  0.53465594842E+02 -0.66986577103E+02  0.12236760827E+03  0.00000000000E+00 0. -1.
</event>
<event>
 7    1  0.4274778E-006  0.2650840E+03  0.7561462E-02  0.1104127E+00
          3   -1    0    0  501    0  0.00000000000E+00  0.00000000000E+00  0.10612305111E+04  0.10612305111E+04  0.00000000000E+00 0. -1.
         -3   -1    0    0    0  501 -0.00000000000E+00 -0.00000000000E+00 -0.10070503982E+03  0.10070503982E+03  0.00000000000E+00 0.  1.
         23    2    1    2    0    0  0.10179423309E+03  0.22229078611E+03  0.80537710580E+03  0.84651184829E+03  0.90414419512E+02 0.  0.
          5    1    1    2  502    0 -0.70666450476E+02 -0.22728000263E+03  0.11547689877E+03  0.26457954072E+03  0.41800000000E+01 0. -1.
         -5    1    1    2    0  502 -0.31127782618E+02  0.49892165155E+01  0.39671466747E+02  0.50844161966E+02  0.41800000000E+01 0. -1.
        -11    1    3    3    0    0  0.32539393716E+02  0.17117930812E+03  0.51794881473E+03  0.54647245343E+03  0.00000000000E+00 0. -1.
         11    1    3    3    0    0  0.69254839377E+02  0.51111477993E+02  0.28742829107E+03  0.30003939486E+03  0.00000000000E+00 0.  1.
</event>
<event>
 7    1  0.4274778E-006  0.1255401E+03  0.7561462E-02  0.1234228E+00
         -4   -1    0    0    0  501 -0.00000000000E+00  0.00000000000E+00  0.50965333576E+03  0.50965333576E+03  0.00000000000E+00 0. -1.
          4   -1    0    0  501    0  0.00000000000E+00 -0.00000000000E+00 -0.43201700961E+02  0.43201700961E+02  0.00000000000E+00 0.  1.
         23    2    1    2    0    0 -0.20694596164E+02 -0.98265667951E+02  0.24318099704E+03  0.27793098342E+03  0.89578046507E+02 0.  0.
          5    1    1    2  502    0 -0.20584885076E+02  0.94670529959E+02  0.79967764860E+02  0.12569233291E+03  0.41800000000E+01 0.  1.
         -5    1    1    2    0  502  0.41279481240E+02  0.35951379915E+01  0.14330287289E+03  0.14923172038E+03  0.41800000000E+01 0.  1.
        -11    1    3    3    0    0 -0.28195758019E+02 -0.21830525984E+02  0.17862957231E+02  0.39883052492E+02  0.00000000000E+00 0.  1.
         11    1    3    3    0    0  0.75011618555E+01 -0.76435141967E+02  0.22531803981E+03  0.23804793093E+03  0.00000000000E+00 0. -1.
</event>
<event>
 7    1  0.4274778E-006  0.6586161E+02  0.7561462E-02  0.1374759E+00
         -2   -1    0    0    0  501 -0.00000000000E+00  0.00000000000E+00  0.23237168903E+02  0.23237168903E+02  0.00000000000E+00 0.  1.
          2   -1    0    0  501    0  0.00000000000E+00 -0.00000000000E+00 -0.50078295714E+03  0.50078295714E+03  0.00000000000E+00 0. -1.
         23    2    1    2    0    0 -0.97240285268E+01  0.27301451946E+02 -0.25155654733E+03  0.26899201001E+03  0.90752845320E+02 0.  0.
          5    1    1    2  502    0 -0.65069261810E+01 -0.57563970433E+01 -0.22748626882E+03  0.22769047213E+03  0.41800000000E+01 0. -1.
         -5    1    1    2    0  502  0.16230954708E+02 -0.21545054903E+02  0.14970279222E+01  0.27337643902E+02  0.41800000000E+01 0.  1.
        -11    1    3    3    0    0 -0.29277632492E+02 -0.25282907984E+02 -0.89606768381E+02  0.97600092930E+02  0.00000000000E+00 0.  1.
         11    1    3    3    0    0  0.19553603965E+02  0.52584359930E+02 -0.16194977895E+03  0.17139191708E+03  0.00000000000E+00 0. -1.
</event>
<event>
 7    1  0.4274778E-006  0.1071943E+03  0.7561462E-02  0.1265856E+00
          2   -1    0    0  501    0  0.00000000000E+00  0.00000000000E+00  0.37001877091E+03  0.37001877091E+03  0.00000000000E+00 0. -1.
         -2   -1    0    0    0  501 -0.00000000000E+00 -0.00000000000E+00 -0.44989191021E+02  0.44989191021E+02  0.00000000000E+00 0.  1.
         23    2    1    2    0    0  0.38000264117E+02  0.20773820928E+02  0.23182766284E+03  0.25311410120E+03  0.91908167535E+02 0.  0.
          5    1    1    2  502    0  0.23425475487E+02 -0.42257938563E+02  0.82663036701E+02  0.95839116806E+02  0.41800000000E+01 0.  1.
         -5    1    1    2    0  502 -0.61425739604E+02  0.21484117635E+02  0.10538880351E+02  0.66054743929E+02  0.41800000000E+01 0.  1.
        -11    1    3    3    0    0 -0.19866813612E+02  0.35759012537E+02  0.77906399950E+02  0.87993206635E+02  0.00000000000E+00 0.  1.
         11    1    3    3    0    0  0.57867077729E+02 -0.14985191609E+02  0.15392126289E+03  0.16512089457E+03  0.00000000000E+00 0. -1.
</event>
<event>
 7    1  0.4274778E-006  0.1927072E+03  0.7561462E-02  0.1156042E+00
         -2   -1    0    0    0  501 -0.00000000000E+00  0.00000000000E+00  0.33926588959E+03  0.33926588959E+03  0.00000000000E+00 0.  1.
          2   -1    0    0  501    0  0.00000000000E+00 -0.00000000000E+00 -0.11970971208E+03  0.11970971208E+03  0.00000000000E+00 0. -1.
         23    2    1    2    0    0 -0.12096934254E+02  0.16016163585E+03  0.48885014037E+02  0.19331920700E+03  0.95835722893E+02 0.  0.
          5    1    1    2  502    0 -0.54226719492E+02 -0.45291404942E+02  0.63250177966E+02  0.94920524025E+02  0.41800000000E+01 0. -1.
         -5    1    1    2    0  502  0.66323653746E+02 -0.11487023091E+03  0.10742098550E+03  0.17073587064E+03  0.41800000000E+01 0. -1.
        -11    1    3    3    0    0 -0.38747139065E+02  0.29825438679E+02 -0.62871094956E+01  0.49299344052E+02  0.00000000000E+00 0.  1.
         11    1    3    3    0    0  0.26650204811E+02  0.13033619717E+03  0.55172123532E+02  0.14401986295E+03  0.00000000000E+00 0. -1.
</event>
<event>
 7    1  0.4274778E-006  0.3039811E+03  0.7561462E-02  0.1083267E+00
          1   -1    0    0  501    0  0.00000000000E+00  0.00000000000E+00  0.19137542075E+04  0.19137542075E+04  0.00000000000E+00 0. -1.
         -1   -1    0    0    0  501 -0.00000000000E+00 -0.00000000000E+00 -0.49194388439E+02  0.49194388439E+02  0.00000000000E+00 0.  1.
         23    2    1    2    0    0  0.15913561448E+03  0.23583585128E+03  0.10134952569E+04  0.10569121773E+04  0.94593986606E+02 0.  0.
          5    1    1    2  502    0 -0.14049364649E+03 -0.99642988628E+02  0.43740174780E+03  0.47011163702E+03  0.41800000000E+01 0.  1.
         -5    1    1    2    0  502 -0.18641967987E+02 -0.13619286265E+03  0.41366281438E+03  0.43592478160E+03  0.41800000000E+01 0.  1.
        -11    1    3    3    0    0  0.79028276254E+02  0.44455385124E+02  0.25907928038E+03  0.27448829345E+03  0.00000000000E+00 0.  1.
         11    1    3    3    0    0  0.80107338226E+02  0.19138046615E+03  0.75441597649E+03  0.78242388387E+03  0.00000000000E+00 0. -1.
</event>
<event>
 7    1  0.4274778E-006  0.1190125E+03  0.7561462E-02  0.1244735E+00
          3   -1    0    0  501    0  0.00000000000E+00  0.00000000000E+00  0.13619049275E+03  0.13619049275E+03  0.00000000000E+00 0. -1.
         -3   -1    0    0    0  501 -0.00000000000E+00 -0.00000000000E+00 -0.14088580001E+03  0.14088580001E+03  0.00000000000E+00 0.  1.
         23    2    1    2    0    0  0.31346204331E+02 -0.71533612338E+02  0.34523004729E+02  0.12448274270E+03  0.90578546876E+02 0.  0.
          5    1    1    2  502    0  0.65247509180E+01 -0.19312628586E+02  0.26855817011E+02  0.33974362464E+02  0.41800000000E+01 0.  1.
         -5    1    1    2    0  502 -0.37870955249E+02  0.90846240925E+02 -0.66074129003E+02  0.11861918759E+03  0.41800000000E+01 0.  1.
        -11    1    3    3    0    0 -0.54970988834E+01  0.19625207598E+02  0.32709319377E+00  0.20383175890E+02  0.00000000000E+00 0.  1.
         11    1    3    3    0    0  0.36843303214E+02 -0.91158819936E+02  0.34195911535E+02  0.10409956681E+03  0.00000000000E+00 0. -1.
</event>
<event>
 7    1  0.4274778E-006  0.9802175E+02  0.7561462E-02  0.1284512E+00
          1   -1    0    0  501    0  0.00000000000E+00  0.00000000000E+00  0.75484788073E+02  0.75484788073E+02  0.00000000000E+00 0. -1.
         -1   -1    0    0    0  501 -0.00000000000E+00 -0.00000000000E+00 -0.25915292764E+03  0.25915292764E+03  0.00000000000E+00 0.  1.
         23    2    1    2    0    0  0.55226194615E+02 -0.56285472721E+02 -0.58368072299E+02  0.14082205348E+03  0.10102490718E+03 0.  0.
          5    1    1    2  502    0 -0.36562318560E+02  0.15278458450E+02  0.17866946250E+02  0.43668462297E+02  0.41800000000E+01 0. -1.
         -5    1    1    2    0  502 -0.18663876055E+02  0.41007014272E+02 -0.14316701351E+03  0.15014719993E+03  0.41800000000E+01 0. -1.
        -11    1    3    3    0    0  0.19852221400E+02  0.19180342749E+02 -0.49927765514E+02  0.57050661799E+02  0.00000000000E+00 0.  1.
         11    1    3    3    0    0  0.35373973214E+02 -0.75465815471E+02 -0.84403067856E+01  0.83771391682E+02  0.00000000000E+00 0. -1.
</event>
<event>
 7    1  0.4274778E-006  0.2148379E+03  0.7561462E-02  0.1137791E+00
         -2   -1    0    0    0  501 -0.00000000000E+00  0.00000000000E+00  0.49680266582E+02  0.49680266582E+02  0.00000000000E+00 0.  1.
          2   -1    0    0  501    0  0.00000000000E+00 -0.00000000000E+00 -0.10966625944E+04  0.10966625944E+04  0.00000000000E+00 0. -1.
         23    2    1    2    0    0 -0.19901970124E+03  0.44605792767E+02 -0.58052573030E+03  0.62210289392E+03  0.91669890656E+02 0.  0.
          5    1    1    2  502    0  0.17343467092E+03 -0.47854113834E+02 -0.26041604096E+03  0.31654950336E+03  0.41800000000E+01 0.  1.
         -5    1    1    2    0  502  0.25585030321E+02  0.32483210669E+01 -0.20604055652E+03  0.20769046366E+03  0.41800000000E+01 0.  1.
        -11    1    3    3    0    0  0.48549921259E+01  0.17205092600E+02 -0.49060848465E+02  0.52216405583E+02  0.00000000000E+00 0.  1.
         11    1    3    3    0    0 -0.20387469337E+03  0.27400700167E+02 -0.53146488184E+03  0.56988648834E+03  0.00000000000E+00 0. -1.
</event>
<event>
 7    1  0.4274778E-006  0.7168927E+02  0.7561462E-02  0.1354441E+00
         -1   -1    0    0    0  501 -0.00000000000E+00  0.00000000000E+00  0.10104333055E+03  0.10104333055E+03  0.00000000000E+00 0.  1.
          1   -1    0    0  501    0  0.00000000000E+00 -0.00000000000E+00 -0.14994683271E+03  0.14994683271E+03  0.00000000000E+00 0. -1.
         23    2    1    2    0    0 -0.31534498367E+02  0.69081588857E+01 -0.83068579884E+02  0.12837848339E+03  0.92403997677E+02 0.  0.
          5    1    1    2  502    0 -0.20951177509E+02  0.55768033035E+01 -0.30904808985E+02  0.37981998268E+02  0.41800000000E+01 0. -1.
         -5    1    1    2    0  502  0.52485675876E+02 -0.12484962189E+02  0.65069886706E+02  0.84629681607E+02  0.41800000000E+01 0.  1.
        -11    1    3    3    0    0 -0.25830756707E+02 -0.24298380756E+02  0.40214976389E+01  0.35690499333E+02  0.00000000000E+00 0.  1.
         11    1    3    3    0    0 -0.57037416605E+01  0.31206539642E+02 -0.87090077522E+02  0.92687984055E+02  0.00000000000E+00 0. -1.
</event>
<event>
 7    1  0.4274778E-006  0.9115254E+02  0.7561462E-02  0.1300084E+00
          1   -1    0    0  501    0  0.00000000000E+00  0.00000000000E+00  0.52557758591E+02  0.52557758591E+02  0.00000000000E+00 0. -1.
         -1   -1    0    0    0  501 -0.00000000000E+00 -0.00000000000E+00 -0.20485320325E+03  0.20485320325E+03  0.00000000000E+00 0.  1.
         23    2    1    2    0    0 -0.62178486708E+01  0.14328593372E+02 -0.55051470816E+02  0.10716844974E+03  0.90611489065E+02 0.  0.
          5    1    1    2  502    0 -0.40146584329E+02  0.49885345044E+01  0.47807115327E-01  0.40670731434E+02  0.41800000000E+01 0. -1.
         -5    1    1    2    0  502  0.46364433000E+02 -0.19317127876E+02 -0.97291780957E+02  0.10957178067E+03  0.41800000000E+01 0.  1.
        -11    1    3    3    0    0 -0.21936060721E+02  0.48714193891E+02 -0.38736021077E+02  0.65990474883E+02  0.00000000000E+00 0. -1.
         11    1    3    3    0    0  0.15718212050E+02 -0.34385600519E+02 -0.16315449738E+02  0.41177974856E+02  0.00000000000E+00 0.  1.
</event>
<event>
 7    1  0.4274778E-006  0.1401303E+03  0.7561462E-02  0.1213154E+00
         -2   -1    0    0    0  501 -0.00000000000E+00  0.00000000000E+00  0.12842849520E+03  0.12842849520E+03  0.00000000000E+00 0.  1.
          2   -1    0    0  501    0  0.00000000000E+00 -0.00000000000E+00 -0.18926133699E+03  0.18926133699E+03  0.00000000000E+00 0. -1.
         23    2    1    2    0    0 -0.57500653041E+02  0.70826870280E+02 -0.94305101008E+02  0.16065272123E+03  0.92698835527E+02 0.  0.
          5    1    1    2  502    0 -0.11077156437E+02  0.27767368704E+02 -0.55428257809E+01  0.30690804439E+02  0.41800000000E+01 0. -1.
         -5    1    1    2    0  502  0.68577809479E+02 -0.98594238984E+02  0.39015085003E+02  0.12634630652E+03  0.41800000000E+01 0.  1.
        -11    1    3    3    0    0  0.19283879761E+02  0.44888748363E+02 -0.39332575031E+02  0.62720963057E+02  0.00000000000E+00 0.  1.
         11    1    3    3    0    0 -0.76784532802E+02  0.25938121917E+02 -0.54972525977E+02  0.97931758172E+02  0.00000000000E+00 0. -1.
</event>
<event>
 7    1  0.4274778E-006  0.1500378E+03  0.7561462E-02  0.1200427E+00
          1   -1    0    0  501    0  0.00000000000E+00  0.00000000000E+00  0.56026142074E+02  0.56026142074E+02  0.00000000000E+00 0. -1.
         -1   -1    0    0    0  501 -0.00000000000E+00 -0.00000000000E+00 -0.46970205819E+03  0.46970205819E+03  0.00000000000E+00 0.  1.
         23    2    1    2    0    0 -0.10304162094E+03 -0.40320393853E+02 -0.11945184199E+03  0.18740589487E+03  0.92784250115E+02 0.  0.
          5    1    1    2  502    0  0.94128786454E+02  0.79690153407E+02 -0.19088045093E+03  0.22729621188E+03  0.41800000000E+01 0.  1.
         -5    1    1    2    0  502  0.89128344860E+01 -0.39369759554E+02 -0.10334362320E+03  0.11102609352E+03  0.41800000000E+01 0.  1.
        -11    1    3    3    0    0 -0.11254396175E+03 -0.49436380330E+02 -0.12286947851E+03  0.17380163341E+03  0.00000000000E+00 0.  1.
         11    1    3    3    0    0  0.95023408137E+01  0.91159864772E+01  0.34176365175E+01  0.13604261456E+02  0.00000000000E+00 0. -1.
</event>
<event>
 7    1  0.4274778E-006  0.4300096E+03  0.7561462E-02  0.1033857E+00
         -2   -1    0    0    0  501 -0.00000000000E+00  0.00000000000E+00  0.26965430520E+03  0.26965430520E+03  0.00000000000E+00 0.  1.
          2   -1    0    0  501    0  0.00000000000E+00 -0.00000000000E+00 -0.73307899523E+03  0.73307899523E+03  0.00000000000E+00 0. -1.
         23    2    1    2    0    0 -0.41672956977E+03 -0.97473922632E+02 -0.28687306763E+03  0.52316689490E+03  0.90789553738E+02 0.  0.
          5    1    1    2  502    0  0.82742127977E+02  0.36332298866E+02 -0.93279020969E+02  0.12994130920E+03  0.41800000000E+01 0.  1.
         -5    1    1    2    0  502  0.33398744180E+03  0.61141623766E+02 -0.83272601430E+02  0.34962509633E+03  0.41800000000E+01 0.  1.
        -11    1    3    3    0    0 -0.16659207442E+03 -0.59973291101E+02 -0.16651591620E+03  0.24305815200E+03  0.00000000000E+00 0.  1.
         11    1    3    3    0    0 -0.25013749535E+03 -0.37500631531E+02 -0.12035715143E+03  0.28010874290E+03  0.00000000000E+00 0. -1.
</event>
<event>
 7    1  0.4274778E-006  0.9085699E+02  0.7561462E-02  0.1300790E+00
          1   -1    0    0  501    0  0.00000000000E+00  0.00000000000E+00  0.47672863493E+03  0.47672863493E+03  0.00000000000E+00 0. -1.
         -1   -1    0    0    0  501 -0.00000000000E+00 -0.00000000000E+00 -0.25492055448E+02  0.25492055448E+02  0.00000000000E+00 0.  1.
         23    2    1    2    0    0  0.20259559095E+02  0.41614754980E+01  0.20043443361E+03  0.22119443490E+03  0.91242798310E+02 0.  0.
          5    1    1    2  502    0  0.37345539289E+02  0.24516608206E+02  0.38420470643E+02  0.59070790981E+02  0.41800000000E+01 0. -1.
         -5    1    1    2    0  502 -0.57605098383E+02 -0.28678083704E+02  0.21238167523E+03  0.22195546450E+03  0.41800000000E+01 0. -1.
        -11    1    3    3    0    0  0.15908853575E+02 -0.32106851493E+02  0.16974364902E+03  0.17348443134E+03  0.00000000000E+00 0. -1.
         11    1    3    3    0    0  0.43507055199E+01  0.36268326991E+02  0.30690784585E+02  0.47710003560E+02  0.00000000000E+00 0.  1.
</event>
<event>
 6    1  0.4274778E-006  0.9357522E+02  0.7561462E-02  0.1294418E+00
         -2   -1    0    0    0  501 -0.00000000000E+00  0.00000000000E+00  0.17413017141E+02  0.17413017141E+02  0.00000000000E+00 0.  1.
          2   -1    0    0  501    0  0.00000000000E+00 -0.00000000000E+00 -0.78509832742E+03  0.78509832742E+03  0.00000000000E+00 0. -1.
          5    1    1    2  502    0  0.55406093355E+02  0.14461177019E+02 -0.36578547361E+03  0.37026402191E+03  0.41800000000E+01 0. -1.
         -5    1    1    2    0  502  0.11031862301E+02  0.39768083409E+02 -0.33978331099E+02  0.53620908498E+02  0.41800000000E+01 0.  1.
        -11    1    1    2    0    0 -0.44185853648E+02 -0.22732553933E+02 -0.23648807732E+03  0.24165216611E+03  0.00000000000E+00 0. -1.
         11    1    1    2    0    0 -0.22252102008E+02 -0.31496706495E+02 -0.13143342826E+03  0.13697424805E+03  0.00000000000E+00 0.  1.
</event>
<event>
 7    1  0.4274778E-006  0.1167390E+03  0.7561462E-02  0.1248576E+00
         -1   -1    0    0    0  501 -0.00000000000E+00  0.00000000000E+00  0.20468394193E+03  0.20468394193E+03  0.00000000000E+00 0.  1.
          1   -1    0    0  501    0  0.00000000000E+00 -0.00000000000E+00 -0.69768653977E+02  0.69768653977E+02  0.00000000000E+00 0. -1.
         23    2    1    2    0    0 -0.18463788645E+02 -0.40437286242E+02  0.52723842372E+02  0.11829946351E+03  0.96119061076E+02 0.  0.
          5    1    1    2  502    0  0.54559359438E+01  0.85356211107E+02  0.57029855996E+02  0.10288501779E+03  0.41800000000E+01 0.  1.
         -5    1    1    2    0  502  0.13007852701E+02 -0.44918924865E+02  0.25161589582E+02  0.53268114602E+02  0.41800000000E+01 0.  1.
        -11    1    3    3    0    0  0.18944837947E+02 -0.56939021397E+02  0.48572571210E+02  0.77202679463E+02  0.00000000000E+00 0.  1.
         11    1    3    3    0    0 -0.37408626591E+02  0.16501735155E+02  0.41512711627E+01  0.41096784045E+02  0.00000000000E+00 0. -1.
</event>
<event>
 7    1  0.4274778E-006  0.1183222E+03  0.7561462E-02  0.1245891E+00
         -2   -1    0    0    0  501 -0.00000000000E+00  0.00000000000E+00  0.17545021751E+03  0.17545021751E+03  0.00000000000E+00 0.  1.
          2   -1    0    0  501    0  0.00000000000E+00 -0.00000000000E+00 -0.89711041922E+02  0.89711041922E+02  0.00000000000E+00 0. -1.
         23    2    1    2    0    0 -0.55908105321E+02 -0.11607517345E+02  0.40064808006E+02  0.12025997968E+03  0.97963376693E+02 0.  0.
          5    1    1    2  502    0  0.64158254687E+02  0.57120140438E+02  0.10499055042E+02  0.86641183307E+02  0.41800000000E+01 0.  1.
         -5    1    1    2    0  502 -0.82501493652E+01 -0.45512623093E+02  0.35175312542E+02  0.58260096446E+02  0.41800000000E+01 0.  1.
        -11    1    3    3    0    0 -0.13128606225E+02  0.37110414063E+02  0.39006076726E+02  0.55416758791E+02  0.00000000000E+00 0.  1.
         11    1    3    3    0    0 -0.42779499096E+02 -0.48717931408E+02  0.10587312797E+01  0.64843220891E+02  0.00000000000E+00 0. -1.
</event>
<event>
 7    1  0.4274778E-006  0.8157754E+02  0.7561462E-02  0.1324633E+00
          2   -1    0    0  501    0  0.00000000000E+00  0.00000000000E+00  0.13043806283E+02  0.13043806283E+02  0.00000000000E+00 0. -1.
         -2   -1    0    0    0  501 -0.00000000000E+00 -0.00000000000E+00 -0.10855581126E+04  0.10855581126E+04  0.00000000000E+00 0.  1.
         23    2    1    2    0    0 -0.16270956484E+02 -0.36991104404E+02 -0.33454060759E+03  0.34901141959E+03  0.90876108247E+02 0.  0.
          5    1    1    2  502    0 -0.20929360189E+02  0.21813422279E+02 -0.66872822900E+03  0.66942421540E+03  0.41800000000E+01 0.  1.
         -5    1    1    2    0  502  0.37200316672E+02  0.15177682124E+02 -0.69245469777E+02  0.80166283934E+02  0.41800000000E+01 0.  1.
        -11    1    3    3    0    0  0.17538350768E+02 -0.52275670865E+02 -0.13123911712E+03  0.14235183657E+03  0.00000000000E+00 0. -1.
         11    1    3    3    0    0 -0.33809307251E+02  0.15284566461E+02 -0.20330149047E+03  0.20665958302E+03  0.00000000000E+00 0.  1.
</event>
<event>
 7    1  0.4274778E-006  0.1654879E+03  0.7561462E-02  0.1182637E+00
          1   -1    0    0  501    0  0.00000000000E+00  0.00000000000E+00  0.87846993863E+03  0.87846993863E+03  0.00000000000E+00 0. -1.
         -1   -1    0    0    0  501 -0.00000000000E+00 -0.00000000000E+00 -0.43699853210E+02  0.43699853210E+02  0.00000000000E+00 0.  1.
         23    2    1    2    0    0 -0.10259422129E+03  0.89345016388E+02  0.60901367980E+03  0.63041462375E+03  0.89536749199E+02 0.  0.
          5    1    1    2  502    0 -0.44166474455E+01 -0.55727046647E+02  0.13903821481E+03  0.14991366876E+03  0.41800000000E+01 0.  1.
         -5    1    1    2    0  502  0.10701086873E+03 -0.33617969741E+02  0.86718190807E+02  0.14184149933E+03  0.41800000000E+01 0.  1.
        -11    1    3    3    0    0 -0.95117567855E+02  0.25615776660E+02  0.38359415543E+03  0.39604039669E+03  0.00000000000E+00 0. -1.
         11    1    3    3    0    0 -0.74766534301E+01  0.63729239728E+02  0.22541952437E+03  0.23437422706E+03  0.00000000000E+00 0.  1.
</event>
<event>
 7    1  0.4274778E-006  0.1386715E+03  0.7561462E-02  0.1215128E+00
          1   -1    0    0  501    0  0.00000000000E+00  0.00000000000E+00  0.46936071766E+02  0.46936071766E+02  0.00000000000E+00 0. -1.
         -1   -1    0    0    0  501 -0.00000000000E+00 -0.00000000000E+00 -0.41638263523E+03  0.41638263523E+03  0.00000000000E+00 0.  1.
         23    2    1    2    0    0 -0.82029014990E+02  0.31293492337E+02 -0.16826722816E+03  0.21067458241E+03  0.91443302860E+02 0.  0.
          5    1    1    2  502    0 -0.28030408112E+01 -0.61939144692E+02 -0.90956744498E+02  0.11015859682E+03  0.41800000000E+01 0.  1.
         -5    1    1    2    0  502  0.84832055802E+02  0.30645652355E+02 -0.11022259080E+03  0.14248552776E+03  0.41800000000E+01 0.  1.
        -11    1    3    3    0    0 -0.76994969244E+01  0.48089123390E+02 -0.83709186223E+02  0.96845618896E+02  0.00000000000E+00 0.  1.
         11    1    3    3    0    0 -0.74329518066E+02 -0.16795631053E+02 -0.84558041940E+02  0.11382896352E+03  0.00000000000E+00 0. -1.
</event>
<event>
 7    1  0.4274778E-006  0.1866605E+03  0.7561462E-02  0.1161508E+00
         -1   -1    0    0    0  501 -0.00000000000E+00  0.00000000000E+00  0.14530286549E+03  0.14530286549E+03  0.00000000000E+00 0.  1.
          1   -1    0    0  501    0  0.00000000000E+00 -0.00000000000E+00 -0.25862345100E+03  0.25862345100E+03  0.00000000000E+00 0. -1.
         23    2    1    2    0    0  0.26351843589E+02  0.14614369682E+03 -0.55960631589E+02  0.20146687417E+03  0.12411651509E+03 0.  0.
          5    1    1    2  502    0 -0.32950657938E+02  0.12198300933E+02 -0.65772145185E+01  0.35989950750E+02  0.41800000000E+01 0. -1.
         -5    1    1    2    0  502  0.65988143484E+01 -0.15834199775E+03 -0.50782739403E+02  0.16646949157E+03  0.41800000000E+01 0. -1.
        -11    1    3    3    0    0 -0.30878519479E+02  0.10356593118E+03 -0.70008076987E+02  0.12876535214E+03  0.00000000000E+00 0. -1.
         11    1    3    3    0    0  0.57230363068E+02  0.42577765634E+02  0.14047445398E+02  0.72701522030E+02  0.00000000000E+00 0.  1.
</event>
<event>
 7    1  0.4274778E-006  0.1280249E+03  0.7561462E-02  0.1230416E+00
          1   -1    0    0  501    0  0.00000000000E+00  0.00000000000E+00  0.21166340945E+03  0.21166340945E+03  0.00000000000E+00 0. -1.
         -1   -1    0    0    0  501 -0.00000000000E+00 -0.00000000000E+00 -0.10374786504E+03  0.10374786504E+03  0.00000000000E+00 0.  1.
         23    2    1    2    0    0 -0.84617483090E+02  0.52712596130E+02  0.68438853281E+02  0.15065719342E+03  0.89860876120E+02 0.  0.
          5    1    1    2  502    0  0.10026262058E+03 -0.76954760074E+02  0.46549059682E+02  0.13475502046E+03  0.41800000000E+01 0.  1.
         -5    1    1    2    0  502 -0.15645137486E+02  0.24242163944E+02 -0.70723685551E+01  0.29999060595E+02  0.41800000000E+01 0.  1.
        -11    1    3    3    0    0 -0.44467836269E+02  0.34828537737E+02 -0.13139464920E+02  0.57991904967E+02  0.00000000000E+00 0.  1.
         11    1    3    3    0    0 -0.40149646821E+02  0.17884058393E+02  0.81578318201E+02  0.92665288458E+02  0.00000000000E+00 0. -1.
</event>
<event>
 7    1  0.4274778E-006  0.1969984E+03  0.7561462E-02  0.1152296E+00
         -2   -1    0    0    0  501 -0.00000000000E+00  0.00000000000E+00  0.54206235367E+02  0.54206235367E+02  0.00000000000E+00 0.  1.
          2   -1    0    0  501    0  0.00000000000E+00 -0.00000000000E+00 -0.89561090978E+03  0.89561090978E+03  0.00000000000E+00 0. -1.
         23    2    1    2    0    0  0.14911741710E+02 -0.18653423504E+03 -0.36138698835E+03  0.41964588167E+03  0.10239496944E+03 0.  0.
          5    1    1    2  502    0  0.18873714759E+02  0.89785937039E+02 -0.96679166866E+02  0.13334941059E+03  0.41800000000E+01 0.  1.
         -5    1    1    2    0  502 -0.33785456469E+02  0.96748297998E+02 -0.38333851920E+03  0.39682185290E+03  0.41800000000E+01 0.  1.
        -11    1    3    3    0    0  0.34768670716E+02 -0.46006344657E+02 -0.18193082225E+03  0.19085142991E+03  0.00000000000E+00 0.  1.
         11    1    3    3    0    0 -0.19856929006E+02 -0.14052789038E+03 -0.17945616610E+03  0.22879445176E+03  0.00000000000E+00 0. -1.
</event>
<event>
 7    1  0.4274778E-006  0.2318879E+03  0.7561462E-02  0.1125318E+00
          1   -1    0    0  501    0  0.00000000000E+00  0.00000000000E+00  0.21461179745E+04  0.21461179745E+04  0.00000000000E+00 0. -1.
         -1   -1    0    0    0  501 -0.00000000000E+00 -0.00000000000E+00 -0.26164489927E+02  0.26164489927E+02  0.00000000000E+00 0.  1.
         23    2    1    2    0    0  0.13880370818E+03 -0.15613745861E+03  0.11493368318E+04  0.11715875189E+04  0.89424750933E+02 0.  0.
          5    1    1    2  502    0 -0.88321880244E+02  0.16366162096E+03  0.65309918833E+03  0.67907429851E+03  0.41800000000E+01 0.  1.
         -5    1    1    2    0  502 -0.50481827938E+02 -0.75241623526E+01  0.31751746440E+03  0.32162064699E+03  0.41800000000E+01 0.  1.
        -11    1    3    3    0    0  0.22765984136E+02 -0.90312331295E+02  0.42781791295E+03  0.43783875326E+03  0.00000000000E+00 0. -1.
         11    1    3    3    0    0  0.11603772405E+03 -0.65825127311E+02  0.72151891888E+03  0.73374876564E+03  0.00000000000E+00 0.  1.
</event>
<event>
 7    1  0.4274778E-006  0.1182054E+03  0.7561462E-02  0.1246087E+00
         -2   -1    0    0    0  501 -0.00000000000E+00  0.00000000000E+00  0.13919986924E+03  0.13919986924E+03  0.00000000000E+00 0.  1.
          2   -1    0    0  501    0  0.00000000000E+00 -0.00000000000E+00 -0.11686500311E+03  0.11686500311E+03  0.00000000000E+00 0. -1.
         23    2    1    2    0    0 -0.49245416103E+02 -0.35272668706E+02 -0.15729180347E+02  0.11196248720E+03  0.92838134732E+02 0.  0.
          5    1    1    2  502    0 -0.20320329075E+02 -0.28966828644E+02  0.33976118730E+02  0.49232529687E+02  0.41800000000E+01 0.  1.
         -5    1    1    2    0  502  0.69565745177E+02  0.64239497351E+02  0.40879277505E+01  0.94869855461E+02  0.41800000000E+01 0.  1.
        -11    1    3    3    0    0  0.27514940991E+01 -0.51465932178E+02 -0.24042777574E+02  0.56871504712E+02  0.00000000000E+00 0. -1.
         11    1    3    3    0    0 -0.51996910202E+02  0.16193263472E+02  0.83135972274E+01  0.55090982486E+02  0.00000000000E+00 0.  1.
</event>
<event>
 7    1  0.4274778E-006  0.1240938E+03  0.7561462E-02  0.1236492E+00
          1   -1    0    0  501    0  0.00000000000E+00  0.00000000000E+00  0.20339984902E+02  0.20339984902E+02  0.00000000000E+00 0. -1.
         -1   -1    0    0    0  501 -0.00000000000E+00 -0.00000000000E+00 -0.83324695598E+03  0.83324695598E+03  0.00000000000E+00 0.  1.
         23    2    1    2    0    0  0.51766911142E+02 -0.44426293156E+02 -0.29926094587E+03  0.32054461365E+03  0.92402527071E+02 0.  0.
          5    1    1    2  502    0  0.39865963799E+02  0.14300437893E+02 -0.21519696587E+03  0.21936500202E+03  0.41800000000E+01 0.  1.
         -5    1    1    2    0  502 -0.91632874941E+02  0.30125855263E+02 -0.29844905934E+03  0.31367732520E+03  0.41800000000E+01 0.  1.
        -11    1    3    3    0    0  0.33336382753E+02 -0.70014249136E+02 -0.25253824129E+03  0.26417583692E+03  0.00000000000E+00 0.  1.
         11    1    3    3    0    0  0.18430528389E+02  0.25587955979E+02 -0.46722704577E+02  0.56368776738E+02  0.00000000000E+00 0. -1.
</event>
<event>
 7    1  0.4274778E-006  0.6807047E+02  0.7561462E-02  0.1366780E+00
          1   -1    0    0  501    0  0.00000000000E+00  0.00000000000E+00  0.10477875867E+03  0.10477875867E+03  0.00000000000E+00 0. -1.
         -1   -1    0    0    0  501 -0.00000000000E+00 -0.00000000000E+00 -0.17921853271E+03  0.17921853271E+03  0.00000000000E+00 0.  1.
         23    2    1    2    0    0  0.25687896933E+02  0.20135822501E+02  0.44641950055E+02  0.10596806969E+03  0.90393631927E+02 0.  0.
          5    1    1    2  502    0  0.15921635877E+02 -0.32610173409E+01  0.23278917259E+02  0.28696918160E+02  0.41800000000E+01 0. -1.
         -5    1    1    2    0  502 -0.41609532810E+02 -0.16874805160E+02 -0.14236064135E+03  0.14933230352E+03  0.41800000000E+01 0.  1.
        -11    1    3    3    0    0 -0.20667354269E+02 -0.53727340913E+01 -0.15108210517E+02  0.26158437054E+02  0.00000000000E+00 0.  1.
         11    1    3    3    0    0  0.46355251202E+02  0.25508556592E+02  0.59750160572E+02  0.79809632638E+02  0.00000000000E+00 0. -1.
</event>
<event>
 7    1  0.4274778E-006  0.1197798E+03  0.7561462E-02  0.1243461E+00
         -1   -1    0    0    0  501 -0.00000000000E+00  0.00000000000E+00  0.10236555265E+03  0.10236555265E+03  0.00000000000E+00 0.  1.
          1   -1    0    0  501    0  0.00000000000E+00 -0.00000000000E+00 -0.19539113920E+03  0.19539113920E+03  0.00000000000E+00 0. -1.
         23    2    1    2    0    0 -0.73737535682E+02 -0.12339433483E+02 -0.94551883071E+02  0.15202005399E+03  0.92631271372E+02 0.  0.
          5    1    1    2  502    0  0.78457392552E+02  0.42808017973E+02 -0.36474783942E+02  0.96622829148E+02  0.41800000000E+01 0.  1.
         -5    1    1    2    0  502 -0.47198568703E+01 -0.30468584490E+02  0.38001080464E+02  0.49113808712E+02  0.41800000000E+01 0.  1.
        -11    1    3    3    0    0 -0.36949952637E+02  0.40348943615E+02 -0.46012870302E+02  0.71487904461E+02  0.00000000000E+00 0. -1.
         11    1    3    3    0    0 -0.36787583045E+02 -0.52688377097E+02 -0.48539012768E+02  0.80532149530E+02  0.00000000000E+00 0.  1.
</event>
<event>
 7    1  0.4274778E-006  0.1388736E+03  0.7561462E-02  0.1214853E+00
         -1   -1    0    0    0  501 -0.00000000000E+00  0.00000000000E+00  0.22880904233E+03  0.22880904233E+03  0.00000000000E+00 0.  1.
          1   -1    0    0  501    0  0.00000000000E+00 -0.00000000000E+00 -0.11653968845E+03  0.11653968845E+03  0.00000000000E+00 0. -1.
         23    2    1    2    0    0 -0.80047978637E+02  0.68150273475E+02 -0.15088974536E+02  0.13817808152E+03  0.88393248619E+02 0.  0.
          5    1    1    2  502    0  0.44338859994E+02  0.18138961024E+02 -0.13390025947E+01  0.48106358629E+02  0.41800000000E+01 0. -1.
         -5    1    1    2    0  502  0.35709118643E+02 -0.86289234499E+02  0.12869733101E+03  0.15906429063E+03  0.41800000000E+01 0. -1.
        -11    1    3    3    0    0 -0.20600805633E+02 -0.20746879989E+02 -0.10739036214E+02  0.31147281114E+02  0.00000000000E+00 0. -1.
         11    1    3    3    0    0 -0.59447173004E+02  0.88897153464E+02 -0.43499383214E+01  0.10703080041E+03  0.00000000000E+00 0.  1.
</event>
<event>
 7    1  0.4274778E-006  0.2352747E+03  0.7561462E-02  0.1122981E+00
          1   -1    0    0  501    0  0.00000000000E+00  0.00000000000E+00  0.12356420824E+03  0.12356420824E+03  0.00000000000E+00 0. -1.
         -1   -1    0    0    0  501 -0.00000000000E+00 -0.00000000000E+00 -0.49609989015E+03  0.49609989015E+03  0.00000000000E+00 0.  1.
         23    2    1    2    0    0 -0.16396902829E+03 -0.14798852738E+03 -0.13493103642E+03  0.27198353567E+03  0.83559635075E+02 0.  0.
          5    1    1    2  502    0  0.10575860736E+03  0.18275386656E+02 -0.71654719619E+02  0.12911523547E+03  0.41800000000E+01 0.  1.
         -5    1    1    2    0  502  0.58210420928E+02  0.12971314072E+03 -0.16594992586E+03  0.21856532725E+03  0.41800000000E+01 0.  1.
        -11    1    3    3    0    0 -0.12140765476E+03 -0.11164338591E+03 -0.13923760313E+03  0.21584988853E+03  0.00000000000E+00 0.  1.
         11    1    3    3    0    0 -0.42561373528E+02 -0.36345141468E+02  0.43065667094E+01  0.56133647144E+02  0.00000000000E+00 0. -1.
</event>
<event>
 7    1  0.4274778E-006  0.1331048E+03  0.7561462E-02  0.1222920E+00
          1   -1    0    0  501    0  0.00000000000E+00  0.00000000000E+00  0.97546728906E+03  0.97546728906E+03  0.00000000000E+00 0. -1.
         -1   -1    0    0    0  501 -0.00000000000E+00 -0.00000000000E+00 -0.24723019021E+02  0.24723019021E+02  0.00000000000E+00 0.  1.
         23    2    1    2    0    0  0.90518720514E+02 -0.58961939150E+02  0.51816413930E+03  0.53712254768E+03  0.91303926221E+02 0.  0.
          5    1    1    2  502    0 -0.85690029921E+02  0.22240490702E+02  0.12496611329E+03  0.15320385936E+03  0.41800000000E+01 0. -1.
         -5    1    1    2    0  502 -0.48286905937E+01  0.36721448448E+02  0.30761401745E+03  0.30986390103E+03  0.41800000000E+01 0. -1.
        -11    1    3    3    0    0  0.69952793979E+02 -0.83083400002E+02  0.37032919899E+03  0.38592740298E+03  0.00000000000E+00 0.  1.
         11    1    3    3    0    0  0.20565926535E+02  0.24121460852E+02  0.14783494031E+03  0.15119514471E+03  0.00000000000E+00 0. -1.
</event>
<event>
 7    1  0.4274778E-006  0.1250514E+03  0.7561462E-02  0.1234989E+00
          2   -1    0    0  501    0  0.00000000000E+00  0.00000000000E+00  0.46133039366E+03  0.46133039366E+03  0.00000000000E+00 0. -1.
         -2   -1    0    0    0  501 -0.00000000000E+00 -0.00000000000E+00 -0.57316091151E+02  0.57316091151E+02  0.00000000000E+00 0.  1.
         23    2    1    2    0    0 -0.92581230672E+01  0.10041047237E+03  0.29389040324E+03  0.32385788913E+03  0.91347618642E+02 0.  0.
          5    1    1    2  502    0 -0.25024020156E+02 -0.65807298489E+02 -0.39918544465E+01  0.70641414349E+02  0.41800000000E+01 0. -1.
         -5    1    1    2    0  502  0.34282143223E+02 -0.34603173879E+02  0.11411575372E+03  0.12414718133E+03  0.41800000000E+01 0. -1.
        -11    1    3    3    0    0 -0.44175498458E+02  0.76590210841E+02  0.23720870855E+03  0.25315115341E+03  0.00000000000E+00 0.  1.
         11    1    3    3    0    0  0.34917375390E+02  0.23820261528E+02  0.56681694689E+02  0.70706735721E+02  0.00000000000E+00 0. -1.
</event>
<event>
 7    1  0.4274778E-006  0.1551993E+03  0.7561462E-02  0.1194226E+00
          3   -1    0    0  501    0  0.00000000000E+00  0.00000000000E+00  0.12945446140E+03  0.12945446140E+03  0.00000000000E+00 0. -1.
         -3   -1    0    0    0  501 -0.00000000000E+00 -0.00000000000E+00 -0.27877613002E+03  0.27877613002E+03  0.00000000000E+00 0.  1.
         23    2    1    2    0    0 -0.39906943889E+02 -0.14876363810E+03 -0.44208289939E+02  0.18368864042E+03  0.89799551940E+02 0.  0.
          5    1    1    2  502    0  0.29327297542E+01  0.29581409876E+02  0.28696202459E+02  0.41528365602E+02  0.41800000000E+01 0. -1.
         -5    1    1    2    0  502  0.36974214135E+02  0.11918222823E+03 -0.13380958113E+03  0.18301358540E+03  0.41800000000E+01 0. -1.
        -11    1    3    3    0    0 -0.93077532896E+01 -0.11030594364E+02 -0.40011609214E+02  0.42535128485E+02  0.00000000000E+00 0.  1.
         11    1    3    3    0    0 -0.30599190600E+02 -0.13773304374E+03 -0.41966807244E+01  0.14115351194E+03  0.00000000000E+00 0. -1.
</event>
<event>
 7    1  0.4274778E-006  0.1339928E+03  0.7561462E-02  0.1221649E+00
          1   -1    0    0  501    0  0.00000000000E+00  0.00000000000E+00  0.35645541429E+03  0.35645541429E+03  0.00000000000E+00 0. -1.
         -1   -1    0    0    0  501 -0.00000000000E+00 -0.00000000000E+00 -0.75180969423E+02  0.75180969423E+02  0.00000000000E+00 0.  1.
         23    2    1    2    0    0  0.54659293494E+02 -0.85640365734E+02  0.22000045789E+03  0.25922983194E+03  0.92076021244E+02 0.  0.
          5    1    1    2  502    0  0.18172451515E+02  0.52732877363E+02 -0.18983014605E+02  0.59066247490E+02  0.41800000000E+01 0.  1.
         -5    1    1    2    0  502 -0.72831745008E+02  0.32907488371E+02  0.80257001581E+02  0.11334030428E+03  0.41800000000E+01 0.  1.
        -11    1    3    3    0    0 -0.22611059133E+02 -0.25688368827E+02  0.29887623439E+02  0.45435914461E+02  0.00000000000E+00 0.  1.
         11    1    3    3    0    0  0.77270352627E+02 -0.59951996907E+02  0.19011283445E+03  0.21379391748E+03  0.00000000000E+00 0. -1.
</event>
<event>
 7    1  0.4274778E-006  0.1098852E+03  0.7561462E-02  0.1260783E+00
          1   -1    0    0  501    0  0.00000000000E+00  0.00000000000E+00  0.13601051623E+03  0.13601051623E+03  0.00000000000E+00 0. -1.
         -1   -1    0    0    0  501 -0.00000000000E+00 -0.00000000000E+00 -0.11293875045E+03  0.11293875045E+03  0.00000000000E+00 0.  1.
         23    2    1    2    0    0 -0.16434025312E+02  0.58223365095E+02  0.28353591348E+02  0.10989258021E+03  0.87249158225E+02 0.  0.
          5    1    1    2  502    0  0.50990135686E+02 -0.66749675867E+02  0.29491419881E+02  0.89121991743E+02  0.41800000000E+01 0.  1.
         -5    1    1    2    0  502 -0.34556110374E+02  0.85263107720E+01 -0.34773245450E+02  0.49934694739E+02  0.41800000000E+01 0.  1.
        -11    1    3    3    0    0 -0.47781687528E+02  0.24169376798E+02  0.33747082078E+02  0.63293870056E+02  0.00000000000E+00 0. -1.
         11    1    3    3    0    0  0.31347662216E+02  0.34053988297E+02 -0.53934907306E+01  0.46598710150E+02  0.00000000000E+00 0.  1.
</event>
<event>
 7    1  0.4274778E-006  0.9531517E+02  0.7561462E-02  0.1290468E+00
          4   -1    0    0  501    0  0.00000000000E+00  0.00000000000E+00  0.17891000185E+03  0.17891000185E+03  0.00000000000E+00 0. -1.
         -4   -1    0    0    0  501 -0.00000000000E+00 -0.00000000000E+00 -0.11540295194E+03  0.11540295194E+03  0.00000000000E+00 0.  1.
         23    2    1    2    0    0 -0.40565975840E+02 -0.35581251061E+02  0.10905362622E+03  0.15066153287E+03  0.88851450590E+02 0.  0.
          5    1    1    2  502    0  0.17501635373E+02  0.77987598435E+02 -0.50980999952E+02  0.94894191111E+02  0.41800000000E+01 0. -1.
         -5    1    1    2    0  502  0.23064340467E+02 -0.42406347374E+02  0.54344236384E+01  0.48757229813E+02  0.41800000000E+01 0. -1.
        -11    1    3    3    0    0 -0.20918413027E+01 -0.20830846569E+02  0.10740224264E+03  0.10942367976E+03  0.00000000000E+00 0. -1.
         11    1    3    3    0    0 -0.38474134537E+02 -0.14750404493E+02  0.16513835799E+01  0.41237853106E+02  0.00000000000E+00 0.  1.
</event>
<event>
 7    1  0.4274778E-006  0.1223349E+03  0.7561462E-02  0.1239294E+00
         -1   -1    0    0    0  501 -0.00000000000E+00  0.00000000000E+00  0.21708005190E+02  0.21708005190E+02  0.00000000000E+00 0.  1.
          1   -1    0    0  501    0  0.00000000000E+00 -0.00000000000E+00 -0.69911316523E+03  0.69911316523E+03  0.00000000000E+00 0. -1.
         23    2    1    2    0    0 -0.23625007785E+02 -0.51605632604E+02 -0.30030199729E+03  0.31947878790E+03  0.93081276486E+02 0.  0.
          5    1    1    2  502    0  0.46399066928E+02  0.84095194581E+02 -0.23957861290E+03  0.25814774708E+03  0.41800000000E+01 0.  1.
         -5    1    1    2    0  502 -0.22774059143E+02 -0.32489561977E+02 -0.13752454985E+03  0.14319463544E+03  0.41800000000E+01 0.  1.
        -11    1    3    3    0    0 -0.56882860655E+02 -0.49342620206E+02 -0.19538938857E+03  0.20939762933E+03  0.00000000000E+00 0.  1.
         11    1    3    3    0    0  0.33257852870E+02 -0.22630123979E+01 -0.10491260873E+03  0.11008115857E+03  0.00000000000E+00 0. -1.
</event>
<event>
 7    1  0.4274778E-006  0.1964357E+03  0.7561462E-02  0.1152782E+00
          2   -1    0    0  501    0  0.00000000000E+00  0.00000000000E+00  0.51285296256E+02  0.51285296256E+02  0.00000000000E+00 0. -1.
         -2   -1    0    0    0  501 -0.00000000000E+00 -0.00000000000E+00 -0.91664262921E+03  0.91664262921E+03  0.00000000000E+00 0.  1.
         23    2    1    2    0    0  0.86319841684E+02 -0.16254340960E+03 -0.29567347285E+03  0.35632443233E+03  0.75318148224E+02 0.  0.
          5    1    1    2  502    0 -0.10002147066E+03  0.15642249559E+03 -0.39780376169E+03  0.43901890270E+03  0.41800000000E+01 0. -1.
         -5    1    1    2    0  502  0.13701628974E+02  0.61209140182E+01 -0.17188009841E+03  0.17258459043E+03  0.41800000000E+01 0. -1.
        -11    1    3    3    0    0  0.57192107185E+02 -0.14871963454E+03 -0.27559753853E+03  0.31834332106E+03  0.00000000000E+00 0. -1.
         11    1    3    3    0    0  0.29127734499E+02 -0.13823775063E+02 -0.20075934324E+02  0.37981111266E+02  0.00000000000E+00 0.  1.
</event>
<event>
 7    1  0.4274778E-006  0.8529766E+02  0.7561462E-02  0.1314656E+00
         -2   -1    0    0    0  501 -0.00000000000E+00  0.00000000000E+00  0.77022687243E+02  0.77022687243E+02  0.00000000000E+00 0. -1.
          2   -1    0    0  501    0  0.00000000000E+00 -0.00000000000E+00 -0.17487031968E+03  0.17487031968E+03  0.00000000000E+00 0.  1.
         23    2    1    2    0    0 -0.30937318714E+02 -0.22658610111E+02 -0.52669344259E+02  0.11352350745E+03  0.92967718154E+02 0.  0.
          5    1    1    2  502    0  0.68665793951E+02  0.45201093890E+02 -0.12088478848E+02  0.83196958290E+02  0.41800000000E+01 0.  1.
         -5    1    1    2    0  502 -0.37728475238E+02 -0.22542483779E+02 -0.33089809329E+02  0.55172541178E+02  0.41800000000E+01 0.  1.
        -11    1    3    3    0    0 -0.16992958179E+02  0.61230780115E+00  0.25573697690E+02  0.30710740174E+02  0.00000000000E+00 0. -1.
         11    1    3    3    0    0 -0.13944360535E+02 -0.23270917912E+02 -0.78243041949E+02  0.82812767280E+02  0.00000000000E+00 0.  1.
</event>
<event>
 7    1  0.4274778E-006  0.1635778E+03  0.7561462E-02  0.1184716E+00
         -1   -1    0    0    0  501 -0.00000000000E+00  0.00000000000E+00  0.40282718157E+02  0.40282718157E+02  0.00000000000E+00 0.  1.
          1   -1    0    0  501    0  0.00000000000E+00 -0.00000000000E+00 -0.76073702066E+03  0.76073702066E+03  0.00000000000E+00 0. -1.
         23    2    1    2    0    0  0.80975114444E+02 -0.10272503077E+03 -0.43348686573E+03  0.46174508068E+03  0.90488980929E+02 0.  0.
          5    1    1    2  502    0 -0.28036443755E+02  0.12013094872E+03 -0.21790338494E+03  0.25043331365E+03  0.41800000000E+01 0.  1.
         -5    1    1    2    0  502 -0.52938670689E+02 -0.17405917944E+02 -0.69064051832E+02  0.88841344482E+02  0.41800000000E+01 0.  1.
        -11    1    3    3    0    0  0.38573903472E+02 -0.97829232512E+02 -0.21758474697E+03  0.24166428548E+03  0.00000000000E+00 0.  1.
         11    1    3    3    0    0  0.42401210972E+02 -0.48957982601E+01 -0.21590211876E+03  0.22008079520E+03  0.00000000000E+00 0. -1.
</event>
<event>
 7    1  0.4274778E-006  0.8705334E+02  0.7561462E-02  0.1310149E+00
         -2   -1    0    0    0  501 -0.00000000000E+00  0.00000000000E+00  0.27209796645E+03  0.27209796645E+03  0.00000000000E+00 0.  1.
          2   -1    0    0  501    0  0.00000000000E+00 -0.00000000000E+00 -0.55056080289E+02  0.55056080289E+02  0.00000000000E+00 0. -1.
         23    2    1    2    0    0  0.75632457796E+01 -0.36504958267E+02  0.41641167712E+02  0.10851925812E+03  0.93019502631E+02 0.  0.
          5    1    1    2  502    0 -0.32698177130E+02 -0.35566476908E+02  0.10062497569E+03  0.11170050671E+03  0.41800000000E+01 0. -1.
         -5    1    1    2    0  502  0.25134931350E+02  0.72071435175E+02  0.74775742765E+02  0.10693428191E+03  0.41800000000E+01 0. -1.
        -11    1    3    3    0    0  0.14467413539E+02 -0.27626793328E+01 -0.27544352830E+02  0.31235073626E+02  0.00000000000E+00 0. -1.
         11    1    3    3    0    0 -0.69041677594E+01 -0.33742278934E+02  0.69185520542E+02  0.77284184493E+02  0.00000000000E+00 0.  1.
</event>
<event>
 7    1  0.4274778E-006  0.1621788E+03  0.7561462E-02  0.1186259E+00
          1   -1    0    0  501    0  0.00000000000E+00  0.00000000000E+00  0.15688577949E+04  0.15688577949E+04  0.00000000000E+00 0. -1.
         -1   -1    0    0    0  501 -0.00000000000E+00 -0.00000000000E+00 -0.20524211525E+02  0.20524211525E+02  0.00000000000E+00 0.  1.
         23    2    1    2    0    0  0.37739671667E+02 -0.13331540392E+03  0.88711154458E+03  0.90231394558E+03  0.89477841543E+02 0.  0.
          5    1    1    2  502    0  0.19351125162E+02  0.20984349092E+01  0.14342587546E+02  0.24536741666E+02  0.41800000000E+01 0.  1.
         -5    1    1    2    0  502 -0.57090796828E+02  0.13121696901E+03  0.64687945125E+03  0.66253131917E+03  0.41800000000E+01 0.  1.
        -11    1    3    3    0    0  0.83525259387E+01 -0.13158680367E+03  0.78682873279E+03  0.79779966553E+03  0.00000000000E+00 0. -1.
         11    1    3    3    0    0  0.29387145728E+02 -0.17286002534E+01  0.10028281179E+03  0.10451428005E+03  0.00000000000E+00 0.  1.
</event>
<event>
 7    1  0.4274778E-006  0.9917665E+02  0.7561462E-02  0.1282037E+00
          2   -1    0    0  501    0  0.00000000000E+00  0.00000000000E+00  0.21553406870E+03  0.21553406870E+03  0.00000000000E+00 0. -1.
         -2   -1    0    0    0  501 -0.00000000000E+00 -0.00000000000E+00 -0.67362252045E+02  0.67362252045E+02  0.00000000000E+00 0.  1.
         23    2    1    2    0    0  0.67589376750E+01  0.32653442832E+01  0.12534064429E+03  0.15551909161E+03  0.91758187818E+02 0.  0.
          5    1    1    2  502    0  0.32798788106E+02  0.46276357212E+02  0.28451803774E+02  0.63594333678E+02  0.41800000000E+01 0.  1.
         -5    1    1    2    0  502 -0.39557725781E+02 -0.49541701495E+02 -0.56206314064E+01  0.63782895461E+02  0.41800000000E+01 0.  1.
        -11    1    3    3    0    0 -0.82475221192E+01 -0.35463174843E+02  0.18397625817E+02  0.40793762106E+02  0.00000000000E+00 0.  1.
         11    1    3    3    0    0  0.15006459794E+02  0.38728519126E+02  0.10694301847E+03  0.11472532950E+03  0.00000000000E+00 0. -1.
</event>
<event>
 7    1  0.4274778E-006  0.8863049E+02  0.7561462E-02  0.1306202E+00
          1   -1    0    0  501    0  0.00000000000E+00  0.00000000000E+00  0.66183445278E+03  0.66183445278E+03  0.00000000000E+00 0. -1.
         -1   -1    0    0    0  501 -0.00000000000E+00 -0.00000000000E+00 -0.27770987838E+02  0.27770987838E+02  0.00000000000E+00 0.  1.
         23    2    1    2    0    0 -0.18886302063E+02 -0.75255683766E+02  0.34482968038E+03  0.36506908916E+03  0.91366410889E+02 0.  0.
          5    1    1    2  502    0 -0.21755611816E+02  0.33965437090E+02  0.25266114329E+03  0.25589467226E+03  0.41800000000E+01 0. -1.
         -5    1    1    2    0  502  0.40641913879E+02  0.41290246677E+02  0.36572641266E+02  0.68641679201E+02  0.41800000000E+01 0. -1.
        -11    1    3    3    0    0 -0.20671818558E+02 -0.64867358691E+02  0.34757239098E+03  0.35417744886E+03  0.00000000000E+00 0. -1.
         11    1    3    3    0    0  0.17855164949E+01 -0.10388325075E+02 -0.27427105960E+01  0.10891640301E+02  0.00000000000E+00 0.  1.
</event>
<event>
 7    1  0.4274778E-006  0.3480520E+03  0.7561462E-02  0.1063417E+00
          2   -1    0    0  501    0  0.00000000000E+00  0.00000000000E+00  0.13647134334E+04  0.13647134334E+04  0.00000000000E+00 0. -1.
         -2   -1    0    0    0  501 -0.00000000000E+00 -0.00000000000E+00 -0.96558727534E+02  0.96558727534E+02  0.00000000000E+00 0.  1.
         23    2    1    2    0    0 -0.80001314908E+02  0.32799578370E+03  0.77871049688E+03  0.85366718291E+03  0.91521454964E+02 0.  0.
          5    1    1    2  502    0  0.39032541662E+02 -0.25684096455E+02  0.11758962282E+03  0.12660175321E+03  0.41800000000E+01 0.  1.
         -5    1    1    2    0  502  0.40968773246E+02 -0.30231168724E+03  0.37185458613E+03  0.48100322478E+03  0.41800000000E+01 0.  1.
        -11    1    3    3    0    0 -0.77942652919E+02  0.18087662461E+03  0.36789764735E+03  0.41730095782E+03  0.00000000000E+00 0.  1.
         11    1    3    3    0    0 -0.20586619894E+01  0.14711915909E+03  0.41081284952E+03  0.43636622508E+03  0.00000000000E+00 0. -1.
</event>
<event>
 7    1  0.4274778E-006  0.1059309E+03  0.7561462E-02  0.1268296E+00
         -1   -1    0    0    0  501 -0.00000000000E+00  0.00000000000E+00  0.89344580862E+03  0.89344580862E+03  0.00000000000E+00 0.  1.
          1   -1    0    0  501    0  0.00000000000E+00 -0.00000000000E+00 -0.16423598549E+02  0.16423598549E+02  0.00000000000E+00 0. -1.
         23    2    1    2    0    0  0.15878771445E+02  0.31269608963E+02  0.23141713097E+03  0.25132291633E+03  0.91539040525E+02 0.  0.
          5    1    1    2  502    0  0.33868537874E+02  0.33157008972E+02  0.27487284869E+03  0.27896060734E+03  0.41800000000E+01 0.  1.
         -5    1    1    2    0  502 -0.49747309319E+02 -0.64426617936E+02  0.37073223041E+03  0.37958588350E+03  0.41800000000E+01 0.  1.
        -11    1    3    3    0    0 -0.27339243333E+02  0.28464358722E+02  0.17914208984E+03  0.18343811571E+03  0.00000000000E+00 0.  1.
         11    1    3    3    0    0  0.43218014778E+02  0.28052502412E+01  0.52275041130E+02  0.67884800622E+02  0.00000000000E+00 0. -1.
</event>
<event>
 7    1  0.4274778E-006  0.1597113E+03  0.7561462E-02  0.1189023E+00
         -1   -1    0    0    0  501 -0.00000000000E+00  0.00000000000E+00  0.19548896693E+03  0.19548896693E+03  0.00000000000E+00 0.  1.
          1   -1    0    0  501    0  0.00000000000E+00 -0.00000000000E+00 -0.17790936787E+03  0.17790936787E+03  0.00000000000E+00 0. -1.
         23    2    1    2    0    0  0.10137943843E+03 -0.10517980361E+03 -0.30860454057E+02  0.17507922699E+03  0.91431867931E+02 0.  0.
          5    1    1    2  502    0 -0.70923810331E+02  0.63456771627E+02  0.90635787363E+02  0.13148865764E+03  0.41800000000E+01 0. -1.
         -5    1    1    2    0  502 -0.30455628103E+02  0.41723031985E+02 -0.42195734247E+02  0.66830450169E+02  0.41800000000E+01 0. -1.
        -11    1    3    3    0    0  0.31170524774E+02 -0.96722935915E+02 -0.18133576599E+02  0.10322671431E+03  0.00000000000E+00 0.  1.
         11    1    3    3    0    0  0.70208913661E+02 -0.84568676971E+01 -0.12726877457E+02  0.71852512680E+02  0.00000000000E+00 0. -1.
</event>
<event>
 7    1  0.4274778E-006  0.1154898E+03  0.7561462E-02  0.1250729E+00
         -1   -1    0    0    0  501 -0.00000000000E+00  0.00000000000E+00  0.35265777099E+03  0.35265777099E+03  0.00000000000E+00 0.  1.
          1   -1    0    0  501    0  0.00000000000E+00 -0.00000000000E+00 -0.53677640445E+02  0.53677640445E+02  0.00000000000E+00 0. -1.
         23    2    1    2    0    0 -0.23062900323E+02 -0.52998046977E+02  0.45324227678E+02  0.11766728412E+03  0.91927220030E+02 0.  0.
          5    1    1    2  502    0  0.57650971119E+02 -0.16228917551E+02  0.11957592072E+03  0.13380166461E+03  0.41800000000E+01 0. -1.
         -5    1    1    2    0  502 -0.34588070797E+02  0.69226964529E+02  0.13407998215E+03  0.15486646271E+03  0.41800000000E+01 0. -1.
        -11    1    3    3    0    0 -0.28864224390E+02 -0.69872039150E+02  0.76551935311E+01  0.75985836131E+02  0.00000000000E+00 0. -1.
         11    1    3    3    0    0  0.58013240667E+01  0.16873992172E+02  0.37669034147E+02  0.41681447988E+02  0.00000000000E+00 0.  1.
</event>
<event>
 7    1  0.4274778E-006  0.8283282E+02  0.7561462E-02  0.1321199E+00
         -2   -1    0    0    0  501 -0.00000000000E+00  0.00000000000E+00  0.21119223007E+03  0.21119223007E+03  0.00000000000E+00 0.  1.
          2   -1    0    0  501    0  0.00000000000E+00 -0.00000000000E+00 -0.73985674571E+02  0.73985674571E+02  0.00000000000E+00 0. -1.
         23    2    1    2    0    0 -0.27921077450E+01  0.43137411100E+01 -0.98771732046E+00  0.98706466663E+02  0.98567675977E+02 0.  0.
          5    1    1    2  502    0  0.74525052059E+01 -0.61834226334E+02  0.45668868932E+02  0.77344226479E+02  0.41800000000E+01 0.  1.
         -5    1    1    2    0  502 -0.46603974609E+01  0.57520485224E+02  0.92525403884E+02  0.10912721150E+03  0.41800000000E+01 0.  1.
        -11    1    3    3    0    0 -0.70981300576E+01  0.24105529655E+02 -0.44278202295E+02  0.50911876893E+02  0.00000000000E+00 0. -1.
         11    1    3    3    0    0  0.43060223126E+01 -0.19791788545E+02  0.43290484974E+02  0.47794589770E+02  0.00000000000E+00 0.  1.
</event>
<event>
 7    1  0.4274778E-006  0.1127294E+03  0.7561462E-02  0.1255597E+00
          2   -1    0    0  501    0  0.00000000000E+00  0.00000000000E+00  0.39663842591E+03  0.39663842591E+03  0.00000000000E+00 0. -1.
         -2   -1    0    0    0  501 -0.00000000000E+00 -0.00000000000E+00 -0.11611115317E+03  0.11611115317E+03  0.00000000000E+00 0.  1.
         23    2    1    2    0    0  0.41282213759E+02  0.75840380618E+02  0.33018290287E+03  0.35283569049E+03  0.89533740181E+02 0.  0.
          5    1    1    2  502    0 -0.66251757563E+02 -0.76130229434E+02 -0.73668893614E+02  0.12501874060E+03  0.41800000000E+01 0.  1.
         -5    1    1    2    0  502  0.24969543804E+02  0.28984881631E+00  0.24013263482E+02  0.34895147989E+02  0.41800000000E+01 0.  1.
        -11    1    3    3    0    0 -0.11170760206E+02  0.16586189725E+02  0.87903751195E+01  0.21843952662E+02  0.00000000000E+00 0.  1.
         11    1    3    3    0    0  0.52452973966E+02  0.59254190893E+02  0.32139252775E+03  0.33099173783E+03  0.00000000000E+00 0. -1.
</event>
<event>
 7    1  0.4274778E-006  0.1190121E+03  0.7561462E-02  0.1244736E+00
          2   -1    0    0  501    0  0.00000000000E+00  0.00000000000E+00  0.93870473694E+02  0.93870473694E+02  0.00000000000E+00 0. -1.
         -2   -1    0    0    0  501 -0.00000000000E+00 -0.00000000000E+00 -0.18227606761E+03  0.18227606761E+03  0.00000000000E+00 0.  1.
         23    2    1    2    0    0 -0.85325001129E-01 -0.66221453647E+02 -0.76924240888E+01  0.11321296852E+03  0.91502539031E+02 0.  0.
          5    1    1    2  502    0 -0.51264621466E+02  0.49796026356E+02 -0.75949910869E+01  0.71992096403E+02  0.41800000000E+01 0.  1.
         -5    1    1    2    0  502  0.51349946467E+02  0.16425427291E+02 -0.73118178736E+02  0.90941476376E+02  0.41800000000E+01 0.  1.
        -11    1    3    3    0    0  0.42894947654E+02 -0.14881115712E+02 -0.87987543330E+01  0.46247618500E+02  0.00000000000E+00 0.  1.
         11    1    3    3    0    0 -0.42980272655E+02 -0.51340337934E+02  0.11063302442E+01  0.66965350020E+02  0.00000000000E+00 0. -1.
</event>
<event>
 7    1  0.4274778E-006  0.2671636E+03  0.7561462E-02  0.1102914E+00
          2   -1    0    0  501    0  0.00000000000E+00  0.00000000000E+00  0.26725236774E+03  0.26725236774E+03  0.00000000000E+00 0. -1.
         -2   -1    0    0    0  501 -0.00000000000E+00 -0.00000000000E+00 -0.29303377432E+03  0.29303377432E+03  0.00000000000E+00 0.  1.
         23    2    1    2    0    0 -0.14874037314E+03 -0.19068753986E+03  0.40178200846E+02  0.26156482773E+03  0.91194488989E+02 0.  0.
          5    1    1    2  502    0  0.12699143274E+02 -0.26266928154E+02  0.10740838866E+02  0.31369695154E+02  0.41800000000E+01 0. -1.
         -5    1    1    2    0  502  0.13604122986E+03  0.21695446801E+03 -0.76700446294E+02  0.26735161917E+03  0.41800000000E+01 0.  1.
        -11    1    3    3    0    0 -0.12215176111E+03 -0.11216063088E+03 -0.73577752833E+01  0.16599758046E+03  0.00000000000E+00 0.  1.
         11    1    3    3    0    0 -0.26588612027E+02 -0.78526908982E+02  0.47535976129E+02  0.95567247268E+02  0.00000000000E+00 0. -1.
</event>
<event>
 7    1  0.4274778E-006  0.9477422E+02  0.7561462E-02  0.1291685E+00
         -1   -1    0    0    0  501 -0.00000000000E+00  0.00000000000E+00  0.12372152614E+03  0.12372152614E+03  0.00000000000E+00 0.  1.
          1   -1    0    0  501    0  0.00000000000E+00 -0.00000000000E+00 -0.16359359534E+03  0.16359359534E+03  0.00000000000E+00 0. -1.
         23    2    1    2    0    0  0.48394527977E+02  0.44898541858E+02 -0.82272369969E+02  0.13965880558E+03  0.91531031434E+02 0.  0.
          5    1    1    2  502    0 -0.58881543886E+02 -0.72212045367E+02 -0.31911449052E+01  0.93323477819E+02  0.41800000000E+01 0.  1.
         -5    1    1    2    0  502  0.10487015908E+02  0.27313503509E+02  0.45591445674E+02  0.54332838093E+02  0.41800000000E+01 0.  1.
        -11    1    3    3    0    0  0.24508433427E+02  0.29289950294E+02 -0.99327350583E+02  0.10641657329E+03  0.00000000000E+00 0. -1.
         11    1    3    3    0    0  0.23886094551E+02  0.15608591565E+02  0.17054980614E+02  0.33242232285E+02  0.00000000000E+00 0.  1.
</event>
<event>
 7    1  0.4274778E-006  0.1267919E+03  0.7561462E-02  0.1232295E+00
         -2   -1    0    0    0  501 -0.00000000000E+00  0.00000000000E+00  0.29265230807E+03  0.29265230807E+03  0.00000000000E+00 0. -1.
          2   -1    0    0  501    0  0.00000000000E+00 -0.00000000000E+00 -0.67256425643E+02  0.67256425643E+02  0.00000000000E+00 0.  1.
         23    2    1    2    0    0  0.66771883405E+02  0.35185265272E+02  0.50917883878E+02  0.13234389123E+03  0.96050962204E+02 0.  0.
          5    1    1    2  502    0 -0.76691779210E+02  0.20763088047E+02  0.13983388136E+03  0.16088418692E+03  0.41800000000E+01 0. -1.
         -5    1    1    2    0  502  0.99198958052E+01 -0.55948353319E+02  0.34644117193E+02  0.66680655576E+02  0.41800000000E+01 0. -1.
        -11    1    3    3    0    0  0.20630461311E+02  0.60846994621E+02  0.46601431770E+02  0.79370436129E+02  0.00000000000E+00 0. -1.
         11    1    3    3    0    0  0.46141422094E+02 -0.25661729349E+02  0.43164521085E+01  0.52973455096E+02  0.00000000000E+00 0.  1.
</event>
<event>
 7    1  0.4274778E-006  0.1162304E+03  0.7561462E-02  0.1249449E+00
          1   -1    0    0  501    0  0.00000000000E+00  0.00000000000E+00  0.10760884112E+03  0.10760884112E+03  0.00000000000E+00 0. -1.
         -1   -1    0    0    0  501 -0.00000000000E+00 -0.00000000000E+00 -0.16300697772E+03  0.16300697772E+03  0.00000000000E+00 0.  1.
         23    2    1    2    0    0  0.68395004390E+02  0.32626510244E+02 -0.10895794565E+02  0.11774178778E+03  0.89454147213E+02 0.  0.
          5    1    1    2  502    0  0.17222880129E+02 -0.49428221831E+02 -0.38890283622E+02  0.65342966519E+02  0.41800000000E+01 0.  1.
         -5    1    1    2    0  502 -0.85617884520E+02  0.16801711587E+02 -0.56120584116E+01  0.87531064551E+02  0.41800000000E+01 0.  1.
        -11    1    3    3    0    0 -0.90380204908E+01  0.53538324639E+01 -0.31411658718E+02  0.33121618920E+02  0.00000000000E+00 0.  1.
         11    1    3    3    0    0  0.77433024881E+02  0.27272677780E+02  0.20515864153E+02  0.84620168857E+02  0.00000000000E+00 0. -1.
</event>
<event>
 7    1  0.4274778E-006  0.9647868E+02  0.7561462E-02  0.1287880E+00
          1   -1    0    0  501    0  0.00000000000E+00  0.00000000000E+00  0.85856599907E+02  0.85856599907E+02  0.00000000000E+00 0. -1.
         -1   -1    0    0    0  501 -0.00000000000E+00 -0.00000000000E+00 -0.16336944279E+03  0.16336944279E+03  0.00000000000E+00 0.  1.
         23    2    1    2    0    0 -0.30777746839E+02  0.24295519642E+02 -0.64496723018E+01  0.10011283668E+03  0.91888191956E+02 0.  0.
          5    1    1    2  502    0 -0.14011745848E+02 -0.42798257609E+02 -0.86895358254E+02  0.97960683757E+02  0.41800000000E+01 0. -1.
         -5    1    1    2    0  502  0.44789492686E+02  0.18502737967E+02  0.15832187668E+02  0.51152522261E+02  0.41800000000E+01 0. -1.
        -11    1    3    3    0    0 -0.35563307129E+02 -0.28810113543E+02  0.33808972823E+01  0.45893375587E+02  0.00000000000E+00 0.  1.
         11    1    3    3    0    0  0.47855602906E+01  0.53105633185E+02 -0.98305695841E+01  0.54219461097E+02  0.00000000000E+00 0. -1.
</event>
<event>
 7    1  0.4274778E-006  0.2447022E+03  0.7561462E-02  0.1116699E+00
          2   -1    0    0  501    0  0.00000000000E+00  0.00000000000E+00  0.65160904919E+03  0.65160904919E+03  0.00000000000E+00 0. -1.
         -2   -1    0    0    0  501 -0.00000000000E+00 -0.00000000000E+00 -0.14384421510E+03  0.14384421510E+03  0.00000000000E+00 0.  1.
         23    2    1    2    0    0  0.16938541270E+03  0.15417008438E+03  0.47136821709E+03  0.53195552531E+03  0.91262543652E+02 0.  0.
          5    1    1    2  502    0 -0.48311612758E+02 -0.98104975806E+02 -0.31299768362E+02  0.11382331090E+03  0.41800000000E+01 0.  1.
         -5    1    1    2    0  502 -0.12107379994E+03 -0.56065108573E+02  0.67696385350E+02  0.14967442808E+03  0.41800000000E+01 0.  1.
        -11    1    3    3    0    0  0.15023147081E+03  0.80662103026E+02  0.31999738385E+03  0.36259370562E+03  0.00000000000E+00 0.  1.
         11    1    3    3    0    0  0.19153941888E+02  0.73507981352E+02  0.15137083324E+03  0.16936181969E+03  0.00000000000E+00 0. -1.
</event>
<event>
 7    1  0.4274778E-006  0.9787352E+02  0.7561462E-02  0.1284832E+00
          2   -1    0    0  501    0  0.00000000000E+00  0.00000000000E+00  0.17663512718E+04  0.17663512718E+04  0.00000000000E+00 0. -1.
         -2   -1    0    0    0  501 -0.00000000000E+00 -0.00000000000E+00 -0.93833496990E+01  0.93833496990E+01  0.00000000000E+00 0.  1.
         23    2    1    2    0    0 -0.21136927568E+02 -0.57233293186E+02  0.61909511929E+03  0.62937840468E+03  0.95477693674E+02 0.  0.
          5    1    1    2  502    0 -0.19008842472E+02  0.14381368901E+02  0.38935172832E+02  0.45842992344E+02  0.41800000000E+01 0. -1.
         -5    1    1    2    0  502  0.40145770040E+02  0.42851924285E+02  0.10989376300E+04  0.11005132245E+04  0.41800000000E+01 0. -1.
        -11    1    3    3    0    0 -0.82404129359E+00  0.26502255435E+02  0.11937257290E+03  0.12228188643E+03  0.00000000000E+00 0. -1.
         11    1    3    3    0    0 -0.20312886274E+02 -0.83735548621E+02  0.49972254639E+03  0.50709651825E+03  0.00000000000E+00 0.  1.
</event>
<event>
 7    1  0.4274778E-006  0.1005017E+03  0.7561462E-02  0.1279244E+00
          2   -1    0    0  501    0  0.00000000000E+00  0.00000000000E+00  0.13615041731E+03  0.13615041731E+03  0.00000000000E+00 0. -1.
         -2   -1    0    0    0  501 -0.00000000000E+00 -0.00000000000E+00 -0.13031134427E+03  0.13031134427E+03  0.00000000000E+00 0.  1.
         23    2    1    2    0    0 -0.19968810176E+02  0.26622539333E+01  0.76574188894E+02  0.12135488603E+03  0.91964998682E+02 0.  0.
          5    1    1    2  502    0 -0.44406028255E+02  0.29012077168E+02 -0.41678541911E+02  0.67588232872E+02  0.41800000000E+01 0.  1.
         -5    1    1    2    0  502  0.64374838431E+02 -0.31674331101E+02 -0.29056573938E+02  0.77518642679E+02  0.41800000000E+01 0.  1.
        -11    1    3    3    0    0  0.77170671253E+01 -0.31227948480E+02 -0.11169109861E+01  0.32186726790E+02  0.00000000000E+00 0.  1.
         11    1    3    3    0    0 -0.27685877301E+02  0.33890202414E+02  0.77691099880E+02  0.89168159240E+02  0.00000000000E+00 0. -1.
</event>
<event>
 7    1  0.4274778E-006  0.8800237E+02  0.7561462E-02  0.1307763E+00
          4   -1    0    0  501    0  0.00000000000E+00  0.00000000000E+00  0.55571874589E+02  0.55571874589E+02  0.00000000000E+00 0. -1.
         -4   -1    0    0    0  501 -0.00000000000E+00 -0.00000000000E+00 -0.23924004732E+03  0.23924004732E+03  0.00000000000E+00 0.  1.
         23    2    1    2    0    0  0.71057956154E+01 -0.32952664386E+02 -0.50534675305E+02  0.10904505515E+03  0.90557717631E+02 0.  0.
          5    1    1    2  502    0  0.36030269312E+02 -0.41282960230E+01  0.45006391254E+01  0.36782486149E+02  0.41800000000E+01 0.  1.
         -5    1    1    2    0  502 -0.43136064927E+02  0.37080960409E+02 -0.13763413655E+03  0.14898438061E+03  0.41800000000E+01 0.  1.
        -11    1    3    3    0    0  0.40878591505E+02 -0.24459855840E+02 -0.56296730955E+02  0.73747309831E+02  0.00000000000E+00 0.  1.
         11    1    3    3    0    0 -0.33772795889E+02 -0.84928085451E+01  0.57620556495E+01  0.35297745317E+02  0.00000000000E+00 0. -1.
</event>
<event>
 7    1  0.4274778E-006  0.9658788E+02  0.7561462E-02  0.1287639E+00
          2   -1    0    0  501    0  0.00000000000E+00  0.00000000000E+00  0.11300106732E+03  0.11300106732E+03  0.00000000000E+00 0. -1.
         -2   -1    0    0    0  501 -0.00000000000E+00 -0.00000000000E+00 -0.17278233346E+03  0.17278233346E+03  0.00000000000E+00 0.  1.
         23    2    1    2    0    0 -0.83658751270E+02  0.84246615082E+00  0.64438263015E+00  0.12361586812E+03  0.90999841802E+02 0.  0.
          5    1    1    2  502    0  0.47940178491E+02 -0.27144426013E+02 -0.92170135452E+02  0.10746109457E+03  0.41800000000E+01 0.  1.
         -5    1    1    2    0  502  0.35718572779E+02  0.26301959862E+02  0.31744486678E+02  0.54706438089E+02  0.41800000000E+01 0.  1.
        -11    1    3    3    0    0 -0.60021988272E+02  0.19659265528E+02 -0.38652012550E+02  0.74047983574E+02  0.00000000000E+00 0.  1.
         11    1    3    3    0    0 -0.23636762998E+02 -0.18816799377E+02  0.39296395181E+02  0.49567884542E+02  0.00000000000E+00 0. -1.
</event>
<event>
 7    1  0.4274778E-006  0.1036767E+03  0.7561462E-02  0.1272749E+00
         -1   -1    0    0    0  501 -0.00000000000E+00  0.00000000000E+00  0.11098411107E+03  0.11098411107E+03  0.00000000000E+00 0.  1.
          1   -1    0    0  501    0  0.00000000000E+00 -0.00000000000E+00 -0.13026496030E+03  0.13026496030E+03  0.00000000000E+00 0. -1.
         23    2    1    2    0    0 -0.30231354609E+02  0.41701585647E+02 -0.15999678445E+02  0.10593091047E+03  0.91172424759E+02 0.  0.
          5    1    1    2  502    0  0.46218212530E+02 -0.77764275802E+02 -0.19205684674E+02  0.92572871211E+02  0.41800000000E+01 0.  1.
         -5    1    1    2    0  502 -0.15986857921E+02  0.36062690155E+02  0.15924513884E+02  0.42745289680E+02  0.41800000000E+01 0.  1.
        -11    1    3    3    0    0 -0.25746924145E+02  0.56271551736E+02 -0.42700586056E+02  0.75184650609E+02  0.00000000000E+00 0.  1.
         11    1    3    3    0    0 -0.44844304640E+01 -0.14569966089E+02  0.26700907611E+02  0.30746259865E+02  0.00000000000E+00 0. -1.
</event>
<event>
 7    1  0.4274778E-006  0.1344703E+03  0.7561462E-02  0.1220969E+00
          1   -1    0    0  501    0  0.00000000000E+00  0.00000000000E+00  0.37899512842E+02  0.37899512842E+02  0.00000000000E+00 0. -1.
         -1   -1    0    0    0  501 -0.00000000000E+00 -0.00000000000E+00 -0.72288138706E+03  0.72288138706E+03  0.00000000000E+00 0.  1.
         23    2    1    2    0    0 -0.93443224556E+02  0.86448396113E+02 -0.28333516263E+03  0.32126578251E+03  0.82023943014E+02 0.  0.
          5    1    1    2  502    0  0.13697503490E+02 -0.30811494811E+02 -0.92288013409E+01  0.35208138101E+02  0.41800000000E+01 0.  1.
         -5    1    1    2    0  502  0.79745721066E+02 -0.55636901302E+02 -0.39241791025E+03  0.40430697929E+03  0.41800000000E+01 0.  1.
        -11    1    3    3    0    0 -0.31452898006E+02  0.64705217552E+02 -0.21391810354E+03  0.22569227943E+03  0.00000000000E+00 0.  1.
         11    1    3    3    0    0 -0.61990326550E+02  0.21743178561E+02 -0.69417059086E+02  0.95573503084E+02  0.00000000000E+00 0. -1.
</event>
<event>
 7    1  0.4274778E-006  0.8977520E+02  0.7561462E-02  0.1303397E+00
          2   -1    0    0  501    0  0.00000000000E+00  0.00000000000E+00  0.11279192592E+04  0.11279192592E+04  0.00000000000E+00 0. -1.
         -2   -1    0    0    0  501 -0.00000000000E+00 -0.00000000000E+00 -0.14229106876E+02  0.14229106876E+02  0.00000000000E+00 0.  1.
         23    2    1    2    0    0 -0.59802733695E+02  0.21703534567E+02  0.42954501715E+03  0.44375667347E+03  0.91453010467E+02 0.  0.
          5    1    1    2  502    0  0.56310006329E+02 -0.10912327830E+02  0.11006253683E+03  0.12418184298E+03  0.41800000000E+01 0. -1.
         -5    1    1    2    0  502  0.34927273654E+01 -0.10791206737E+02  0.57408259829E+03  0.57420984958E+03  0.41800000000E+01 0. -1.
        -11    1    3    3    0    0  0.12039977951E+02  0.34890684187E+02  0.17980055188E+03  0.18354988250E+03  0.00000000000E+00 0.  1.
         11    1    3    3    0    0 -0.71842711645E+02 -0.13187149620E+02  0.24974446528E+03  0.26020679097E+03  0.00000000000E+00 0. -1.
</event>
<event>
 7    1  0.4274778E-006  0.1581419E+03  0.7561462E-02  0.1190811E+00
         -1   -1    0    0    0  501 -0.00000000000E+00  0.00000000000E+00  0.62700187059E+03  0.62700187059E+03  0.00000000000E+00 0.  1.
          1   -1    0    0  501    0  0.00000000000E+00 -0.00000000000E+00 -0.48394467870E+02  0.48394467870E+02  0.00000000000E+00 0. -1.
         23    2    1    2    0    0 -0.94533015304E+02 -0.87707682379E+02  0.18684804557E+03  0.24440681976E+03  0.90517251857E+02 0.  0.
          5    1    1    2  502    0  0.25193356058E+02 -0.18871023243E+02  0.18882119753E+03  0.19147255089E+03  0.41800000000E+01 0.  1.
         -5    1    1    2    0  502  0.69339659246E+02  0.10657870562E+03  0.20293815962E+03  0.23951696781E+03  0.41800000000E+01 0.  1.
        -11    1    3    3    0    0 -0.88551116569E+02 -0.10596841528E+03  0.15938833391E+03  0.21089155097E+03  0.00000000000E+00 0.  1.
         11    1    3    3    0    0 -0.59818987347E+01  0.18260732896E+02  0.27459711651E+02  0.33515268794E+02  0.00000000000E+00 0. -1.
</event>
<event>
 7    1  0.4274778E-006  0.1376345E+03  0.7561462E-02  0.1216548E+00
          2   -1    0    0  501    0  0.00000000000E+00  0.00000000000E+00  0.23751702770E+03  0.23751702770E+03  0.00000000000E+00 0.  1.
         -2   -1    0    0    0  501 -0.00000000000E+00 -0.00000000000E+00 -0.99845323856E+02  0.99845323856E+02  0.00000000000E+00 0. -1.
         23    2    1    2    0    0  0.54851663450E+02  0.88096270231E+02  0.10633827944E+03  0.17183216371E+03  0.86306459783E+02 0.  0.
          5    1    1    2  502    0  0.31028727787E+02 -0.20132409114E+02 -0.22425294139E+02  0.43456438672E+02  0.41800000000E+01 0.  1.
         -5    1    1    2    0  502 -0.85880391237E+02 -0.67963861117E+02  0.53758718543E+02  0.12207374917E+03  0.41800000000E+01 0.  1.
        -11    1    3    3    0    0  0.35242196747E+02 -0.28999176673E+01  0.55393469662E+02  0.65718022150E+02  0.00000000000E+00 0. -1.
         11    1    3    3    0    0  0.19609466703E+02  0.90996187898E+02  0.50944809773E+02  0.10611414156E+03  0.00000000000E+00 0.  1.
</event>
<event>
 7    1  0.4274778E-006  0.7610338E+02  0.7561462E-02  0.1340488E+00
          1   -1    0    0  501    0  0.00000000000E+00  0.00000000000E+00  0.90959863234E+02  0.90959863234E+02  0.00000000000E+00 0. -1.
         -1   -1    0    0    0  501 -0.00000000000E+00 -0.00000000000E+00 -0.16037644779E+03  0.16037644779E+03  0.00000000000E+00 0.  1.
         23    2    1    2    0    0 -0.27504319688E+02  0.34331485096E+02 -0.63910530991E+01  0.10452028216E+03  0.94596539853E+02 0.  0.
          5    1    1    2  502    0  0.51978112419E+02 -0.54244578679E+02 -0.80760768594E+02  0.11038103384E+03  0.41800000000E+01 0.  1.
         -5    1    1    2    0  502 -0.24473792731E+02  0.19913093583E+02  0.17735237136E+02  0.36434995032E+02  0.41800000000E+01 0.  1.
        -11    1    3    3    0    0 -0.20432658571E+02  0.17587711370E+02 -0.50260527952E+02  0.57034566691E+02  0.00000000000E+00 0.  1.
         11    1    3    3    0    0 -0.70716611170E+01  0.16743773725E+02  0.43869474853E+02  0.47485715467E+02  0.00000000000E+00 0. -1.
</event>
<event>
 7    1  0.4321674E-006  0.2476577E+03  0.7561462E-02  0.1114794E+00
         -2   -1    0    0    0  501 -0.00000000000E+00  0.00000000000E+00  0.48190818743E+02  0.48190818743E+02  0.00000000000E+00 0.  1.
          2   -1    0    0  501    0  0.00000000000E+00 -0.00000000000E+00 -0.13445748037E+04  0.13445748037E+04  0.00000000000E+00 0. -1.
         23    2    1    2    0    0 -0.21575807570E+03 -0.77966697916E+02 -0.58644224718E+03  0.63626369354E+03  0.91030902577E+02 0.  0.
          5    1    1    2  502    0  0.21895457835E+03  0.52907507905E+02 -0.54730659307E+03  0.59186340568E+03  0.41800000000E+01 0.  1.
         -5    1    1    2    0  502 -0.31965026500E+01  0.25059190011E+02 -0.16263514471E+03  0.16463852322E+03  0.41800000000E+01 0.  1.
        -11    1    3    3    0    0 -0.11359726500E+03  0.36485663811E+01 -0.22895859790E+03  0.25561629487E+03  0.00000000000E+00 0.  1.
         11    1    3    3    0    0 -0.10216081071E+03 -0.81615264297E+02 -0.35748364928E+03  0.38064739867E+03  0.00000000000E+00 0. -1.
</event>
<event>
 7    1  0.4274778E-006  0.1267458E+03  0.7561462E-02  0.1232366E+00
         -2   -1    0    0    0  501 -0.00000000000E+00  0.00000000000E+00  0.86555220852E+02  0.86555220852E+02  0.00000000000E+00 0.  1.
          2   -1    0    0  501    0  0.00000000000E+00 -0.00000000000E+00 -0.21733390485E+03  0.21733390485E+03  0.00000000000E+00 0. -1.
         23    2    1    2    0    0 -0.80846633946E+02 -0.16165342632E+02 -0.61972928771E+02  0.13928898106E+03  0.93612391382E+02 0.  0.
          5    1    1    2  502    0  0.83541532976E+02 -0.29653261808E+02 -0.77353382546E+02  0.11772647051E+03  0.41800000000E+01 0. -1.
         -5    1    1    2    0  502 -0.26948990300E+01  0.45818604439E+02  0.85476273236E+01  0.46873674130E+02  0.41800000000E+01 0.  1.
        -11    1    3    3    0    0 -0.62353325202E+02 -0.50115462673E+02 -0.61027223602E+02  0.10061718930E+03  0.00000000000E+00 0.  1.
         11    1    3    3    0    0 -0.18493308744E+02  0.33950120041E+02 -0.94570516862E+00  0.38671791753E+02  0.00000000000E+00 0. -1.
</event>
<event>
 7    1  0.4274778E-006  0.6437272E+02  0.7561462E-02  0.1380347E+00
         -3   -1    0    0    0  501 -0.00000000000E+00  0.00000000000E+00  0.98814234242E+02  0.98814234242E+02  0.00000000000E+00 0.  1.
          3   -1    0    0  501    0  0.00000000000E+00 -0.00000000000E+00 -0.13218351738E+03  0.13218351738E+03  0.00000000000E+00 0. -1.
         23    2    1    2    0    0 -0.53155745779E+01  0.66531621872E+01 -0.74673157365E+02  0.95818501393E+02  0.59435552307E+02 0.  0.
          5    1    1    2  502    0  0.15613500423E+02 -0.46112542054E+02  0.69835783555E+02  0.85232957211E+02  0.41800000000E+01 0. -1.
         -5    1    1    2    0  502 -0.10297925845E+02  0.39459379867E+02 -0.28531909323E+02  0.49946293013E+02  0.41800000000E+01 0.  1.
        -11    1    3    3    0    0  0.46158725711E+01  0.20965106805E+02 -0.75386686093E+02  0.78383636195E+02  0.00000000000E+00 0. -1.
         11    1    3    3    0    0 -0.99314471490E+01 -0.14311944618E+02  0.71352872814E+00  0.17434865198E+02  0.00000000000E+00 0.  1.
</event>
<event>
 7    1  0.4274778E-006  0.1374685E+03  0.7561462E-02  0.1216776E+00
          2   -1    0    0  501    0  0.00000000000E+00  0.00000000000E+00  0.48027877607E+03  0.48027877607E+03  0.00000000000E+00 0. -1.
         -2   -1    0    0    0  501 -0.00000000000E+00 -0.00000000000E+00 -0.58869208285E+02  0.58869208285E+02  0.00000000000E+00 0.  1.
         23    2    1    2    0    0 -0.73665230779E+02 -0.10210983042E+03  0.23541842378E+03  0.28206212191E+03  0.91017705256E+02 0.  0.
          5    1    1    2  502    0 -0.70952849313E+01 -0.59063238018E+01  0.92203896289E+02  0.92759143053E+02  0.41800000000E+01 0.  1.
         -5    1    1    2    0  502  0.80760515711E+02  0.10801615422E+03  0.93787247716E+02  0.16432671939E+03  0.41800000000E+01 0.  1.
        -11    1    3    3    0    0 -0.43505099489E+02 -0.33454256532E+02  0.18173007831E+03  0.18983598796E+03  0.00000000000E+00 0. -1.
         11    1    3    3    0    0 -0.30160131290E+02 -0.68655573886E+02  0.53688345468E+02  0.92226133954E+02  0.00000000000E+00 0.  1.
</event>
<event>
 7    1  0.4274778E-006  0.1854106E+03  0.7561462E-02  0.1162667E+00
         -2   -1    0    0    0  501 -0.00000000000E+00  0.00000000000E+00  0.17607524068E+03  0.17607524068E+03  0.00000000000E+00 0.  1.
          2   -1    0    0  501    0  0.00000000000E+00 -0.00000000000E+00 -0.36525854537E+03  0.36525854537E+03  0.00000000000E+00 0. -1.
         23    2    1    2    0    0  0.16448194610E+03  0.85182320409E+02 -0.23397659818E+03  0.31337222330E+03  0.95638713585E+02 0.  0.
          5    1    1    2  502    0 -0.11513114151E+03 -0.57005062759E+02 -0.31879668246E+02  0.13243316266E+03  0.41800000000E+01 0. -1.
         -5    1    1    2    0  502 -0.49350804588E+02 -0.28177257650E+02  0.76672961741E+02  0.95528400093E+02  0.41800000000E+01 0. -1.
        -11    1    3    3    0    0  0.11173875661E+03  0.60529930517E+02 -0.83585322697E+02  0.15210499133E+03  0.00000000000E+00 0.  1.
         11    1    3    3    0    0  0.52743189488E+02  0.24652389891E+02 -0.15039127549E+03  0.16126723197E+03  0.00000000000E+00 0. -1.
</event>
<event>
 7    1  0.4274778E-006  0.1137776E+03  0.7561462E-02  0.1253730E+00
          1   -1    0    0  501    0  0.00000000000E+00  0.00000000000E+00  0.36706084503E+03  0.36706084503E+03  0.00000000000E+00 0. -1.
         -1   -1    0    0    0  501 -0.00000000000E+00 -0.00000000000E+00 -0.61743083163E+02  0.61743083163E+02  0.00000000000E+00 0.  1.
         23    2    1    2    0    0  0.49374552816E+02 -0.26405533491E+02  0.26463556924E+03  0.28586338994E+03  0.92470506298E+02 0.  0.
          5    1    1    2  502    0 -0.86400227004E+02  0.81692736919E+01  0.30643311622E+01  0.86940202349E+02  0.41800000000E+01 0. -1.
         -5    1    1    2    0  502  0.37025674188E+02  0.18236259799E+02  0.37617861468E+02  0.56000335910E+02  0.41800000000E+01 0. -1.
        -11    1    3    3    0    0 -0.22425559768E+02 -0.13671203069E+02  0.13119637291E+03  0.13379946109E+03  0.00000000000E+00 0. -1.
         11    1    3    3    0    0  0.71800112584E+02 -0.12734330422E+02  0.13343919634E+03  0.15206392885E+03  0.00000000000E+00 0.  1.
</event>
<event>
 7    1  0.4274778E-006  0.1372863E+03  0.7561462E-02  0.1217028E+00
         -1   -1    0    0    0  501 -0.00000000000E+00  0.00000000000E+00  0.33825348186E+02  0.33825348186E+02  0.00000000000E+00 0.  1.
          1   -1    0    0  501    0  0.00000000000E+00 -0.00000000000E+00 -0.93649223460E+03  0.93649223460E+03  0.00000000000E+00 0. -1.
         23    2    1    2    0    0  0.34060467818E+02  0.12264835399E+03 -0.60125127056E+03  0.62002997861E+03  0.82044803754E+02 0.  0.
          5    1    1    2  502    0 -0.32988549184E+01  0.93850437278E+01 -0.13576237581E+03  0.13619051574E+03  0.41800000000E+01 0.  1.
         -5    1    1    2    0  502 -0.30761612900E+02 -0.13203339772E+03 -0.16565324004E+03  0.21409708844E+03  0.41800000000E+01 0.  1.
        -11    1    3    3    0    0  0.31989942017E+02  0.91497827606E+02 -0.55984120772E+03  0.56817020928E+03  0.00000000000E+00 0. -1.
         11    1    3    3    0    0  0.20705258013E+01  0.31150526387E+02 -0.41410062841E+02  0.51859769337E+02  0.00000000000E+00 0.  1.
</event>
<event>
 7    1  0.4274778E-006  0.1394760E+03  0.7561462E-02  0.1214036E+00
          1   -1    0    0  501    0  0.00000000000E+00  0.00000000000E+00  0.85845740028E+02  0.85845740028E+02  0.00000000000E+00 0. -1.
         -1   -1    0    0    0  501 -0.00000000000E+00 -0.00000000000E+00 -0.26398764322E+03  0.26398764322E+03  0.00000000000E+00 0.  1.
         23    2    1    2    0    0  0.92542727890E+02  0.46756863231E+02 -0.86305820106E+02  0.16320021947E+03  0.91843651422E+02 0.  0.
          5    1    1    2  502    0 -0.20960233655E+02 -0.66222483774E+02 -0.88063043733E+02  0.11223778697E+03  0.41800000000E+01 0.  1.
         -5    1    1    2    0  502 -0.71582494235E+02  0.19465620542E+02 -0.37730393486E+01  0.74395376805E+02  0.41800000000E+01 0.  1.
        -11    1    3    3    0    0  0.78544458883E+02 -0.76232002068E+01 -0.32225520601E+02  0.85239834471E+02  0.00000000000E+00 0. -1.
         11    1    3    3    0    0  0.13998269007E+02  0.54380063438E+02 -0.54080299506E+02  0.77960385000E+02  0.00000000000E+00 0.  1.
</event>
<event>
 7    1  0.4274778E-006  0.1858867E+03  0.7561462E-02  0.1162224E+00
          2   -1    0    0  501    0  0.00000000000E+00  0.00000000000E+00  0.20989102606E+03  0.20989102606E+03  0.00000000000E+00 0. -1.
         -2   -1    0    0    0  501 -0.00000000000E+00 -0.00000000000E+00 -0.16911037703E+03  0.16911037703E+03  0.00000000000E+00 0.  1.
         23    2    1    2    0    0  0.15194773768E+03  0.14651619184E+02  0.37705667887E+02  0.18161999221E+03  0.90891799680E+02 0.  0.
          5    1    1    2  502    0 -0.97691872852E+01  0.42575322618E+02 -0.25770794004E+01  0.43956897689E+02  0.41800000000E+01 0. -1.
         -5    1    1    2    0  502 -0.14217855039E+03 -0.57226941802E+02  0.56520605466E+01  0.15342451319E+03  0.41800000000E+01 0. -1.
        -11    1    3    3    0    0 -0.67297616109E+01  0.14398907955E+02  0.14001360237E+02  0.21181509156E+02  0.00000000000E+00 0. -1.
         11    1    3    3    0    0  0.15867749929E+03  0.25271122984E+00  0.23704307650E+02  0.16043848305E+03  0.00000000000E+00 0.  1.
</event>
<event>
 7    1  0.4274778E-006  0.1683931E+03  0.7561462E-02  0.1179534E+00
         -1   -1    0    0    0  501 -0.00000000000E+00  0.00000000000E+00  0.29752032683E+03  0.29752032683E+03  0.00000000000E+00 0.  1.
          1   -1    0    0  501    0  0.00000000000E+00 -0.00000000000E+00 -0.11606733928E+03  0.11606733928E+03  0.00000000000E+00 0. -1.
         23    2    1    2    0    0 -0.71343674438E+01 -0.79709587241E+02  0.38601938805E+02  0.12697877149E+03  0.90713732325E+02 0.  0.
          5    1    1    2  502    0 -0.77358898221E+02  0.11145738287E+03  0.24861784597E+02  0.13799539146E+03  0.41800000000E+01 0. -1.
         -5    1    1    2    0  502  0.84493265665E+02 -0.31747795632E+02  0.11798926415E+03  0.14861350317E+03  0.41800000000E+01 0.  1.
        -11    1    3    3    0    0 -0.40543909065E+02 -0.58294680791E+02  0.48610201021E+02  0.86052484066E+02  0.00000000000E+00 0. -1.
         11    1    3    3    0    0  0.33409541621E+02 -0.21414906451E+02 -0.10008262216E+02  0.40926287422E+02  0.00000000000E+00 0.  1.
</event>
<event>
 7    1  0.4274778E-006  0.1208134E+03  0.7561462E-02  0.1241761E+00
          1   -1    0    0  501    0  0.00000000000E+00  0.00000000000E+00  0.64546067283E+03  0.64546067283E+03  0.00000000000E+00 0. -1.
         -1   -1    0    0    0  501 -0.00000000000E+00 -0.00000000000E+00 -0.28266872667E+02  0.28266872667E+02  0.00000000000E+00 0.  1.
         23    2    1    2    0    0 -0.73350490629E+02  0.26558232434E+00  0.36391752089E+03  0.38187467770E+03  0.89509454515E+02 0.  0.
          5    1    1    2  502    0  0.80866019307E+02  0.46542379181E+02  0.13312919814E+03  0.16262337450E+03  0.41800000000E+01 0.  1.
         -5    1    1    2    0  502 -0.75155286782E+01 -0.46807961506E+02  0.12014708113E+03  0.12922949329E+03  0.41800000000E+01 0.  1.
        -11    1    3    3    0    0 -0.52179765304E+02  0.32938490830E+02  0.30552075155E+03  0.31168991276E+03  0.00000000000E+00 0. -1.
         11    1    3    3    0    0 -0.21170725325E+02 -0.32672908505E+02  0.58396769342E+02  0.70184764946E+02  0.00000000000E+00 0.  1.
</event>
<event>
 7    1  0.4274778E-006  0.1268423E+03  0.7561462E-02  0.1232218E+00
          1   -1    0    0  501    0  0.00000000000E+00  0.00000000000E+00  0.93927581385E+03  0.93927581385E+03  0.00000000000E+00 0. -1.
         -1   -1    0    0    0  501 -0.00000000000E+00 -0.00000000000E+00 -0.22624736787E+02  0.22624736787E+02  0.00000000000E+00 0.  1.
         23    2    1    2    0    0  0.65024533442E+02  0.63002879635E+02  0.53408750118E+03  0.54934809743E+03  0.91303452569E+02 0.  0.
          5    1    1    2  502    0 -0.43098954386E+02  0.13956801840E+02  0.39484086033E+02  0.60239336290E+02  0.41800000000E+01 0. -1.
         -5    1    1    2    0  502 -0.21925579056E+02 -0.76959681474E+02  0.34307948985E+03  0.35231311691E+03  0.41800000000E+01 0. -1.
        -11    1    3    3    0    0  0.88231108357E+02  0.51431580447E+02  0.40465542519E+03  0.41734392183E+03  0.00000000000E+00 0.  1.
         11    1    3    3    0    0 -0.23206574915E+02  0.11571299188E+02  0.12943207598E+03  0.13200417560E+03  0.00000000000E+00 0. -1.
</event>
<event>
 7    1  0.4274778E-006  0.1103901E+03  0.7561462E-02  0.1259849E+00
          1   -1    0    0  501    0  0.00000000000E+00  0.00000000000E+00  0.70972549440E+03  0.70972549440E+03  0.00000000000E+00 0. -1.
         -1   -1    0    0    0  501 -0.00000000000E+00 -0.00000000000E+00 -0.24256473205E+02  0.24256473205E+02  0.00000000000E+00 0.  1.
         23    2    1    2    0    0 -0.39312696631E+02 -0.48556295815E+02  0.40236200262E+03  0.41822880484E+03  0.95482721309E+02 0.  0.
          5    1    1    2  502    0 -0.33927586888E+02  0.15893477578E+02  0.18582016996E+03  0.18960562161E+03  0.41800000000E+01 0.  1.
         -5    1    1    2    0  502  0.73240283519E+02  0.32662818236E+02  0.97286848612E+02  0.12614754115E+03  0.41800000000E+01 0.  1.
        -11    1    3    3    0    0 -0.49473684185E+02  0.36363152332E+01  0.10473218655E+03  0.11588657867E+03  0.00000000000E+00 0.  1.
         11    1    3    3    0    0  0.10160987554E+02 -0.52192611048E+02  0.29762981607E+03  0.30234222618E+03  0.00000000000E+00 0. -1.
</event>
<event>
 7    1  0.4274778E-006  0.1902721E+03  0.7561462E-02  0.1158216E+00
          1   -1    0    0  501    0  0.00000000000E+00  0.00000000000E+00  0.10158598686E+03  0.10158598686E+03  0.00000000000E+00 0. -1.
         -1   -1    0    0    0  501 -0.00000000000E+00 -0.00000000000E+00 -0.38373274330E+03  0.38373274330E+03  0.00000000000E+00 0.  1.
         23    2    1    2    0    0 -0.14957145760E+03  0.68706646654E+02 -0.12397619482E+03  0.22500246062E+03  0.90353672755E+02 0.  0.
          5    1    1    2  502    0  0.78513478719E+02 -0.91450911207E+02 -0.54062666218E+02  0.13216610677E+03  0.41800000000E+01 0. -1.
         -5    1    1    2    0  502  0.71057978879E+02  0.22744264553E+02 -0.10410789541E+03  0.12815016277E+03  0.41800000000E+01 0. -1.
        -11    1    3    3    0    0 -0.83774827727E+02  0.82950530077E+02 -0.96255898215E+02  0.15219793081E+03  0.00000000000E+00 0.  1.
         11    1    3    3    0    0 -0.65796629870E+02 -0.14243883422E+02 -0.27720296602E+02  0.72804529811E+02  0.00000000000E+00 0. -1.
</event>
<event>
 7    1  0.4274778E-006  0.7964998E+02  0.7561462E-02  0.1330048E+00
         -2   -1    0    0    0  501 -0.00000000000E+00  0.00000000000E+00  0.84136999176E+03  0.84136999176E+03  0.00000000000E+00 0.  1.
          2   -1    0    0  501    0  0.00000000000E+00 -0.00000000000E+00 -0.24066707749E+02  0.24066707749E+02  0.00000000000E+00 0. -1.
         23    2    1    2    0    0 -0.62040500475E+02 -0.51288164343E+01  0.14934015222E+03  0.18301629161E+03  0.85540361650E+02 0.  0.
          5    1    1    2  502    0 -0.15937213855E+02 -0.67599253085E+01  0.45388988293E+03  0.45423913261E+03  0.41800000000E+01 0.  1.
         -5    1    1    2    0  502  0.77977714330E+02  0.11888741743E+02  0.21407324886E+03  0.22818127529E+03  0.41800000000E+01 0.  1.
        -11    1    3    3    0    0 -0.40218091279E+02 -0.64586744901E+00  0.15491456708E+03  0.16005135146E+03  0.00000000000E+00 0.  1.
         11    1    3    3    0    0 -0.21822409196E+02 -0.44829489853E+01 -0.55744148631E+01  0.22964940143E+02  0.00000000000E+00 0. -1.
</event>
<event>
 7    1  0.4274778E-006  0.1038466E+03  0.7561462E-02  0.1272409E+00
         -1   -1    0    0    0  501 -0.00000000000E+00  0.00000000000E+00  0.72591902482E+02  0.72591902482E+02  0.00000000000E+00 0.  1.
          1   -1    0    0  501    0  0.00000000000E+00 -0.00000000000E+00 -0.23722372414E+03  0.23722372414E+03  0.00000000000E+00 0. -1.
         23    2    1    2    0    0 -0.59102816756E+02  0.17779682106E+02 -0.12132492721E+03  0.16375916513E+03  0.91038816756E+02 0.  0.
          5    1    1    2  502    0  0.10307660681E+02 -0.47546259372E+02 -0.67947527567E+02  0.83673374208E+02  0.41800000000E+01 0.  1.
         -5    1    1    2    0  502  0.48795156075E+02  0.29766577267E+02  0.24640633121E+02  0.62383087285E+02  0.41800000000E+01 0.  1.
        -11    1    3    3    0    0  0.20434569761E+02  0.42775262469E+01 -0.38181464837E+01  0.21223739413E+02  0.00000000000E+00 0.  1.
         11    1    3    3    0    0 -0.79537386517E+02  0.13502155859E+02 -0.11750678073E+03  0.14253542572E+03  0.00000000000E+00 0. -1.
</event>
<event>
 7    1  0.4274778E-006  0.2528117E+03  0.7561462E-02  0.1111541E+00
         -1   -1    0    0    0  501 -0.00000000000E+00  0.00000000000E+00  0.11399829981E+03  0.11399829981E+03  0.00000000000E+00 0.  1.
          1   -1    0    0  501    0  0.00000000000E+00 -0.00000000000E+00 -0.59404896098E+03  0.59404896098E+03  0.00000000000E+00 0. -1.
         23    2    1    2    0    0  0.17494372186E+03  0.15808603550E+03 -0.26807008662E+03  0.36720121980E+03  0.85899150426E+02 0.  0.
          5    1    1    2  502    0 -0.12573140612E+03 -0.34133450500E+02 -0.78762698339E+02  0.15229745231E+03  0.41800000000E+01 0. -1.
         -5    1    1    2    0  502 -0.49212315736E+02 -0.12395258500E+03 -0.13321787622E+03  0.18854858868E+03  0.41800000000E+01 0. -1.
        -11    1    3    3    0    0  0.17160679760E+03  0.13453102336E+03 -0.20300672663E+03  0.29792485678E+03  0.00000000000E+00 0. -1.
         11    1    3    3    0    0  0.33369242564E+01  0.23555012148E+02 -0.65063359985E+02  0.69276363021E+02  0.00000000000E+00 0.  1.
</event>
<event>
 7    1  0.4274778E-006  0.2253140E+03  0.7561462E-02  0.1129982E+00
         -2   -1    0    0    0  501 -0.00000000000E+00  0.00000000000E+00  0.49070252111E+02  0.49070252111E+02  0.00000000000E+00 0. -1.
          2   -1    0    0  501    0  0.00000000000E+00 -0.00000000000E+00 -0.12623973913E+04  0.12623973913E+04  0.00000000000E+00 0.  1.
         23    2    1    2    0    0 -0.96349661240E+02  0.18452870923E+03 -0.80288010292E+03  0.83455284294E+03  0.92346555205E+02 0.  0.
          5    1    1    2  502    0  0.93107824514E+02 -0.53896133514E+02 -0.14081100437E+03  0.17725425678E+03  0.41800000000E+01 0. -1.
         -5    1    1    2    0  502  0.32418367258E+01 -0.13063257571E+03 -0.26963603188E+03  0.29966054366E+03  0.41800000000E+01 0. -1.
        -11    1    3    3    0    0 -0.42282722709E+02  0.12426966326E+03 -0.33647463466E+03  0.36117303002E+03  0.00000000000E+00 0. -1.
         11    1    3    3    0    0 -0.54066938530E+02  0.60259045970E+02 -0.46640546826E+03  0.47337981292E+03  0.00000000000E+00 0.  1.
</event>
<event>
 7    1  0.4274778E-006  0.7976339E+02  0.7561462E-02  0.1329724E+00
         -1   -1    0    0    0  501 -0.00000000000E+00  0.00000000000E+00  0.29556927834E+03  0.29556927834E+03  0.00000000000E+00 0.  1.
          1   -1    0    0  501    0  0.00000000000E+00 -0.00000000000E+00 -0.58363812133E+02  0.58363812133E+02  0.00000000000E+00 0. -1.
         23    2    1    2    0    0 -0.49982608579E+02 -0.42410727020E+02  0.80948867056E+02  0.14331722264E+03  0.98438693103E+02 0.  0.
          5    1    1    2  502    0 -0.91226470456E+01  0.18661032490E+02  0.14407996102E+03  0.14562954505E+03  0.41800000000E+01 0. -1.
         -5    1    1    2    0  502  0.59105255625E+02  0.23749694530E+02  0.12176638121E+02  0.64986322782E+02  0.41800000000E+01 0. -1.
        -11    1    3    3    0    0 -0.43137697145E+02 -0.14109921533E+02 -0.11140889807E+02  0.46734037128E+02  0.00000000000E+00 0. -1.
         11    1    3    3    0    0 -0.68449114344E+01 -0.28300805487E+02  0.92089756863E+02  0.96583185508E+02  0.00000000000E+00 0.  1.
</event>
<event>
 7    1  0.4274778E-006  0.1038201E+03  0.7561462E-02  0.1272462E+00
          4   -1    0    0  501    0  0.00000000000E+00  0.00000000000E+00  0.42678264962E+03  0.42678264962E+03  0.00000000000E+00 0. -1.
         -4   -1    0    0    0  501 -0.00000000000E+00 -0.00000000000E+00 -0.32093416246E+02  0.32093416246E+02  0.00000000000E+00 0.  1.
         23    2    1    2    0    0  0.38912295198E+02  0.96679157140E+01  0.20816808988E+03  0.23075157896E+03  0.91130139014E+02 0.  0.
          5    1    1    2  502    0 -0.23398789037E+02 -0.62015690492E+02  0.14473011966E+03  0.15924110378E+03  0.41800000000E+01 0.  1.
         -5    1    1    2    0  502 -0.15513506161E+02  0.52347774778E+02  0.41791023825E+02  0.68883383119E+02  0.41800000000E+01 0.  1.
        -11    1    3    3    0    0 -0.19068306262E+02  0.19933485421E+02  0.21374746489E+02  0.34897334171E+02  0.00000000000E+00 0.  1.
         11    1    3    3    0    0  0.57980601460E+02 -0.10265569707E+02  0.18679334339E+03  0.19585424479E+03  0.00000000000E+00 0. -1.
</event>
<event>
 7    1  0.4274778E-006  0.1116077E+03  0.7561462E-02  0.1257621E+00
         -1   -1    0    0    0  501 -0.00000000000E+00  0.00000000000E+00  0.28409573978E+02  0.28409573978E+02  0.00000000000E+00 0.  1.
          1   -1    0    0  501    0  0.00000000000E+00 -0.00000000000E+00 -0.45260010403E+03  0.45260010403E+03  0.00000000000E+00 0. -1.
         23    2    1    2    0    0  0.21304630109E+02  0.23841906161E+02 -0.16657847162E+03  0.19285911188E+03  0.91781948531E+02 0.  0.
          5    1    1    2  502    0  0.52361510046E+02 -0.68886077433E+01 -0.11756070818E+03  0.12894639646E+03  0.41800000000E+01 0.  1.
         -5    1    1    2    0  502 -0.73666140155E+02 -0.16953298418E+02 -0.14005135026E+03  0.15920416967E+03  0.41800000000E+01 0.  1.
        -11    1    3    3    0    0  0.56389410834E+02  0.14678584017E+02 -0.79801552082E+02  0.98810496394E+02  0.00000000000E+00 0.  1.
         11    1    3    3    0    0 -0.35084780725E+02  0.91633221437E+01 -0.86776919536E+02  0.94048615489E+02  0.00000000000E+00 0. -1.
</event>
<event>
 7    1  0.4274778E-006  0.1402003E+03  0.7561462E-02  0.1213060E+00
          1   -1    0    0  501    0  0.00000000000E+00  0.00000000000E+00  0.37352486202E+03  0.37352486202E+03  0.00000000000E+00 0. -1.
         -1   -1    0    0    0  501 -0.00000000000E+00 -0.00000000000E+00 -0.74314744075E+02  0.74314744075E+02  0.00000000000E+00 0.  1.
         23    2    1    2    0    0 -0.43254997199E+02  0.10458378473E+03  0.21344075412E+03  0.25860036421E+03  0.92241151547E+02 0.  0.
          5    1    1    2  502    0 -0.21992321863E+02  0.89491479688E+01 -0.10864300553E+02  0.26443428235E+02  0.41800000000E+01 0. -1.
         -5    1    1    2    0  502  0.65247319062E+02 -0.11353293270E+03  0.96633664377E+02  0.16279581365E+03  0.41800000000E+01 0. -1.
        -11    1    3    3    0    0  0.37534282450E+01  0.61186946051E+02  0.38649955518E+02  0.72468956472E+02  0.00000000000E+00 0.  1.
         11    1    3    3    0    0 -0.47008425444E+02  0.43396838677E+02  0.17479079861E+03  0.18613140774E+03  0.00000000000E+00 0. -1.
</event>
<event>
 7    1  0.4274778E-006  0.1990018E+03  0.7561462E-02  0.1150584E+00
         -2   -1    0    0    0  501 -0.00000000000E+00  0.00000000000E+00  0.24797391803E+03  0.24797391803E+03  0.00000000000E+00 0.  1.
          2   -1    0    0  501    0  0.00000000000E+00 -0.00000000000E+00 -0.22145042812E+03  0.22145042812E+03  0.00000000000E+00 0. -1.
         23    2    1    2    0    0  0.12621730195E+03  0.13096025000E+03 -0.87156252645E+02  0.22112691270E+03  0.90661484398E+02 0.  0.
          5    1    1    2  502    0 -0.46497554734E+02 -0.12622497388E+03  0.42211888249E+02  0.14104638435E+03  0.41800000000E+01 0. -1.
         -5    1    1    2    0  502 -0.79719747215E+02 -0.47352761160E+01  0.71467854303E+02  0.10725104911E+03  0.41800000000E+01 0. -1.
        -11    1    3    3    0    0  0.81406403330E+02  0.10019413747E+03 -0.13807231588E+02  0.12983261274E+03  0.00000000000E+00 0.  1.
         11    1    3    3    0    0  0.44810898619E+02  0.30766112530E+02 -0.73349021057E+02  0.91294299960E+02  0.00000000000E+00 0. -1.
</event>
<event>
 7    1  0.4274778E-006  0.1287432E+03  0.7561462E-02  0.1229333E+00
          1   -1    0    0  501    0  0.00000000000E+00  0.00000000000E+00  0.10082386438E+03  0.10082386438E+03  0.00000000000E+00 0. -1.
         -1   -1    0    0    0  501 -0.00000000000E+00 -0.00000000000E+00 -0.22332673381E+03  0.22332673381E+03  0.00000000000E+00 0.  1.
         23    2    1    2    0    0 -0.95486346326E+02 -0.14431211438E+02 -0.21355574064E+02  0.13652260398E+03  0.94108759722E+02 0.  0.
          5    1    1    2  502    0  0.78659784108E+02 -0.28198074886E+02 -0.83943220682E+01  0.84085849619E+02  0.41800000000E+01 0.  1.
         -5    1    1    2    0  502  0.16826562218E+02  0.42629286324E+02 -0.92752973306E+02  0.10354214459E+03  0.41800000000E+01 0.  1.
        -11    1    3    3    0    0 -0.51255129826E+02 -0.49574726725E+02  0.98489423058E+01  0.71984328350E+02  0.00000000000E+00 0. -1.
         11    1    3    3    0    0 -0.44231216500E+02  0.35143515287E+02 -0.31204516370E+02  0.64538275633E+02  0.00000000000E+00 0.  1.
</event>
<event>
 7    1  0.4274778E-006  0.1122564E+03  0.7561462E-02  0.1256448E+00
         -3   -1    0    0    0  501 -0.00000000000E+00  0.00000000000E+00  0.19248023679E+03  0.19248023679E+03  0.00000000000E+00 0.  1.
          3   -1    0    0  501    0  0.00000000000E+00 -0.00000000000E+00 -0.13577786625E+03  0.13577786625E+03  0.00000000000E+00 0. -1.
         23    2    1    2    0    0  0.37098927318E+02 -0.62194000232E+01 -0.90631687152E+02  0.13135844987E+03  0.87326561206E+02 0.  0.
          5    1    1    2  502    0  0.44173202175E+02  0.17059842600E+02  0.42675869743E+02  0.63882801115E+02  0.41800000000E+01 0.  1.
         -5    1    1    2    0  502 -0.81272129493E+02 -0.10840442577E+02  0.10465818795E+03  0.13301685206E+03  0.41800000000E+01 0.  1.
        -11    1    3    3    0    0  0.14215621907E+02 -0.46459436147E+02 -0.42079756922E+02  0.64274948899E+02  0.00000000000E+00 0. -1.
         11    1    3    3    0    0  0.22883305411E+02  0.40240036124E+02 -0.48551930230E+02  0.67083500974E+02  0.00000000000E+00 0.  1.
</event>
<event>
 7    1  0.4274778E-006  0.8636931E+02  0.7561462E-02  0.1311890E+00
          1   -1    0    0  501    0  0.00000000000E+00  0.00000000000E+00  0.10136831494E+03  0.10136831494E+03  0.00000000000E+00 0. -1.
         -1   -1    0    0    0  501 -0.00000000000E+00 -0.00000000000E+00 -0.10988875625E+03  0.10988875625E+03  0.00000000000E+00 0.  1.
         23    2    1    2    0    0 -0.14281327808E+01 -0.35293246762E+01  0.70237733081E+01  0.85143217024E+02  0.84767554630E+02 0.  0.
          5    1    1    2  502    0 -0.31505721483E+02 -0.51177805275E+02  0.74606646379E-01  0.60243308384E+02  0.41800000000E+01 0.  1.
         -5    1    1    2    0  502  0.32933854263E+02  0.54707129951E+02 -0.15618821265E+02  0.65870545784E+02  0.41800000000E+01 0.  1.
        -11    1    3    3    0    0  0.78443037375E+01  0.20926644024E+02 -0.31473915861E+02  0.38601358925E+02  0.00000000000E+00 0.  1.
         11    1    3    3    0    0 -0.92724365183E+01 -0.24455968700E+02  0.38497689169E+02  0.46541858100E+02  0.00000000000E+00 0. -1.
</event>
<event>
 7    1  0.4274778E-006  0.1039313E+03  0.7561462E-02  0.1272240E+00
          1   -1    0    0  501    0  0.00000000000E+00  0.00000000000E+00  0.38943429943E+03  0.38943429943E+03  0.00000000000E+00 0. -1.
         -1   -1    0    0    0  501 -0.00000000000E+00 -0.00000000000E+00 -0.31805327645E+02  0.31805327645E+02  0.00000000000E+00 0.  1.
         23    2    1    2    0    0 -0.17030035062E+02  0.61001629382E+01  0.16035905627E+03  0.18695150651E+03  0.94385405520E+02 0.  0.
          5    1    1    2  502    0  0.25467712630E+02 -0.55644096973E+02  0.51666006439E+02  0.80197995835E+02  0.41800000000E+01 0.  1.
         -5    1    1    2    0  502 -0.84376775675E+01  0.49543934035E+02  0.14560390908E+03  0.15409012474E+03  0.41800000000E+01 0.  1.
        -11    1    3    3    0    0 -0.18896188027E+02 -0.42994488616E+02  0.77062803580E+02  0.90245596396E+02  0.00000000000E+00 0. -1.
         11    1    3    3    0    0  0.18661529650E+01  0.49094651554E+02  0.83296252694E+02  0.96705910114E+02  0.00000000000E+00 0.  1.
</event>
<event>
 7    1  0.4274778E-006  0.1369315E+03  0.7561462E-02  0.1217519E+00
          1   -1    0    0  501    0  0.00000000000E+00  0.00000000000E+00  0.93443388886E+02  0.93443388886E+02  0.00000000000E+00 0. -1.
         -1   -1    0    0    0  501 -0.00000000000E+00 -0.00000000000E+00 -0.28439977481E+03  0.28439977481E+03  0.00000000000E+00 0.  1.
         23    2    1    2    0    0 -0.34885509609E+02 -0.10748802433E+03 -0.40074545540E+02  0.15160656178E+03  0.92778802651E+02 0.  0.
          5    1    1    2  502    0 -0.30699401541E+02  0.26733923358E+02 -0.10455735442E+03  0.11228031296E+03  0.41800000000E+01 0.  1.
         -5    1    1    2    0  502  0.65584911150E+02  0.80754100969E+02 -0.46324485962E+02  0.11395628896E+03  0.41800000000E+01 0.  1.
        -11    1    3    3    0    0 -0.43121376964E+02 -0.34096805198E+02 -0.53311467598E+02  0.76577789557E+02  0.00000000000E+00 0.  1.
         11    1    3    3    0    0  0.82358673548E+01 -0.73391219129E+02  0.13236922058E+02  0.75028772227E+02  0.00000000000E+00 0. -1.
</event>
<event>
 7    1  0.4274778E-006  0.9072686E+02  0.7561462E-02  0.1301101E+00
          3   -1    0    0  501    0  0.00000000000E+00  0.00000000000E+00  0.25965271855E+02  0.25965271855E+02  0.00000000000E+00 0. -1.
         -3   -1    0    0    0  501 -0.00000000000E+00 -0.00000000000E+00 -0.61673023913E+03  0.61673023913E+03  0.00000000000E+00 0.  1.
         23    2    1    2    0    0  0.55809131045E+02 -0.16794232649E+02 -0.20105430147E+03  0.22927320089E+03  0.93523596732E+02 0.  0.
          5    1    1    2  502    0 -0.80565451243E+00 -0.29943638184E+02 -0.18978781199E+02  0.35706261113E+02  0.41800000000E+01 0. -1.
         -5    1    1    2    0  502 -0.55003476532E+02  0.46737870832E+02 -0.37073188460E+03  0.37771604898E+03  0.41800000000E+01 0. -1.
        -11    1    3    3    0    0  0.41715753167E+02  0.14840557467E+02 -0.27115295273E+02  0.51919990813E+02  0.00000000000E+00 0. -1.
         11    1    3    3    0    0  0.14093377877E+02 -0.31634790116E+02 -0.17393900620E+03  0.17735321007E+03  0.00000000000E+00 0.  1.
</event>
<event>
 7    1  0.4274778E-006  0.1353987E+03  0.7561462E-02  0.1219658E+00
         -1   -1    0    0    0  501 -0.00000000000E+00  0.00000000000E+00  0.35240301129E+02  0.35240301129E+02  0.00000000000E+00 0.  1.
          1   -1    0    0  501    0  0.00000000000E+00 -0.00000000000E+00 -0.71988079427E+03  0.71988079427E+03  0.00000000000E+00 0. -1.
         23    2    1    2    0    0  0.49614745268E+02 -0.10484422146E+03 -0.33055965362E+03  0.36208850909E+03  0.91566752136E+02 0.  0.
          5    1    1    2  502    0 -0.42254875438E+02  0.37228542210E+02 -0.34298488433E+02  0.66070398532E+02  0.41800000000E+01 0.  1.
         -5    1    1    2    0  502 -0.73598698299E+01  0.67615679250E+02 -0.31978235109E+03  0.32696218777E+03  0.41800000000E+01 0.  1.
        -11    1    3    3    0    0 -0.67037917021E+00 -0.94927534751E+02 -0.23894182861E+03  0.25710870021E+03  0.00000000000E+00 0.  1.
         11    1    3    3    0    0  0.50285124438E+02 -0.99166867088E+01 -0.91617825008E+02  0.10497980889E+03  0.00000000000E+00 0. -1.
</event>
<event>
 7    1  0.4274778E-006  0.1489789E+03  0.7561462E-02  0.1201733E+00
          1   -1    0    0  501    0  0.00000000000E+00  0.00000000000E+00  0.75404426705E+02  0.75404426705E+02  0.00000000000E+00 0. -1.
         -1   -1    0    0    0  501 -0.00000000000E+00 -0.00000000000E+00 -0.42004972686E+03  0.42004972686E+03  0.00000000000E+00 0.  1.
         23    2    1    2    0    0  0.31399439299E+02  0.72023081873E+02 -0.11476241181E+03  0.16682495684E+03  0.92124404734E+02 0.  0.
          5    1    1    2  502    0 -0.23204446974E+02 -0.13410131230E+03 -0.62402030876E+02  0.14977681455E+03  0.41800000000E+01 0. -1.
         -5    1    1    2    0  502 -0.81949923253E+01  0.62078230429E+02 -0.16748085747E+03  0.17885238218E+03  0.41800000000E+01 0.  1.
        -11    1    3    3    0    0 -0.58100276873E+01  0.59499905551E+02 -0.11262270885E+03  0.12750635173E+03  0.00000000000E+00 0. -1.
         11    1    3    3    0    0  0.37209466987E+02  0.12523176322E+02 -0.21397029579E+01  0.39318605105E+02  0.00000000000E+00 0.  1.
</event>
<event>
 7    1  0.4274778E-006  0.1003420E+03  0.7561462E-02  0.1279578E+00
          1   -1    0    0  501    0  0.00000000000E+00  0.00000000000E+00  0.25309620081E+03  0.25309620081E+03  0.00000000000E+00 0. -1.
         -1   -1    0    0    0  501 -0.00000000000E+00 -0.00000000000E+00 -0.55798454254E+02  0.55798454254E+02  0.00000000000E+00 0.  1.
         23    2    1    2    0    0 -0.10932422823E+02  0.12952584781E+02  0.79186222625E+02  0.12186642077E+03  0.91069640033E+02 0.  0.
          5    1    1    2  502    0 -0.48112092894E+02 -0.61460175065E+01  0.11778029970E+03  0.12744496228E+03  0.41800000000E+01 0. -1.
         -5    1    1    2    0  502  0.59044515717E+02 -0.68065672745E+01  0.33122423077E+00  0.59583272013E+02  0.41800000000E+01 0.  1.
        -11    1    3    3    0    0  0.30228705840E+02  0.34573263962E+02  0.35204011209E+02  0.57865427009E+02  0.00000000000E+00 0.  1.
         11    1    3    3    0    0 -0.41161128663E+02 -0.21620679180E+02  0.43982211416E+02  0.64000993759E+02  0.00000000000E+00 0. -1.
</event>
<event>
 7    1  0.4274778E-006  0.9393347E+02  0.7561462E-02  0.1293596E+00
          2   -1    0    0  501    0  0.00000000000E+00  0.00000000000E+00  0.28862711854E+03  0.28862711854E+03  0.00000000000E+00 0. -1.
         -2   -1    0    0    0  501 -0.00000000000E+00 -0.00000000000E+00 -0.46164165066E+02  0.46164165066E+02  0.00000000000E+00 0.  1.
         23    2    1    2    0    0  0.31837946356E+02 -0.10251978995E+02  0.13736148513E+03  0.16802045474E+03  0.90796132691E+02 0.  0.
          5    1    1    2  502    0 -0.53817436168E+01  0.57311901502E+02  0.11821892314E+02  0.58913892725E+02  0.41800000000E+01 0.  1.
         -5    1    1    2    0  502 -0.26456202739E+02 -0.47059922508E+02  0.93279576034E+02  0.10785693615E+03  0.41800000000E+01 0.  1.
        -11    1    3    3    0    0  0.47315164942E+02  0.12079237157E+02  0.13143208657E+03  0.14021064932E+03  0.00000000000E+00 0. -1.
         11    1    3    3    0    0 -0.15477218586E+02 -0.22331216152E+02  0.59293985641E+01  0.27809805417E+02  0.00000000000E+00 0.  1.
</event>
<event>
 7    1  0.4274778E-006  0.1933662E+03  0.7561462E-02  0.1155460E+00
         -2   -1    0    0    0  501 -0.00000000000E+00  0.00000000000E+00  0.61964216866E+03  0.61964216866E+03  0.00000000000E+00 0.  1.
          2   -1    0    0  501    0  0.00000000000E+00 -0.00000000000E+00 -0.14811887357E+03  0.14811887357E+03  0.00000000000E+00 0. -1.
         23    2    1    2    0    0  0.32861818459E+02 -0.51738033814E+02 -0.34361411724E+02  0.11550806389E+03  0.91677057944E+02 0.  0.
          5    1    1    2  502    0 -0.11669819952E+03  0.13823299154E+03  0.60426234816E+02  0.19077639261E+03  0.41800000000E+01 0. -1.
         -5    1    1    2    0  502  0.83836381065E+02 -0.86494957726E+02  0.44545847200E+03  0.46147658573E+03  0.41800000000E+01 0.  1.
        -11    1    3    3    0    0  0.32055957552E+02  0.14175554622E+01 -0.50604706988E+02  0.59920198993E+02  0.00000000000E+00 0. -1.
         11    1    3    3    0    0  0.80586090752E+00 -0.53155589277E+02  0.16243295264E+02  0.55587864900E+02  0.00000000000E+00 0.  1.
</event>
<event>
 7    1  0.4274778E-006  0.9724796E+02  0.7561462E-02  0.1286192E+00
          2   -1    0    0  501    0  0.00000000000E+00  0.00000000000E+00  0.44583246759E+03  0.44583246759E+03  0.00000000000E+00 0. -1.
         -2   -1    0    0    0  501 -0.00000000000E+00 -0.00000000000E+00 -0.36995864305E+02  0.36995864305E+02  0.00000000000E+00 0.  1.
         23    2    1    2    0    0 -0.38405242542E+02 -0.56932125736E+02  0.20966867780E+03  0.23781169778E+03  0.88753701645E+02 0.  0.
          5    1    1    2  502    0  0.34009260030E+02 -0.15437174840E+02  0.15615005743E+03  0.16060899406E+03  0.41800000000E+01 0.  1.
         -5    1    1    2    0  502  0.43959825110E+01  0.72369300576E+02  0.43017868044E+02  0.84407640052E+02  0.41800000000E+01 0.  1.
        -11    1    3    3    0    0  0.58090126453E+01 -0.33982258253E+02  0.17183126338E+03  0.17525558929E+03  0.00000000000E+00 0. -1.
         11    1    3    3    0    0 -0.44214255187E+02 -0.22949867483E+02  0.37837414422E+02  0.62556108489E+02  0.00000000000E+00 0.  1.
</event>
<event>
 7    1  0.4274778E-006  0.1287854E+03  0.7561462E-02  0.1229269E+00
          2   -1    0    0  501    0  0.00000000000E+00  0.00000000000E+00  0.13777516608E+03  0.13777516608E+03  0.00000000000E+00 0. -1.
         -2   -1    0    0    0  501 -0.00000000000E+00 -0.00000000000E+00 -0.18381561331E+03  0.18381561331E+03  0.00000000000E+00 0.  1.
         23    2    1    2    0    0 -0.85389158470E+02 -0.44105924044E+02  0.50987655747E+02  0.14242870795E+03  0.91921460448E+02 0.  0.
          5    1    1    2  502    0  0.53375992988E+02 -0.34445761564E+02 -0.27268300082E+02  0.69257055284E+02  0.41800000000E+01 0. -1.
         -5    1    1    2    0  502  0.32013165482E+02  0.78551685608E+02 -0.69759802896E+02  0.10990501616E+03  0.41800000000E+01 0.  1.
        -11    1    3    3    0    0 -0.83789935211E+02 -0.21749588777E+02 -0.18046807941E+00  0.86566912982E+02  0.00000000000E+00 0.  1.
         11    1    3    3    0    0 -0.15992232597E+01 -0.22356335268E+02  0.51168123826E+02  0.55861794972E+02  0.00000000000E+00 0. -1.
</event>
<event>
 7    1  0.4274778E-006  0.1430013E+03  0.7561462E-02  0.1209347E+00
          4   -1    0    0  501    0  0.00000000000E+00  0.00000000000E+00  0.54728882762E+03  0.54728882762E+03  0.00000000000E+00 0. -1.
         -4   -1    0    0    0  501 -0.00000000000E+00 -0.00000000000E+00 -0.44049217066E+02  0.44049217066E+02  0.00000000000E+00 0.  1.
         23    2    1    2    0    0 -0.10848135260E+03  0.18688950772E+02  0.26737154076E+03  0.30255024195E+03  0.89059684218E+02 0.  0.
          5    1    1    2  502    0  0.63677772868E+01  0.38140251213E+02  0.11145301005E+03  0.11804436962E+03  0.41800000000E+01 0.  1.
         -5    1    1    2    0  502  0.10211357531E+03 -0.56829201986E+02  0.12441505974E+03  0.17074343311E+03  0.41800000000E+01 0.  1.
        -11    1    3    3    0    0 -0.11211997204E+02 -0.22033856814E+02  0.14713015954E+02  0.28769299016E+02  0.00000000000E+00 0.  1.
         11    1    3    3    0    0 -0.97269355392E+02  0.40722807587E+02  0.25265852481E+03  0.27378094293E+03  0.00000000000E+00 0. -1.
</event>
<event>
 7    1  0.4274778E-006  0.1049512E+03  0.7561462E-02  0.1270216E+00
          1   -1    0    0  501    0  0.00000000000E+00  0.00000000000E+00  0.55296577918E+03  0.55296577918E+03  0.00000000000E+00 0. -1.
         -1   -1    0    0    0  501 -0.00000000000E+00 -0.00000000000E+00 -0.35815950544E+02  0.35815950544E+02  0.00000000000E+00 0.  1.
         23    2    1    2    0    0  0.80916411493E+02  0.34664657620E+02  0.21102191766E+03  0.24657126887E+03  0.92293210822E+02 0.  0.
          5    1    1    2  502    0 -0.20843744291E+02  0.26193515405E+01 -0.59226086183E+01  0.22223239445E+02  0.41800000000E+01 0. -1.
         -5    1    1    2    0  502 -0.60072667202E+02 -0.37284009160E+02  0.31205051960E+03  0.31998722141E+03  0.41800000000E+01 0. -1.
        -11    1    3    3    0    0  0.43543740301E+02  0.58800717881E+02  0.81025711282E+02  0.10917301696E+03  0.00000000000E+00 0. -1.
         11    1    3    3    0    0  0.37372671192E+02 -0.24136060261E+02  0.12999620637E+03  0.13739825191E+03  0.00000000000E+00 0.  1.
</event>
<event>
 7    1  0.4274778E-006  0.1722142E+03  0.7561462E-02  0.1175558E+00
          1   -1    0    0  501    0  0.00000000000E+00  0.00000000000E+00  0.49605277150E+03  0.49605277150E+03  0.00000000000E+00 0. -1.
         -1   -1    0    0    0  501 -0.00000000000E+00 -0.00000000000E+00 -0.86570267100E+02  0.86570267100E+02  0.00000000000E+00 0.  1.
         23    2    1    2    0    0  0.16328211823E+03  0.10091421174E+02  0.28849777378E+03  0.34377703499E+03  0.90491974222E+02 0.  0.
          5    1    1    2  502    0 -0.28717955051E-01  0.38564268309E+01 -0.21148616721E+02  0.21899982691E+02  0.41800000000E+01 0. -1.
         -5    1    1    2    0  502 -0.16325340028E+03 -0.13947848005E+02  0.14213334735E+03  0.21694602092E+03  0.41800000000E+01 0. -1.
        -11    1    3    3    0    0  0.59029669414E+02 -0.26020233278E+02  0.52175187760E+02  0.82968696680E+02  0.00000000000E+00 0.  1.
         11    1    3    3    0    0  0.10425244882E+03  0.36111654452E+02  0.23632258602E+03  0.26080833831E+03  0.00000000000E+00 0. -1.
</event>
<event>
 7    1  0.4274778E-006  0.1262248E+03  0.7561462E-02  0.1233167E+00
          1   -1    0    0  501    0  0.00000000000E+00  0.00000000000E+00  0.24959364159E+03  0.24959364159E+03  0.00000000000E+00 0. -1.
         -1   -1    0    0    0  501 -0.00000000000E+00 -0.00000000000E+00 -0.89757168514E+02  0.89757168514E+02  0.00000000000E+00 0.  1.
         23    2    1    2    0    0 -0.61443846825E+02  0.66255116044E+02  0.12306089871E+03  0.18073227600E+03  0.96721683621E+02 0.  0.
          5    1    1    2  502    0  0.87863646552E+02 -0.71800028498E+01  0.30881955284E+02  0.93502622361E+02  0.41800000000E+01 0. -1.
         -5    1    1    2    0  502 -0.26419799727E+02 -0.59075113194E+02  0.58936190846E+01  0.65115911745E+02  0.41800000000E+01 0. -1.
        -11    1    3    3    0    0 -0.57129509474E+02  0.33335206451E+02  0.13086049673E+03  0.14662703178E+03  0.00000000000E+00 0. -1.
         11    1    3    3    0    0 -0.43143373514E+01  0.32919909592E+02 -0.77995980234E+01  0.34105244225E+02  0.00000000000E+00 0.  1.
</event>
<event>
 7    1  0.4274778E-006  0.1717487E+03  0.7561462E-02  0.1176036E+00
         -2   -1    0    0    0  501 -0.00000000000E+00  0.00000000000E+00  0.10041541732E+03  0.10041541732E+03  0.00000000000E+00 0.  1.
          2   -1    0    0  501    0  0.00000000000E+00 -0.00000000000E+00 -0.40643229380E+03  0.40643229380E+03  0.00000000000E+00 0. -1.
         23    2    1    2    0    0  0.57338570644E+02 -0.14642694860E+03 -0.22762917141E+03  0.29116014332E+03  0.90722799914E+02 0.  0.
          5    1    1    2  502    0 -0.84247019828E+02  0.93667996405E+02 -0.90395873652E+02  0.15511331430E+03  0.41800000000E+01 0. -1.
         -5    1    1    2    0  502  0.26908449184E+02  0.52758952195E+02  0.12008168572E+02  0.60574253496E+02  0.41800000000E+01 0. -1.
        -11    1    3    3    0    0  0.24446065090E+02 -0.42070527332E+02 -0.13181302867E+02  0.50411170525E+02  0.00000000000E+00 0.  1.
         11    1    3    3    0    0  0.32892505553E+02 -0.10435642127E+03 -0.21444786854E+03  0.24074897280E+03  0.00000000000E+00 0. -1.
</event>
<event>
 7    1  0.4429147E-006  0.1737141E+03  0.7561462E-02  0.1174029E+00
         -2   -1    0    0    0  501 -0.00000000000E+00  0.00000000000E+00  0.42844074213E+02  0.42844074213E+02  0.00000000000E+00 0. -1.
          2   -1    0    0  501    0  0.00000000000E+00 -0.00000000000E+00 -0.89348636749E+03  0.89348636749E+03  0.00000000000E+00 0.  1.
         23    2    1    2    0    0 -0.14538086058E+03  0.12318991478E+02 -0.57476974752E+03  0.60011537976E+03  0.92145831041E+02 0.  0.
          5    1    1    2  502    0  0.43912032337E+02  0.51090623907E+02 -0.64897276972E+02  0.93635716442E+02  0.41800000000E+01 0.  1.
         -5    1    1    2    0  502  0.10146882824E+03 -0.63409615385E+02 -0.21097526878E+03  0.24257934550E+03  0.41800000000E+01 0.  1.
        -11    1    3    3    0    0 -0.51889693326E+02 -0.27337634053E+02 -0.32906048029E+03  0.33424644531E+03  0.00000000000E+00 0. -1.
         11    1    3    3    0    0 -0.93491167252E+02  0.39656625531E+02 -0.24570926723E+03  0.26586893445E+03  0.00000000000E+00 0.  1.
</event>
<event>
 7    1  0.4274778E-006  0.1070567E+03  0.7561462E-02  0.1266120E+00
         -1   -1    0    0    0  501 -0.00000000000E+00  0.00000000000E+00  0.13662799399E+03  0.13662799399E+03  0.00000000000E+00 0.  1.
          1   -1    0    0  501    0  0.00000000000E+00 -0.00000000000E+00 -0.15897345456E+03  0.15897345456E+03  0.00000000000E+00 0. -1.
         23    2    1    2    0    0 -0.76284096719E+00  0.69740051961E+02 -0.81794641947E+02  0.14053129901E+03  0.90523067649E+02 0.  0.
          5    1    1    2  502    0  0.29381774185E+02 -0.78281140465E+02  0.82174663581E+02  0.11730888006E+03  0.41800000000E+01 0.  1.
         -5    1    1    2    0  502 -0.28618933218E+02  0.85410885038E+01 -0.22725482196E+02  0.37761269475E+02  0.41800000000E+01 0.  1.
        -11    1    3    3    0    0  0.20818580575E+02  0.75157129588E+02 -0.87849344299E+02  0.11747133573E+03  0.00000000000E+00 0. -1.
         11    1    3    3    0    0 -0.21581421542E+02 -0.54170776270E+01  0.60547023523E+01  0.23059963278E+02  0.00000000000E+00 0.  1.
</event>
<event>
 7    1  0.4274778E-006  0.9910832E+02  0.7561462E-02  0.1282182E+00
         -2   -1    0    0    0  501 -0.00000000000E+00  0.00000000000E+00  0.39658337024E+02  0.39658337024E+02  0.00000000000E+00 0.  1.
          2   -1    0    0  501    0  0.00000000000E+00 -0.00000000000E+00 -0.42316340570E+03  0.42316340570E+03  0.00000000000E+00 0. -1.
         23    2    1    2    0    0 -0.52249661394E+02 -0.86055633085E+01 -0.25479554619E+03  0.27569144765E+03  0.90999566554E+02 0.  0.
          5    1    1    2  502    0  0.31915160402E+02  0.45742433042E+02 -0.13308470850E+03  0.14436051981E+03  0.41800000000E+01 0.  1.
         -5    1    1    2    0  502  0.20334500992E+02 -0.37136869733E+02  0.43751860038E+01  0.42769775271E+02  0.41800000000E+01 0.  1.
        -11    1    3    3    0    0 -0.47718579030E+02 -0.43488794490E+02 -0.11868710526E+03  0.13511094325E+03  0.00000000000E+00 0. -1.
         11    1    3    3    0    0 -0.45310823647E+01  0.34883231181E+02 -0.13610844092E+03  0.14058050439E+03  0.00000000000E+00 0.  1.
</event>
<event>
 7    1  0.4274778E-006  0.1001257E+03  0.7561462E-02  0.1280032E+00
          2   -1    0    0  501    0  0.00000000000E+00  0.00000000000E+00  0.28495007615E+03  0.28495007615E+03  0.00000000000E+00 0. -1.
         -2   -1    0    0    0  501 -0.00000000000E+00 -0.00000000000E+00 -0.57604228343E+02  0.57604228343E+02  0.00000000000E+00 0.  1.
         23    2    1    2    0    0  0.51149565165E+02 -0.36240795392E+02  0.13318552376E+03  0.17390635185E+03  0.92603251596E+02 0.  0.
          5    1    1    2  502    0 -0.34230055422E+02  0.68255692225E+02  0.10242251869E+02  0.77155118681E+02  0.41800000000E+01 0.  1.
         -5    1    1    2    0  502 -0.16919509743E+02 -0.32014896833E+02  0.83918072180E+02  0.91492833968E+02  0.41800000000E+01 0.  1.
        -11    1    3    3    0    0 -0.66681094159E+01 -0.28171428158E+02  0.10530575519E+03  0.10921261431E+03  0.00000000000E+00 0. -1.
         11    1    3    3    0    0  0.57817674581E+02 -0.80693672339E+01  0.27879768574E+02  0.64693737543E+02  0.00000000000E+00 0.  1.
</event>
<event>
 7    1  0.4274778E-006  0.1543645E+03  0.7561462E-02  0.1195210E+00
         -1   -1    0    0    0  501 -0.00000000000E+00  0.00000000000E+00  0.14319518783E+03  0.14319518783E+03  0.00000000000E+00 0.  1.
          1   -1    0    0  501    0  0.00000000000E+00 -0.00000000000E+00 -0.22609105099E+03  0.22609105099E+03  0.00000000000E+00 0. -1.
         23    2    1    2    0    0  0.13504420516E+02  0.14173830318E+03 -0.27117454869E+02  0.17172250899E+03  0.92093147272E+02 0.  0.
          5    1    1    2  502    0 -0.17947189317E+02 -0.12606040839E+02 -0.64241535963E+02  0.68010743364E+02  0.41800000000E+01 0. -1.
         -5    1    1    2    0  502  0.44427688005E+01 -0.12913226234E+03  0.84631276709E+01  0.12955298646E+03  0.41800000000E+01 0. -1.
        -11    1    3    3    0    0  0.40426769359E+02  0.93888976209E+02 -0.48064933721E+02  0.11295884821E+03  0.00000000000E+00 0.  1.
         11    1    3    3    0    0 -0.26922348843E+02  0.47849326968E+02  0.20947478852E+02  0.58763660784E+02  0.00000000000E+00 0. -1.
</event>
<event>
 7    1  0.4274778E-006  0.8081928E+02  0.7561462E-02  0.1326742E+00
         -2   -1    0    0    0  501 -0.00000000000E+00  0.00000000000E+00  0.67105140478E+02  0.67105140478E+02  0.00000000000E+00 0.  1.
          2   -1    0    0  501    0  0.00000000000E+00 -0.00000000000E+00 -0.29332214687E+03  0.29332214687E+03  0.00000000000E+00 0. -1.
         23    2    1    2    0    0  0.28376398144E+02  0.51710928593E+02 -0.18854006916E+03  0.21719016351E+03  0.90249483878E+02 0.  0.
          5    1    1    2  502    0 -0.15939693936E+02 -0.11800888412E+02 -0.80639522314E+02  0.83147698520E+02  0.41800000000E+01 0. -1.
         -5    1    1    2    0  502 -0.12436704208E+02 -0.39910040182E+02  0.42962585077E+02  0.60089425321E+02  0.41800000000E+01 0.  1.
        -11    1    3    3    0    0  0.48869427533E+02  0.59886092154E+02 -0.10256698911E+03  0.12843111864E+03  0.00000000000E+00 0. -1.
         11    1    3    3    0    0 -0.20493029389E+02 -0.81751635602E+01 -0.85973080051E+02  0.88759044870E+02  0.00000000000E+00 0.  1.
</event>
<event>
 7    1  0.4274778E-006  0.1013158E+03  0.7561462E-02  0.1277553E+00
          1   -1    0    0  501    0  0.00000000000E+00  0.00000000000E+00  0.19938303154E+02  0.19938303154E+02  0.00000000000E+00 0. -1.
         -1   -1    0    0    0  501 -0.00000000000E+00 -0.00000000000E+00 -0.62133251698E+03  0.62133251698E+03  0.00000000000E+00 0.  1.
         23    2    1    2    0    0 -0.24878827147E+02  0.72711548678E+01 -0.27208495585E+03  0.28805034373E+03  0.90944772196E+02 0.  0.
          5    1    1    2  502    0  0.48588747213E+02 -0.47194122353E+02 -0.26646713987E+03  0.27497338156E+03  0.41800000000E+01 0.  1.
         -5    1    1    2    0  502 -0.23709920066E+02  0.39922967485E+02 -0.62842118106E+02  0.78247094837E+02  0.41800000000E+01 0.  1.
        -11    1    3    3    0    0  0.25088401228E+02 -0.19207557945E+02 -0.15289578431E+03  0.15612648404E+03  0.00000000000E+00 0.  1.
         11    1    3    3    0    0 -0.49967228375E+02  0.26478712813E+02 -0.11918917154E+03  0.13192385970E+03  0.00000000000E+00 0. -1.
</event>
<event>
 7    1  0.4274778E-006  0.1984541E+03  0.7561462E-02  0.1151050E+00
         -1   -1    0    0    0  501 -0.00000000000E+00  0.00000000000E+00  0.22378690557E+03  0.22378690557E+03  0.00000000000E+00 0.  1.
          1   -1    0    0  501    0  0.00000000000E+00 -0.00000000000E+00 -0.22353448049E+03  0.22353448049E+03  0.00000000000E+00 0. -1.
         23    2    1    2    0    0  0.14458413876E+03  0.10854887512E+03 -0.72578947675E+02  0.21574172265E+03  0.92678777385E+02 0.  0.
          5    1    1    2  502    0  0.18312169134E+02 -0.12444016796E+02 -0.10502863058E+02  0.24859035074E+02  0.41800000000E+01 0.  1.
         -5    1    1    2    0  502 -0.16289630790E+03 -0.96104858320E+02  0.83334235813E+02  0.20672062833E+03  0.41800000000E+01 0.  1.
        -11    1    3    3    0    0  0.57570277247E+02  0.68297935883E+02  0.91080569431E+01  0.89788092581E+02  0.00000000000E+00 0.  1.
         11    1    3    3    0    0  0.87013861515E+02  0.40250939233E+02 -0.81687004618E+02  0.12595363007E+03  0.00000000000E+00 0. -1.
</event>
<event>
 7    1  0.4274778E-006  0.1343136E+03  0.7561462E-02  0.1221192E+00
          2   -1    0    0  501    0  0.00000000000E+00  0.00000000000E+00  0.10725254556E+03  0.10725254556E+03  0.00000000000E+00 0. -1.
         -2   -1    0    0    0  501 -0.00000000000E+00 -0.00000000000E+00 -0.17816027470E+03  0.17816027470E+03  0.00000000000E+00 0.  1.
         23    2    1    2    0    0  0.85287855179E+02 -0.24554800146E+02 -0.32990142750E+02  0.12742065512E+03  0.85268501688E+02 0.  0.
          5    1    1    2  502    0 -0.77606621095E+02 -0.37216096662E+02 -0.24002387354E+01  0.86203590613E+02  0.41800000000E+01 0. -1.
         -5    1    1    2    0  502 -0.76812340839E+01  0.61770896808E+02 -0.35517347650E+02  0.71788574534E+02  0.41800000000E+01 0. -1.
        -11    1    3    3    0    0  0.12621851834E+02  0.27784515844E+02  0.35030967302E+01  0.30717456781E+02  0.00000000000E+00 0.  1.
         11    1    3    3    0    0  0.72666003344E+02 -0.52339315990E+02 -0.36493239480E+02  0.96703198334E+02  0.00000000000E+00 0. -1.
</event>
<event>
 7    1  0.4274778E-006  0.9724478E+02  0.7561462E-02  0.1286199E+00
         -1   -1    0    0    0  501 -0.00000000000E+00  0.00000000000E+00  0.45293404703E+03  0.45293404703E+03  0.00000000000E+00 0.  1.
          1   -1    0    0  501    0  0.00000000000E+00 -0.00000000000E+00 -0.48386932986E+02  0.48386932986E+02  0.00000000000E+00 0. -1.
         23    2    1    2    0    0  0.31336112938E+02  0.71744657316E+02  0.78426582915E+02  0.14336646722E+03  0.90961349961E+02 0.  0.
          5    1    1    2  502    0  0.18641919627E+02 -0.47998712867E+02  0.36967800610E+02  0.63525493199E+02  0.41800000000E+01 0. -1.
         -5    1    1    2    0  502 -0.49978032566E+02 -0.23745944449E+02  0.28915273052E+03  0.29442901960E+03  0.41800000000E+01 0. -1.
        -11    1    3    3    0    0  0.58116539346E+00  0.49204737069E+02  0.90801789261E+02  0.10327830768E+03  0.00000000000E+00 0.  1.
         11    1    3    3    0    0  0.30754947545E+02  0.22539920248E+02 -0.12375206346E+02  0.40088159541E+02  0.00000000000E+00 0. -1.
</event>
<event>
 7    1  0.4274778E-006  0.1091181E+03  0.7561462E-02  0.1262212E+00
          2   -1    0    0  501    0  0.00000000000E+00  0.00000000000E+00  0.39245279618E+03  0.39245279618E+03  0.00000000000E+00 0. -1.
         -2   -1    0    0    0  501 -0.00000000000E+00 -0.00000000000E+00 -0.42407982874E+02  0.42407982874E+02  0.00000000000E+00 0.  1.
         23    2    1    2    0    0 -0.31934619040E+02  0.37886012017E+02  0.23743801221E+03  0.25940910217E+03  0.91984253256E+02 0.  0.
          5    1    1    2  502    0  0.44264723155E+02  0.24777415900E+02  0.97048154725E+02  0.10958605199E+03  0.41800000000E+01 0. -1.
         -5    1    1    2    0  502 -0.12330104115E+02 -0.62663427917E+02  0.15558646370E+02  0.65865624894E+02  0.41800000000E+01 0. -1.
        -11    1    3    3    0    0 -0.12217936720E+02  0.67037628593E+02  0.13756829662E+03  0.15351989402E+03  0.00000000000E+00 0.  1.
         11    1    3    3    0    0 -0.19716682321E+02 -0.29151616576E+02  0.99869715591E+02  0.10588920815E+03  0.00000000000E+00 0. -1.
</event>
<event>
 7    1  0.4274778E-006  0.1662912E+03  0.7561462E-02  0.1181772E+00
         -2   -1    0    0    0  501 -0.00000000000E+00  0.00000000000E+00  0.39721528574E+03  0.39721528574E+03  0.00000000000E+00 0.  1.
          2   -1    0    0  501    0  0.00000000000E+00 -0.00000000000E+00 -0.82950772146E+02  0.82950772146E+02  0.00000000000E+00 0. -1.
         23    2    1    2    0    0  0.13396894344E+03 -0.54313220328E+02  0.14648742310E+03  0.22582170366E+03  0.92947689640E+02 0.  0.
          5    1    1    2  502    0 -0.94077124153E+02  0.87762680254E+02  0.15323946219E+03  0.20013145307E+03  0.41800000000E+01 0. -1.
         -5    1    1    2    0  502 -0.39891819288E+02 -0.33449459925E+02  0.14537628307E+02  0.54212901160E+02  0.41800000000E+01 0. -1.
        -11    1    3    3    0    0  0.17767315953E+02 -0.26900245143E+02 -0.53368467879E+01  0.32676943531E+02  0.00000000000E+00 0. -1.
         11    1    3    3    0    0  0.11620162749E+03 -0.27412975186E+02  0.15182426988E+03  0.19314476013E+03  0.00000000000E+00 0.  1.
</event>
<event>
 7    1  0.4274778E-006  0.1097671E+03  0.7561462E-02  0.1261002E+00
          2   -1    0    0  501    0  0.00000000000E+00  0.00000000000E+00  0.97321814791E+02  0.97321814791E+02  0.00000000000E+00 0. -1.
         -2   -1    0    0    0  501 -0.00000000000E+00 -0.00000000000E+00 -0.18039719160E+03  0.18039719160E+03  0.00000000000E+00 0.  1.
         23    2    1    2    0    0 -0.21563215225E+02 -0.68520607376E+02 -0.10927923729E+02  0.11643460825E+03  0.90981056241E+02 0.  0.
          5    1    1    2  502    0 -0.34166247352E+02  0.78369304334E+02 -0.30393224283E+02  0.90831166469E+02  0.41800000000E+01 0.  1.
         -5    1    1    2    0  502  0.55729462576E+02 -0.98486969574E+01 -0.41754228795E+02  0.70453231672E+02  0.41800000000E+01 0.  1.
        -11    1    3    3    0    0  0.88765398772E+00 -0.43757181494E+02  0.37470733645E+02  0.57615403685E+02  0.00000000000E+00 0. -1.
         11    1    3    3    0    0 -0.22450869212E+02 -0.24763425882E+02 -0.48398657374E+02  0.58819204563E+02  0.00000000000E+00 0.  1.
</event>
<event>
 7    1  0.4274778E-006  0.1103475E+03  0.7561462E-02  0.1259928E+00
         -1   -1    0    0    0  501 -0.00000000000E+00  0.00000000000E+00  0.40027635084E+03  0.40027635084E+03  0.00000000000E+00 0.  1.
          1   -1    0    0  501    0  0.00000000000E+00 -0.00000000000E+00 -0.46104817575E+02  0.46104817575E+02  0.00000000000E+00 0. -1.
         23    2    1    2    0    0  0.61064057318E+02 -0.43185888360E+02  0.10570826895E+03  0.15832861008E+03  0.91103625598E+02 0.  0.
          5    1    1    2  502    0  0.17652651546E+02  0.22082589908E+02  0.22482275137E+01  0.28666771891E+02  0.41800000000E+01 0.  1.
         -5    1    1    2    0  502 -0.78716708864E+02  0.21103298451E+02  0.24621503680E+03  0.25938578644E+03  0.41800000000E+01 0.  1.
        -11    1    3    3    0    0  0.62346405846E+02  0.47805248321E+01  0.86291815366E+02  0.10656549694E+03  0.00000000000E+00 0.  1.
         11    1    3    3    0    0 -0.12823485275E+01 -0.47966413192E+02  0.19416453583E+02  0.51763113140E+02  0.00000000000E+00 0. -1.
</event>
<event>
 7    1  0.4274778E-006  0.1860295E+03  0.7561462E-02  0.1162092E+00
         -2   -1    0    0    0  501 -0.00000000000E+00  0.00000000000E+00  0.71810196207E+03  0.71810196207E+03  0.00000000000E+00 0. -1.
          2   -1    0    0  501    0  0.00000000000E+00 -0.00000000000E+00 -0.62600391097E+02  0.62600391097E+02  0.00000000000E+00 0.  1.
         23    2    1    2    0    0 -0.16778825438E+03 -0.42436786979E+02  0.41569928809E+03  0.45959576699E+03  0.92024951582E+02 0.  0.
          5    1    1    2  502    0  0.16230731983E+02  0.29807084229E+02 -0.32651127213E+01  0.34351598100E+02  0.41800000000E+01 0. -1.
         -5    1    1    2    0  502  0.15155752239E+03  0.12629702749E+02  0.24306739560E+03  0.28675498808E+03  0.41800000000E+01 0. -1.
        -11    1    3    3    0    0 -0.41389069159E+02 -0.42499709673E+02  0.71407750886E+02  0.92835054019E+02  0.00000000000E+00 0.  1.
         11    1    3    3    0    0 -0.12639918522E+03  0.62922694235E-01  0.34429153721E+03  0.36676071297E+03  0.00000000000E+00 0. -1.
</event>
<event>
 7    1  0.4274778E-006  0.1674440E+03  0.7561462E-02  0.1180540E+00
          2   -1    0    0  501    0  0.00000000000E+00  0.00000000000E+00  0.78121247767E+03  0.78121247767E+03  0.00000000000E+00 0. -1.
         -2   -1    0    0    0  501 -0.00000000000E+00 -0.00000000000E+00 -0.39687681678E+02  0.39687681678E+02  0.00000000000E+00 0.  1.
         23    2    1    2    0    0 -0.99628362468E+02  0.88770346862E+02  0.43170881166E+03  0.46112282337E+03  0.91955288474E+02 0.  0.
          5    1    1    2  502    0 -0.22760217665E+02  0.71878858961E+01  0.68479188644E+02  0.72639967574E+02  0.41800000000E+01 0.  1.
         -5    1    1    2    0  502  0.12238858013E+03 -0.95958232758E+02  0.24133679569E+03  0.28713736841E+03  0.41800000000E+01 0.  1.
        -11    1    3    3    0    0 -0.17151188762E+02  0.67857794662E+02  0.26324083651E+03  0.27238682343E+03  0.00000000000E+00 0. -1.
         11    1    3    3    0    0 -0.82477173706E+02  0.20912552200E+02  0.16846797515E+03  0.18873599994E+03  0.00000000000E+00 0.  1.
</event>
<event>
 7    1  0.4274778E-006  0.1115516E+03  0.7561462E-02  0.1257723E+00
         -1   -1    0    0    0  501 -0.00000000000E+00  0.00000000000E+00  0.15952317665E+03  0.15952317665E+03  0.00000000000E+00 0.  1.
          1   -1    0    0  501    0  0.00000000000E+00 -0.00000000000E+00 -0.93189158027E+02  0.93189158027E+02  0.00000000000E+00 0. -1.
         23    2    1    2    0    0 -0.46043935913E+02  0.15317191294E+02 -0.48617460433E+01  0.10081860665E+03  0.88238849092E+02 0.  0.
          5    1    1    2  502    0  0.34051447209E+02  0.51932153501E+02  0.51201606866E+02  0.80594829672E+02  0.41800000000E+01 0.  1.
         -5    1    1    2    0  502  0.11992488704E+02 -0.67249344794E+02  0.19994157804E+02  0.71298898357E+02  0.41800000000E+01 0.  1.
        -11    1    3    3    0    0 -0.52848078583E+02  0.40345129879E+02  0.14990146167E+02  0.68156829423E+02  0.00000000000E+00 0.  1.
         11    1    3    3    0    0  0.68041426706E+01 -0.25027938586E+02 -0.19851892210E+02  0.32661777228E+02  0.00000000000E+00 0. -1.
</event>
<event>
 7    1  0.4274778E-006  0.1611191E+03  0.7561462E-02  0.1187439E+00
          1   -1    0    0  501    0  0.00000000000E+00  0.00000000000E+00  0.14572195599E+03  0.14572195599E+03  0.00000000000E+00 0. -1.
         -1   -1    0    0    0  501 -0.00000000000E+00 -0.00000000000E+00 -0.28919017522E+03  0.28919017522E+03  0.00000000000E+00 0.  1.
         23    2    1    2    0    0 -0.40586474814E+02  0.11740165822E+03  0.60400869104E+02  0.16539268990E+03  0.90972883829E+02 0.  0.
          5    1    1    2  502    0 -0.18000234746E+02 -0.11380250100E+03 -0.15405755649E+03  0.19242198626E+03  0.41800000000E+01 0.  1.
         -5    1    1    2    0  502  0.58586709560E+02 -0.35991572136E+01 -0.49811531849E+02  0.77097455048E+02  0.41800000000E+01 0.  1.
        -11    1    3    3    0    0 -0.47606834661E+02  0.12733056505E+03  0.40103228122E+02  0.14173126828E+03  0.00000000000E+00 0.  1.
         11    1    3    3    0    0  0.70203598479E+01 -0.99289068343E+01  0.20297640982E+02  0.23661421613E+02  0.00000000000E+00 0. -1.
</event>
<event>
 7    1  0.4274778E-006  0.1035845E+03  0.7561462E-02  0.1272934E+00
          2   -1    0    0  501    0  0.00000000000E+00  0.00000000000E+00  0.27161893755E+03  0.27161893755E+03  0.00000000000E+00 0. -1.
         -2   -1    0    0    0  501 -0.00000000000E+00 -0.00000000000E+00 -0.52367771309E+02  0.52367771309E+02  0.00000000000E+00 0.  1.
         23    2    1    2    0    0 -0.45415427740E+02 -0.13356855069E+02  0.11424365239E+03  0.15394252570E+03  0.91682727114E+02 0.  0.
          5    1    1    2  502    0  0.18666095512E+02  0.59001260933E+02  0.12316225420E+02  0.63235541604E+02  0.41800000000E+01 0. -1.
         -5    1    1    2    0  502  0.26749332227E+02 -0.45644405864E+02  0.92691288428E+02  0.10680864156E+03  0.41800000000E+01 0. -1.
        -11    1    3    3    0    0 -0.64486695050E+02 -0.25632326322E+02  0.11117557201E+03  0.13105555236E+03  0.00000000000E+00 0. -1.
         11    1    3    3    0    0  0.19071267311E+02  0.12275471253E+02  0.30680803788E+01  0.22886973337E+02  0.00000000000E+00 0.  1.
</event>
<event>
 7    1  0.4274778E-006  0.1280839E+03  0.7561462E-02  0.1230327E+00
         -1   -1    0    0    0  501 -0.00000000000E+00  0.00000000000E+00  0.24751921584E+02  0.24751921584E+02  0.00000000000E+00 0.  1.
          1   -1    0    0  501    0  0.00000000000E+00 -0.00000000000E+00 -0.71513161662E+03  0.71513161662E+03  0.00000000000E+00 0. -1.
         23    2    1    2    0    0 -0.98983897716E+00  0.73955009173E+02 -0.37231179051E+03  0.39019182561E+03  0.90350806615E+02 0.  0.
          5    1    1    2  502    0  0.54065607828E+02 -0.72940210813E+02 -0.17842961069E+03  0.20024475692E+03  0.41800000000E+01 0.  1.
         -5    1    1    2    0  502 -0.53075768851E+02 -0.10147983598E+01 -0.13963829383E+03  0.14944695567E+03  0.41800000000E+01 0.  1.
        -11    1    3    3    0    0  0.20949978965E+02  0.84945084895E+02 -0.23613812787E+03  0.25182490842E+03  0.00000000000E+00 0.  1.
         11    1    3    3    0    0 -0.21939817942E+02 -0.10990075722E+02 -0.13617366264E+03  0.13836691718E+03  0.00000000000E+00 0. -1.
</event>
<event>
 7    1  0.4274778E-006  0.9107042E+02  0.7561462E-02  0.1300280E+00
         -1   -1    0    0    0  501 -0.00000000000E+00  0.00000000000E+00  0.47676523319E+02  0.47676523319E+02  0.00000000000E+00 0.  1.
          1   -1    0    0  501    0  0.00000000000E+00 -0.00000000000E+00 -0.32741550837E+03  0.32741550837E+03  0.00000000000E+00 0. -1.
         23    2    1    2    0    0 -0.24779602004E+02  0.16076604620E+02 -0.20550657246E+03  0.22667265785E+03  0.90967338118E+02 0.  0.
          5    1    1    2  502    0  0.13443675852E+02  0.53417574623E+02 -0.47936486054E+02  0.73140609747E+02  0.41800000000E+01 0.  1.
         -5    1    1    2    0  502  0.11335926152E+02 -0.69494179243E+02 -0.26295926544E+02  0.75278764092E+02  0.41800000000E+01 0.  1.
        -11    1    3    3    0    0  0.14178444152E+02 -0.10171995852E+00  0.25296455021E+01  0.14402698771E+02  0.00000000000E+00 0.  1.
         11    1    3    3    0    0 -0.38958046156E+02  0.16178324579E+02 -0.20803621796E+03  0.21226995908E+03  0.00000000000E+00 0. -1.
</event>
<event>
 7    1  0.4274778E-006  0.8949352E+02  0.7561462E-02  0.1304083E+00
          2   -1    0    0  501    0  0.00000000000E+00  0.00000000000E+00  0.17338770156E+03  0.17338770156E+03  0.00000000000E+00 0. -1.
         -2   -1    0    0    0  501 -0.00000000000E+00 -0.00000000000E+00 -0.34803467642E+03  0.34803467642E+03  0.00000000000E+00 0.  1.
         23    2    1    2    0    0 -0.72902101064E+02  0.43246640989E+02  0.12765993760E+03  0.17646922986E+03  0.87517661768E+02 0.  0.
          5    1    1    2  502    0  0.49002956759E+02 -0.37827137801E+02 -0.25579913310E+02  0.67111746292E+02  0.41800000000E+01 0. -1.
         -5    1    1    2    0  502  0.23899144305E+02 -0.54195031883E+01 -0.27672699915E+03  0.27784140183E+03  0.41800000000E+01 0.  1.
        -11    1    3    3    0    0 -0.31653043548E+02  0.39565001845E+02  0.98828496861E+01  0.51623398326E+02  0.00000000000E+00 0.  1.
         11    1    3    3    0    0 -0.41249057517E+02  0.36816391445E+01  0.11777708792E+03  0.12484583153E+03  0.00000000000E+00 0. -1.
</event>
<event>
 7    1  0.4274778E-006  0.1660765E+03  0.7561462E-02  0.1182002E+00
         -1   -1    0    0    0  501 -0.00000000000E+00  0.00000000000E+00  0.14736815210E+04  0.14736815210E+04  0.00000000000E+00 0.  1.
          1   -1    0    0  501    0  0.00000000000E+00 -0.00000000000E+00 -0.26148276962E+02  0.26148276962E+02  0.00000000000E+00 0. -1.
         23    2    1    2    0    0 -0.13090042537E+03  0.46040093585E+02  0.35631309201E+03  0.39273275706E+03  0.89584526297E+02 0.  0.
          5    1    1    2  502    0 -0.14793863886E+02 -0.22733273138E+02  0.36487445862E+03  0.36590504652E+03  0.41800000000E+01 0. -1.
         -5    1    1    2    0  502  0.14569428925E+03 -0.23306820447E+02  0.72634569338E+03  0.74119199435E+03  0.41800000000E+01 0. -1.
        -11    1    3    3    0    0 -0.97778492184E+02 -0.31181085067E+01  0.27664083986E+03  0.29342888476E+03  0.00000000000E+00 0.  1.
         11    1    3    3    0    0 -0.33121933185E+02  0.49158202091E+02  0.79672252147E+02  0.99303872295E+02  0.00000000000E+00 0. -1.
</event>
<event>
 7    1  0.4274778E-006  0.1129855E+03  0.7561462E-02  0.1255139E+00
          4   -1    0    0  501    0  0.00000000000E+00  0.00000000000E+00  0.61077744730E+02  0.61077744730E+02  0.00000000000E+00 0. -1.
         -4   -1    0    0    0  501 -0.00000000000E+00 -0.00000000000E+00 -0.28208330228E+03  0.28208330228E+03  0.00000000000E+00 0.  1.
         23    2    1    2    0    0  0.17571411089E+02 -0.50387454121E+02 -0.32979904136E+02  0.11111029831E+03  0.91707002419E+02 0.  0.
          5    1    1    2  502    0  0.10049835618E+02  0.85558415733E+02 -0.15076584073E+03  0.17369240867E+03  0.41800000000E+01 0.  1.
         -5    1    1    2    0  502 -0.27621246707E+02 -0.35170961611E+02 -0.37259812690E+02  0.58358340038E+02  0.41800000000E+01 0.  1.
        -11    1    3    3    0    0 -0.28579137544E+02 -0.37004571859E+02 -0.41251033718E+02  0.62351850205E+02  0.00000000000E+00 0.  1.
         11    1    3    3    0    0  0.46150548633E+02 -0.13382882263E+02  0.82711295818E+01  0.48758448102E+02  0.00000000000E+00 0. -1.
</event>
<event>
 7    1  0.4274778E-006  0.1134940E+03  0.7561462E-02  0.1254233E+00
          1   -1    0    0  501    0  0.00000000000E+00  0.00000000000E+00  0.37437274682E+02  0.37437274682E+02  0.00000000000E+00 0. -1.
         -1   -1    0    0    0  501 -0.00000000000E+00 -0.00000000000E+00 -0.43182688425E+03  0.43182688425E+03  0.00000000000E+00 0.  1.
         23    2    1    2    0    0  0.42537104499E+01 -0.54309327713E+02 -0.10024855702E+03  0.14502014291E+03  0.89517995591E+02 0.  0.
          5    1    1    2  502    0  0.56189485116E+02  0.85377776664E+01 -0.90960118905E+02  0.10733763327E+03  0.41800000000E+01 0.  1.
         -5    1    1    2    0  502 -0.60443195566E+02  0.45771550046E+02 -0.20318093364E+03  0.21690638275E+03  0.41800000000E+01 0.  1.
        -11    1    3    3    0    0  0.39145507976E+02 -0.16110916101E+02 -0.77911268787E+02  0.88668473633E+02  0.00000000000E+00 0.  1.
         11    1    3    3    0    0 -0.34891797526E+02 -0.38198411612E+02 -0.22337288233E+02  0.56351669274E+02  0.00000000000E+00 0. -1.
</event>
<event>
 7    1  0.4274778E-006  0.1184231E+03  0.7561462E-02  0.1245721E+00
         -2   -1    0    0    0  501 -0.00000000000E+00  0.00000000000E+00  0.14494301108E+03  0.14494301108E+03  0.00000000000E+00 0.  1.
          2   -1    0    0  501    0  0.00000000000E+00 -0.00000000000E+00 -0.16145704701E+03  0.16145704701E+03  0.00000000000E+00 0. -1.
         23    2    1    2    0    0  0.49313207682E+02  0.39625108212E+02 -0.92884009871E+02  0.14676306417E+03  0.94392881420E+02 0.  0.
          5    1    1    2  502    0 -0.66518195804E+01 -0.72860525188E+02  0.75744518563E+02  0.10539263412E+03  0.41800000000E+01 0. -1.
         -5    1    1    2    0  502 -0.42661388101E+02  0.33235416976E+02  0.62545537789E+00  0.54244359806E+02  0.41800000000E+01 0. -1.
        -11    1    3    3    0    0  0.54642177251E+02  0.64125833212E+02 -0.86797065755E+02  0.12096123612E+03  0.00000000000E+00 0. -1.
         11    1    3    3    0    0 -0.53289695689E+01 -0.24500725000E+02 -0.60869441154E+01  0.25801828052E+02  0.00000000000E+00 0.  1.
</event>
<event>
 6    1  0.4274778E-006  0.5090119E+02  0.7561462E-02  0.1440541E+00
         -2   -1    0    0    0  501 -0.00000000000E+00  0.00000000000E+00  0.30563880502E+02  0.30563880502E+02  0.00000000000E+00 0.  1.
          2   -1    0    0  501    0  0.00000000000E+00 -0.00000000000E+00 -0.25674253036E+03  0.25674253036E+03  0.00000000000E+00 0. -1.
          5    1    1    2  502    0 -0.12679119544E+02 -0.32233277524E+02 -0.15392888450E+03  0.15783319719E+03  0.41800000000E+01 0. -1.
         -5    1    1    2    0  502  0.53878674834E+00  0.34968350998E+02  0.65996685827E+01  0.35834395322E+02  0.41800000000E+01 0. -1.
        -11    1    1    2    0    0  0.55932729652E+01 -0.15972944778E+02 -0.40585517767E+01  0.17403778609E+02  0.00000000000E+00 0.  1.
         11    1    1    2    0    0  0.65470598306E+01  0.13237871303E+02 -0.74790882158E+02  0.76235039733E+02  0.00000000000E+00 0. -1.
</event>
<event>
 7    1  0.4274778E-006  0.1062620E+03  0.7561462E-02  0.1267653E+00
         -1   -1    0    0    0  501 -0.00000000000E+00  0.00000000000E+00  0.14662845524E+03  0.14662845524E+03  0.00000000000E+00 0.  1.
          1   -1    0    0  501    0  0.00000000000E+00 -0.00000000000E+00 -0.94415739923E+02  0.94415739923E+02  0.00000000000E+00 0. -1.
         23    2    1    2    0    0 -0.24664214804E+02  0.39066943251E+02  0.11364814712E+02  0.10157933079E+03  0.89747712413E+02 0.  0.
          5    1    1    2  502    0 -0.12381516749E+01 -0.73326534476E+02  0.57424473263E+02  0.93238169262E+02  0.41800000000E+01 0.  1.
         -5    1    1    2    0  502  0.25902366479E+02  0.34259591225E+02 -0.16576572655E+02  0.46226695113E+02  0.41800000000E+01 0.  1.
        -11    1    3    3    0    0 -0.48815113217E+02 -0.13487969440E+01 -0.10048273514E+02  0.49856818312E+02  0.00000000000E+00 0. -1.
         11    1    3    3    0    0  0.24150898413E+02  0.40415740195E+02  0.21413088226E+02  0.51722512478E+02  0.00000000000E+00 0.  1.
</event>
<event>
 7    1  0.4274778E-006  0.1063045E+03  0.7561462E-02  0.1267571E+00
          1   -1    0    0  501    0  0.00000000000E+00  0.00000000000E+00  0.13179755782E+03  0.13179755782E+03  0.00000000000E+00 0. -1.
         -1   -1    0    0    0  501 -0.00000000000E+00 -0.00000000000E+00 -0.10111379933E+03  0.10111379933E+03  0.00000000000E+00 0.  1.
         23    2    1    2    0    0 -0.16563152744E+02  0.36751963549E+02  0.31621911691E+02  0.10148083771E+03  0.87597775485E+02 0.  0.
          5    1    1    2  502    0  0.27367120613E+01 -0.77020870531E+02  0.25324710496E+02  0.81231259081E+02  0.41800000000E+01 0.  1.
         -5    1    1    2    0  502  0.13826440683E+02  0.40268906982E+02 -0.26262863696E+02  0.50199260364E+02  0.41800000000E+01 0.  1.
        -11    1    3    3    0    0  0.85518573679E+01 -0.24764411521E+02 -0.33180023589E+01  0.26408700879E+02  0.00000000000E+00 0.  1.
         11    1    3    3    0    0 -0.25115010112E+02  0.61516375070E+02  0.34939914050E+02  0.75072136832E+02  0.00000000000E+00 0. -1.
</event>
<event>
 7    1  0.4274778E-006  0.9247513E+02  0.7561462E-02  0.1296966E+00
         -1   -1    0    0    0  501 -0.00000000000E+00  0.00000000000E+00  0.77083942208E+02  0.77083942208E+02  0.00000000000E+00 0.  1.
          1   -1    0    0  501    0  0.00000000000E+00 -0.00000000000E+00 -0.15369734297E+03  0.15369734297E+03  0.00000000000E+00 0. -1.
         23    2    1    2    0    0 -0.99176839920E+01 -0.10123294636E+02 -0.30795990712E+02  0.96816343948E+02  0.90687208918E+02 0.  0.
          5    1    1    2  502    0 -0.13497748486E+02  0.56157639010E+02  0.89209602431E+01  0.58591173099E+02  0.41800000000E+01 0. -1.
         -5    1    1    2    0  502  0.23415432478E+02 -0.46034344375E+02 -0.54738370296E+02  0.75373768134E+02  0.41800000000E+01 0. -1.
        -11    1    3    3    0    0 -0.12715133001E+02  0.31260661104E+02 -0.41973833776E+02  0.53858205147E+02  0.00000000000E+00 0. -1.
         11    1    3    3    0    0  0.27974490086E+01 -0.41383955740E+02  0.11177843064E+02  0.42958138800E+02  0.00000000000E+00 0.  1.
</event>
<event>
 7    1  0.4274778E-006  0.1213399E+03  0.7561462E-02  0.1240903E+00
         -3   -1    0    0    0  501 -0.00000000000E+00  0.00000000000E+00  0.51620304442E+02  0.51620304442E+02  0.00000000000E+00 0.  1.
          3   -1    0    0  501    0  0.00000000000E+00 -0.00000000000E+00 -0.46797323584E+03  0.46797323584E+03  0.00000000000E+00 0. -1.
         23    2    1    2    0    0 -0.84383574684E+02  0.52404608944E+02 -0.27408973253E+03  0.30567500815E+03  0.91897760669E+02 0.  0.
          5    1    1    2  502    0  0.40745478587E+01 -0.33302930618E+02  0.14430181639E+02  0.36761252293E+02  0.41800000000E+01 0. -1.
         -5    1    1    2    0  502  0.80309026825E+02 -0.19101678325E+02 -0.15669338051E+03  0.17715727984E+03  0.41800000000E+01 0. -1.
        -11    1    3    3    0    0 -0.99191360039E+02  0.40212113493E+02 -0.26195443391E+03  0.28297714647E+03  0.00000000000E+00 0. -1.
         11    1    3    3    0    0  0.14807785356E+02  0.12192495451E+02 -0.12135298618E+02  0.22697861684E+02  0.00000000000E+00 0.  1.
</event>
<event>
 7    1  0.4274778E-006  0.9778426E+02  0.7561462E-02  0.1285026E+00
         -4   -1    0    0    0  501 -0.00000000000E+00  0.00000000000E+00  0.63590752676E+03  0.63590752676E+03  0.00000000000E+00 0.  1.
          4   -1    0    0  501    0  0.00000000000E+00 -0.00000000000E+00 -0.30027069425E+02  0.30027069425E+02  0.00000000000E+00 0. -1.
         23    2    1    2    0    0  0.57822562550E+01 -0.78614702817E+02  0.18871428728E+03  0.22334150634E+03  0.89747647569E+02 0.  0.
          5    1    1    2  502    0  0.21993263873E+02  0.12459852103E+02  0.32358618617E+03  0.32459889687E+03  0.41800000000E+01 0.  1.
         -5    1    1    2    0  502 -0.27775520128E+02  0.66154850714E+02  0.93579983880E+02  0.11799419297E+03  0.41800000000E+01 0.  1.
        -11    1    3    3    0    0  0.31635396683E+02 -0.33478297492E+02  0.26829047538E+02  0.53304713845E+02  0.00000000000E+00 0. -1.
         11    1    3    3    0    0 -0.25853140428E+02 -0.45136405325E+02  0.16188523975E+03  0.17003679250E+03  0.00000000000E+00 0.  1.
</event>
<event>
 7    1  0.4274778E-006  0.9689072E+02  0.7561462E-02  0.1286974E+00
         -2   -1    0    0    0  501 -0.00000000000E+00  0.00000000000E+00  0.16359879661E+02  0.16359879661E+02  0.00000000000E+00 0.  1.
          2   -1    0    0  501    0  0.00000000000E+00 -0.00000000000E+00 -0.74349329326E+03  0.74349329326E+03  0.00000000000E+00 0. -1.
         23    2    1    2    0    0  0.66994323169E-01 -0.30128583134E+01 -0.38650602977E+03  0.39697075020E+03  0.90497423511E+02 0.  0.
          5    1    1    2  502    0  0.41535679705E+02 -0.30998125935E+02 -0.71477299940E+02  0.88388762333E+02  0.41800000000E+01 0. -1.
         -5    1    1    2    0  502 -0.41602674028E+02  0.34010984248E+02 -0.26915008389E+03  0.27449366039E+03  0.41800000000E+01 0. -1.
        -11    1    3    3    0    0  0.19204426873E+02 -0.41042940368E+02 -0.15119368059E+03  0.15783808797E+03  0.00000000000E+00 0.  1.
         11    1    3    3    0    0 -0.19137432550E+02  0.38030082054E+02 -0.23531234918E+03  0.23913266223E+03  0.00000000000E+00 0. -1.
</event>
<event>
 7    1  0.4274778E-006  0.1002358E+03  0.7561462E-02  0.1279801E+00
          3   -1    0    0  501    0  0.00000000000E+00  0.00000000000E+00  0.20169094277E+03  0.20169094277E+03  0.00000000000E+00 0. -1.
         -3   -1    0    0    0  501 -0.00000000000E+00 -0.00000000000E+00 -0.26575820200E+03  0.26575820200E+03  0.00000000000E+00 0.  1.
         23    2    1    2    0    0 -0.54825060664E+02 -0.84468222231E+01  0.16752545574E+03  0.19845637761E+03  0.90791075615E+02 0.  0.
          5    1    1    2  502    0 -0.30204240710E+02 -0.23240957245E+02 -0.11480061818E+03  0.12103343581E+03  0.41800000000E+01 0.  1.
         -5    1    1    2    0  502  0.85029301373E+02  0.31687779468E+02 -0.11679209679E+03  0.14795933135E+03  0.41800000000E+01 0.  1.
        -11    1    3    3    0    0 -0.43935289347E+02 -0.25693791148E+02  0.17041715032E+03  0.17785523798E+03  0.00000000000E+00 0. -1.
         11    1    3    3    0    0 -0.10889771317E+02  0.17246968925E+02 -0.28916945836E+01  0.20601139629E+02  0.00000000000E+00 0.  1.
</event>
<event>
 7    1  0.4274778E-006  0.1074542E+03  0.7561462E-02  0.1265358E+00
          1   -1    0    0  501    0  0.00000000000E+00  0.00000000000E+00  0.38895839640E+03  0.38895839640E+03  0.00000000000E+00 0. -1.
         -1   -1    0    0    0  501 -0.00000000000E+00 -0.00000000000E+00 -0.37238845004E+02  0.37238845004E+02  0.00000000000E+00 0.  1.
         23    2    1    2    0    0 -0.10517175674E+02 -0.15638431236E+02  0.24087016446E+03  0.25799876720E+03  0.90497271958E+02 0.  0.
          5    1    1    2  502    0  0.10357841027E+02 -0.53397393536E+02  0.66606349149E+02  0.86095555368E+02  0.41800000000E+01 0. -1.
         -5    1    1    2    0  502  0.15933464711E+00  0.69035824772E+02  0.44243037787E+02  0.82102918841E+02  0.41800000000E+01 0. -1.
        -11    1    3    3    0    0  0.16052889425E+02 -0.47247482303E+02  0.11048230935E+03  0.12122854665E+03  0.00000000000E+00 0.  1.
         11    1    3    3    0    0 -0.26570065098E+02  0.31609051067E+02  0.13038785511E+03  0.13677022055E+03  0.00000000000E+00 0. -1.
</event>
<event>
 7    1  0.4274778E-006  0.1450572E+03  0.7561462E-02  0.1206682E+00
          2   -1    0    0  501    0  0.00000000000E+00  0.00000000000E+00  0.15225259872E+03  0.15225259872E+03  0.00000000000E+00 0.  1.
         -2   -1    0    0    0  501 -0.00000000000E+00 -0.00000000000E+00 -0.18786162980E+03  0.18786162980E+03  0.00000000000E+00 0. -1.
         23    2    1    2    0    0  0.88308778290E+02 -0.37008931782E+02  0.70248338032E+02  0.15032110441E+03  0.92160208767E+02 0.  0.
          5    1    1    2  502    0 -0.63715004286E+02 -0.40811416953E+02 -0.49128736005E+02  0.90312117827E+02  0.41800000000E+01 0.  1.
         -5    1    1    2    0  502 -0.24593774004E+02  0.77820348735E+02 -0.56728633102E+02  0.99481006281E+02  0.41800000000E+01 0.  1.
        -11    1    3    3    0    0 -0.19517412220E+02 -0.55226580269E+01  0.14390953641E+02  0.24870236793E+02  0.00000000000E+00 0.  1.
         11    1    3    3    0    0  0.10782619051E+03 -0.31486273755E+02  0.55857384390E+02  0.12545086762E+03  0.00000000000E+00 0. -1.
</event>
<event>
 7    1  0.4274778E-006  0.1119646E+03  0.7561462E-02  0.1256974E+00
          1   -1    0    0  501    0  0.00000000000E+00  0.00000000000E+00  0.25171933168E+03  0.25171933168E+03  0.00000000000E+00 0. -1.
         -1   -1    0    0    0  501 -0.00000000000E+00 -0.00000000000E+00 -0.68067404658E+02  0.68067404658E+02  0.00000000000E+00 0.  1.
         23    2    1    2    0    0 -0.61338416736E+02 -0.12798765227E+02  0.12657638418E+03  0.16868716116E+03  0.92236476250E+02 0.  0.
          5    1    1    2  502    0  0.76263736083E+02  0.47235725503E+02  0.94231568320E+01  0.90297505446E+02  0.41800000000E+01 0. -1.
         -5    1    1    2    0  502 -0.14925319347E+02 -0.34436960275E+02  0.47652386017E+02  0.60802069732E+02  0.41800000000E+01 0. -1.
        -11    1    3    3    0    0 -0.10510727389E+02 -0.38142813321E+02  0.96769062068E+02  0.10454473192E+03  0.00000000000E+00 0. -1.
         11    1    3    3    0    0 -0.50827689347E+02  0.25344048094E+02  0.29807322108E+02  0.64142429244E+02  0.00000000000E+00 0.  1.
</event>
<event>
 7    1  0.4274778E-006  0.1032366E+03  0.7561462E-02  0.1273633E+00
         -2   -1    0    0    0  501 -0.00000000000E+00  0.00000000000E+00  0.60016919035E+02  0.60016919035E+02  0.00000000000E+00 0.  1.
          2   -1    0    0  501    0  0.00000000000E+00 -0.00000000000E+00 -0.26598965888E+03  0.26598965888E+03  0.00000000000E+00 0. -1.
         23    2    1    2    0    0  0.25310771306E+02 -0.12547519518E+02 -0.10806510407E+03  0.14461392201E+03  0.91853384982E+02 0.  0.
          5    1    1    2  502    0 -0.17073312722E+02  0.60286306848E+02 -0.11401946127E+03  0.13016853210E+03  0.41800000000E+01 0. -1.
         -5    1    1    2    0  502 -0.82374585844E+01 -0.47738787330E+02  0.16111825484E+02  0.51224123810E+02  0.41800000000E+01 0.  1.
        -11    1    3    3    0    0  0.28618455483E+02  0.36226209600E+02 -0.41879289472E+02  0.62331606292E+02  0.00000000000E+00 0. -1.
         11    1    3    3    0    0 -0.33076841771E+01 -0.48773729118E+02 -0.66185814594E+02  0.82282315720E+02  0.00000000000E+00 0.  1.
</event>
<event>
 7    1  0.4274778E-006  0.9559656E+02  0.7561462E-02  0.1289838E+00
         -2   -1    0    0    0  501 -0.00000000000E+00  0.00000000000E+00  0.44959634306E+02  0.44959634306E+02  0.00000000000E+00 0.  1.
          2   -1    0    0  501    0  0.00000000000E+00 -0.00000000000E+00 -0.32155173789E+03  0.32155173789E+03  0.00000000000E+00 0. -1.
         23    2    1    2    0    0  0.29799784013E+02  0.10279635287E+02 -0.17648384447E+03  0.20873816486E+03  0.10691761353E+03 0.  0.
          5    1    1    2  502    0  0.13914146176E+02 -0.55429938174E+02 -0.60710633829E+02  0.83482542904E+02  0.41800000000E+01 0. -1.
         -5    1    1    2    0  502 -0.43713930189E+02  0.45150302887E+02 -0.39397625290E+02  0.74290664433E+02  0.41800000000E+01 0.  1.
        -11    1    3    3    0    0  0.37601847372E+01  0.34881679259E+02 -0.73412948483E+01  0.35843620733E+02  0.00000000000E+00 0.  1.
         11    1    3    3    0    0  0.26039599276E+02 -0.24602043972E+02 -0.16914254962E+03  0.17289454413E+03  0.00000000000E+00 0. -1.
</event>
<event>
 7    1  0.4274778E-006  0.8553384E+02  0.7561462E-02  0.1314042E+00
          1   -1    0    0  501    0  0.00000000000E+00  0.00000000000E+00  0.60823454781E+02  0.60823454781E+02  0.00000000000E+00 0. -1.
         -1   -1    0    0    0  501 -0.00000000000E+00 -0.00000000000E+00 -0.21264574413E+03  0.21264574413E+03  0.00000000000E+00 0.  1.
         23    2    1    2    0    0 -0.31757931454E+02 -0.18438401437E+02 -0.35920717963E+02  0.99031002449E+02  0.84665817242E+02 0.  0.
          5    1    1    2  502    0 -0.22652388009E+02  0.46593263759E+02 -0.11370665163E+02  0.53205519793E+02  0.41800000000E+01 0. -1.
         -5    1    1    2    0  502  0.54410319462E+02 -0.28154862321E+02 -0.10453090622E+03  0.12123267667E+03  0.41800000000E+01 0. -1.
        -11    1    3    3    0    0  0.11234614073E+02 -0.95800950692E+00 -0.49425805301E+02  0.50695606962E+02  0.00000000000E+00 0.  1.
         11    1    3    3    0    0 -0.42992545527E+02 -0.17480391930E+02  0.13505087338E+02  0.48335395487E+02  0.00000000000E+00 0. -1.
</event>
<event>
 7    1  0.4274778E-006  0.1047468E+03  0.7561462E-02  0.1270619E+00
          1   -1    0    0  501    0  0.00000000000E+00  0.00000000000E+00  0.87169075028E+02  0.87169075028E+02  0.00000000000E+00 0. -1.
         -1   -1    0    0    0  501 -0.00000000000E+00 -0.00000000000E+00 -0.15512753525E+03  0.15512753525E+03  0.00000000000E+00 0.  1.
         23    2    1    2    0    0  0.15261588671E+02 -0.19526267110E+02  0.24526573933E+02  0.72860379405E+02  0.63975705249E+02 0.  0.
          5    1    1    2  502    0 -0.71008414696E+02  0.40146700848E+02 -0.61732644649E+02  0.10238332072E+03  0.41800000000E+01 0. -1.
         -5    1    1    2    0  502  0.55746826025E+02 -0.20620433738E+02 -0.30752389508E+02  0.67052910152E+02  0.41800000000E+01 0.  1.
        -11    1    3    3    0    0 -0.22488967843E+02  0.52257423491E+01  0.11961283633E+02  0.26002583792E+02  0.00000000000E+00 0. -1.
         11    1    3    3    0    0  0.37750556514E+02 -0.24752009459E+02  0.12565290300E+02  0.46857795613E+02  0.00000000000E+00 0.  1.
</event>
<event>
 7    1  0.5202760E-006  0.2908964E+03  0.7561462E-02  0.1089882E+00
          1   -1    0    0  501    0  0.00000000000E+00  0.00000000000E+00  0.42894702345E+03  0.42894702345E+03  0.00000000000E+00 0. -1.
         -1   -1    0    0    0  501 -0.00000000000E+00 -0.00000000000E+00 -0.20824968983E+03  0.20824968983E+03  0.00000000000E+00 0.  1.
         23    2    1    2    0    0 -0.14356719431E+03  0.23738816367E+03  0.12721782957E+03  0.31884083021E+03  0.92251933935E+02 0.  0.
          5    1    1    2  502    0  0.21976007777E+02 -0.15670188870E+03  0.51360106015E+02  0.16641442164E+03  0.41800000000E+01 0. -1.
         -5    1    1    2    0  502  0.12159118653E+03 -0.80686274971E+02  0.42119398040E+02  0.15194146143E+03  0.41800000000E+01 0. -1.
        -11    1    3    3    0    0 -0.30490939800E+02  0.56175545465E+02 -0.10386990683E+02  0.64755531761E+02  0.00000000000E+00 0. -1.
         11    1    3    3    0    0 -0.11307625451E+03  0.18121261821E+03  0.13760482025E+03  0.25408529845E+03  0.00000000000E+00 0.  1.
</event>
<event>
 6    1  0.4274778E-006  0.1255040E+03  0.7561462E-02  0.1234284E+00
         -1   -1    0    0    0  501 -0.00000000000E+00  0.00000000000E+00  0.54505866827E+02  0.54505866827E+02  0.00000000000E+00 0.  1.
          1   -1    0    0  501    0  0.00000000000E+00 -0.00000000000E+00 -0.42556598964E+03  0.42556598964E+03  0.00000000000E+00 0. -1.
          5    1    1    2  502    0 -0.60300417621E+02  0.15950267739E+02 -0.75096634082E+02  0.97711454071E+02  0.41800000000E+01 0. -1.
         -5    1    1    2    0  502  0.60190087680E+02  0.43365151109E+02 -0.57103729382E+02  0.93710678661E+02  0.41800000000E+01 0. -1.
        -11    1    1    2    0    0 -0.44321312097E+02 -0.59005737428E+01 -0.20777964463E+03  0.21253605858E+03  0.00000000000E+00 0. -1.
         11    1    1    2    0    0  0.44431642037E+02 -0.53414845105E+02 -0.31080114722E+02  0.76113665152E+02  0.00000000000E+00 0.  1.
</event>
<event>
 7    1  0.4274778E-006  0.8432686E+02  0.7561462E-02  0.1317202E+00
          2   -1    0    0  501    0  0.00000000000E+00  0.00000000000E+00  0.61905587350E+02  0.61905587350E+02  0.00000000000E+00 0. -1.
         -2   -1    0    0    0  501 -0.00000000000E+00 -0.00000000000E+00 -0.31581774106E+03  0.31581774106E+03  0.00000000000E+00 0.  1.
         23    2    1    2    0    0 -0.13566550929E+02 -0.66342091182E+02 -0.38888089183E+02  0.11990953469E+03  0.90998289334E+02 0.  0.
          5    1    1    2  502    0  0.18754797974E+02 -0.40449890761E+01 -0.17593202382E+03  0.17702444405E+03  0.41800000000E+01 0. -1.
         -5    1    1    2    0  502 -0.51882470449E+01  0.70387080258E+02 -0.39092040699E+02  0.80789349673E+02  0.41800000000E+01 0. -1.
        -11    1    3    3    0    0 -0.23129735686E+02 -0.18756980472E+02 -0.59997369546E+02  0.66981290983E+02  0.00000000000E+00 0.  1.
         11    1    3    3    0    0  0.95631847565E+01 -0.47585110710E+02  0.21109280363E+02  0.52928243702E+02  0.00000000000E+00 0. -1.
</event>
<event>
 7    1  0.4274778E-006  0.1486789E+03  0.7561462E-02  0.1202106E+00
          1   -1    0    0  501    0  0.00000000000E+00  0.00000000000E+00  0.77204020687E+03  0.77204020687E+03  0.00000000000E+00 0. -1.
         -1   -1    0    0    0  501 -0.00000000000E+00 -0.00000000000E+00 -0.37140291352E+02  0.37140291352E+02  0.00000000000E+00 0.  1.
         23    2    1    2    0    0  0.12087804976E+03 -0.48780465878E+02  0.32206825214E+03  0.35854930463E+03  0.88535913907E+02 0.  0.
          5    1    1    2  502    0 -0.12860919102E+03  0.18350498282E+02  0.22251172275E+03  0.25769362422E+03  0.41800000000E+01 0. -1.
         -5    1    1    2    0  502  0.77311412669E+01  0.30429967596E+02  0.19031994064E+03  0.19293756938E+03  0.41800000000E+01 0. -1.
        -11    1    3    3    0    0  0.90017369871E+02 -0.53148855063E+02  0.30624331126E+03  0.32359371651E+03  0.00000000000E+00 0. -1.
         11    1    3    3    0    0  0.30860679885E+02  0.43683891852E+01  0.15824940877E+02  0.34955588120E+02  0.00000000000E+00 0.  1.
</event>
<event>
 7    1  0.4274778E-006  0.1598181E+03  0.7561462E-02  0.1188902E+00
         -1   -1    0    0    0  501 -0.00000000000E+00  0.00000000000E+00  0.19373157085E+03  0.19373157085E+03  0.00000000000E+00 0.  1.
          1   -1    0    0  501    0  0.00000000000E+00 -0.00000000000E+00 -0.37565311293E+03  0.37565311293E+03  0.00000000000E+00 0. -1.
         23    2    1    2    0    0 -0.49296657271E+02  0.11921511835E+03 -0.30126653605E+03  0.34016376948E+03  0.91145265695E+02 0.  0.
          5    1    1    2  502    0  0.72980782927E+02 -0.31471063387E+02  0.54978158074E+00  0.79588926159E+02  0.41800000000E+01 0. -1.
         -5    1    1    2    0  502 -0.23684125656E+02 -0.87744054961E+02  0.11879521239E+03  0.14963198814E+03  0.41800000000E+01 0.  1.
        -11    1    3    3    0    0 -0.66284774802E+02  0.67369385300E+02 -0.13217597675E+03  0.16248936666E+03  0.00000000000E+00 0.  1.
         11    1    3    3    0    0  0.16988117531E+02  0.51845733048E+02 -0.16909055930E+03  0.17767440282E+03  0.00000000000E+00 0. -1.
</event>
<event>
 7    1  0.4274778E-006  0.1086472E+03  0.7561462E-02  0.1263096E+00
         -1   -1    0    0    0  501 -0.00000000000E+00  0.00000000000E+00  0.24131603473E+02  0.24131603473E+02  0.00000000000E+00 0.  1.
          1   -1    0    0  501    0  0.00000000000E+00 -0.00000000000E+00 -0.62314427186E+03  0.62314427186E+03  0.00000000000E+00 0. -1.
         23    2    1    2    0    0  0.47172304657E+02 -0.51175152056E+01 -0.35215613171E+03  0.36649926052E+03  0.89757181170E+02 0.  0.
          5    1    1    2  502    0  0.16752183525E+02  0.47425732382E+02 -0.14285777856E+03  0.15151123074E+03  0.41800000000E+01 0.  1.
         -5    1    1    2    0  502 -0.63924488182E+02 -0.42308217177E+02 -0.10399875811E+03  0.12926538407E+03  0.41800000000E+01 0.  1.
        -11    1    3    3    0    0  0.24464703528E+02  0.35738461798E+02 -0.86219796257E+02  0.96486333940E+02  0.00000000000E+00 0.  1.
         11    1    3    3    0    0  0.22707601129E+02 -0.40855977004E+02 -0.26593633546E+03  0.27001292658E+03  0.00000000000E+00 0. -1.
</event>
<event>
 7    1  0.4274778E-006  0.1208466E+03  0.7561462E-02  0.1241707E+00
         -2   -1    0    0    0  501 -0.00000000000E+00  0.00000000000E+00  0.16199416586E+03  0.16199416586E+03  0.00000000000E+00 0. -1.
          2   -1    0    0  501    0  0.00000000000E+00 -0.00000000000E+00 -0.33256849080E+03  0.33256849080E+03  0.00000000000E+00 0.  1.
         23    2    1    2    0    0  0.93376214538E+02  0.24861873532E+02 -0.26826865183E+03  0.30873857505E+03  0.11838162007E+03 0.  0.
          5    1    1    2  502    0 -0.84463511110E+02  0.15023152187E+02  0.11304024494E+03  0.14196953612E+03  0.41800000000E+01 0.  1.
         -5    1    1    2    0  502 -0.89127034279E+01 -0.39885025719E+02 -0.15345918050E+02  0.43854545486E+02  0.41800000000E+01 0.  1.
        -11    1    3    3    0    0  0.53426858034E+02  0.45118085875E+02 -0.25128786017E+03  0.26083646122E+03  0.00000000000E+00 0.  1.
         11    1    3    3    0    0  0.39949356505E+02 -0.20256212343E+02 -0.16980791655E+02  0.47902113825E+02  0.00000000000E+00 0. -1.
</event>
<event>
 7    1  0.4274778E-006  0.1401714E+03  0.7561462E-02  0.1213098E+00
         -2   -1    0    0    0  501 -0.00000000000E+00  0.00000000000E+00  0.46955794690E+02  0.46955794690E+02  0.00000000000E+00 0.  1.
          2   -1    0    0  501    0  0.00000000000E+00 -0.00000000000E+00 -0.63516599733E+03  0.63516599733E+03  0.00000000000E+00 0. -1.
         23    2    1    2    0    0  0.12559701188E+03  0.41666689474E+02 -0.30925231867E+03  0.34899241578E+03  0.92994554996E+02 0.  0.
          5    1    1    2  502    0 -0.27831064211E+02  0.13538071138E+02 -0.18219343155E+03  0.18485065974E+03  0.41800000000E+01 0.  1.
         -5    1    1    2    0  502 -0.97765947668E+02 -0.55204760612E+02 -0.96764452414E+02  0.14827871651E+03  0.41800000000E+01 0.  1.
        -11    1    3    3    0    0  0.21862463719E+02  0.22306874741E+02 -0.17731705194E+03  0.18004694080E+03  0.00000000000E+00 0.  1.
         11    1    3    3    0    0  0.10373454816E+03  0.19359814733E+02 -0.13193526673E+03  0.16894547498E+03  0.00000000000E+00 0. -1.
</event>
<event>
 7    1  0.4274778E-006  0.1558895E+03  0.7561462E-02  0.1193417E+00
         -2   -1    0    0    0  501 -0.00000000000E+00  0.00000000000E+00  0.12733633836E+03  0.12733633836E+03  0.00000000000E+00 0.  1.
          2   -1    0    0  501    0  0.00000000000E+00 -0.00000000000E+00 -0.25397182759E+03  0.25397182759E+03  0.00000000000E+00 0. -1.
         23    2    1    2    0    0  0.14148821851E+03  0.15389262116E+02 -0.70785758850E+02  0.18376891617E+03  0.92220635057E+02 0.  0.
          5    1    1    2  502    0 -0.75774127637E+02 -0.98782056317E+01  0.35851844271E+02  0.84511091007E+02  0.41800000000E+01 0.  1.
         -5    1    1    2    0  502 -0.65714090869E+02 -0.55110564839E+01 -0.91701574647E+02  0.11302815877E+03  0.41800000000E+01 0.  1.
        -11    1    3    3    0    0  0.62368929034E+02  0.52741196388E+02 -0.40614601434E+02  0.91219860529E+02  0.00000000000E+00 0. -1.
         11    1    3    3    0    0  0.79119289471E+02 -0.37351934272E+02 -0.30171157416E+02  0.92549055641E+02  0.00000000000E+00 0.  1.
</event>
<event>
 7    1  0.4274778E-006  0.1240682E+03  0.7561462E-02  0.1236533E+00
          1   -1    0    0  501    0  0.00000000000E+00  0.00000000000E+00  0.37812987783E+02  0.37812987783E+02  0.00000000000E+00 0.  1.
         -1   -1    0    0    0  501 -0.00000000000E+00 -0.00000000000E+00 -0.57352147155E+03  0.57352147155E+03  0.00000000000E+00 0. -1.
         23    2    1    2    0    0  0.49000681779E+01  0.83383839284E+02 -0.13731742836E+03  0.18549410102E+03  0.92601890152E+02 0.  0.
          5    1    1    2  502    0  0.21642302974E+02  0.13674172929E+02 -0.16152027753E+02  0.30557039841E+02  0.41800000000E+01 0.  1.
         -5    1    1    2    0  502 -0.26542371152E+02 -0.97058012213E+02 -0.38223902765E+03  0.39528331847E+03  0.41800000000E+01 0.  1.
        -11    1    3    3    0    0  0.35509475282E+02  0.31911992870E+01 -0.60910313071E+02  0.70577424338E+02  0.00000000000E+00 0.  1.
         11    1    3    3    0    0 -0.30609407104E+02  0.80192639997E+02 -0.76407115293E+02  0.11491667668E+03  0.00000000000E+00 0. -1.
</event>
<event>
 7    1  0.4274778E-006  0.1255529E+03  0.7561462E-02  0.1234208E+00
         -2   -1    0    0    0  501 -0.00000000000E+00  0.00000000000E+00  0.12548351552E+03  0.12548351552E+03  0.00000000000E+00 0.  1.
          2   -1    0    0  501    0  0.00000000000E+00 -0.00000000000E+00 -0.18119596929E+03  0.18119596929E+03  0.00000000000E+00 0. -1.
         23    2    1    2    0    0 -0.82586235795E+02  0.39715176987E+02 -0.78465276061E+02  0.14995423096E+03  0.89060037101E+02 0.  0.
          5    1    1    2  502    0  0.35795016734E+02 -0.74828880727E+02  0.44436243179E+02  0.94194993082E+02  0.41800000000E+01 0. -1.
         -5    1    1    2    0  502  0.46791219060E+02  0.35113703740E+02 -0.21683420890E+02  0.62530260778E+02  0.41800000000E+01 0. -1.
        -11    1    3    3    0    0 -0.63346925233E+01  0.32157432570E+02  0.86869805412E+01  0.33907114737E+02  0.00000000000E+00 0.  1.
         11    1    3    3    0    0 -0.76251543271E+02  0.75577444174E+01 -0.87152256603E+02  0.11604711622E+03  0.00000000000E+00 0. -1.
</event>
<event>
 7    1  0.4274778E-006  0.1052903E+03  0.7561462E-02  0.1269549E+00
          1   -1    0    0  501    0  0.00000000000E+00  0.00000000000E+00  0.53084616562E+02  0.53084616562E+02  0.00000000000E+00 0. -1.
         -1   -1    0    0    0  501 -0.00000000000E+00 -0.00000000000E+00 -0.43221454018E+03  0.43221454018E+03  0.00000000000E+00 0.  1.
         23    2    1    2    0    0  0.94053016145E+01  0.64963341528E+02 -0.38858437399E+02  0.12030199128E+03  0.93026316211E+02 0.  0.
          5    1    1    2  502    0  0.45187296157E+02 -0.12078232718E+02 -0.70630064679E+02  0.84816589628E+02  0.41800000000E+01 0. -1.
         -5    1    1    2    0  502 -0.54592597771E+02 -0.52885108810E+02 -0.26964142154E+03  0.28018057584E+03  0.41800000000E+01 0.  1.
        -11    1    3    3    0    0 -0.12891744536E+02  0.63887036403E+02 -0.60705750869E+02  0.89067046016E+02  0.00000000000E+00 0.  1.
         11    1    3    3    0    0  0.22297046151E+02  0.10763051251E+01  0.21847313470E+02  0.31234945264E+02  0.00000000000E+00 0. -1.
</event>
<event>
 7    1  0.4274778E-006  0.1138516E+03  0.7561462E-02  0.1253599E+00
         -1   -1    0    0    0  501 -0.00000000000E+00  0.00000000000E+00  0.70390415285E+02  0.70390415285E+02  0.00000000000E+00 0.  1.
          1   -1    0    0  501    0  0.00000000000E+00 -0.00000000000E+00 -0.20822634762E+03  0.20822634762E+03  0.00000000000E+00 0. -1.
         23    2    1    2    0    0 -0.49490281070E+02 -0.12711405821E+02 -0.82004182601E+02  0.13241694040E+03  0.90546630981E+02 0.  0.
          5    1    1    2  502    0  0.17843080135E+02  0.67112863789E+02 -0.15325923148E+02  0.71238109990E+02  0.41800000000E+01 0. -1.
         -5    1    1    2    0  502  0.31647200935E+02 -0.54401457968E+02 -0.40505826585E+02  0.74961712516E+02  0.41800000000E+01 0. -1.
        -11    1    3    3    0    0 -0.17967877796E+02  0.34145453909E+02 -0.81332394477E+01  0.39432299439E+02  0.00000000000E+00 0.  1.
         11    1    3    3    0    0 -0.31522403274E+02 -0.46856859730E+02 -0.73870943153E+02  0.92984640959E+02  0.00000000000E+00 0. -1.
</event>
<event>
 7    1  0.4274778E-006  0.9993649E+02  0.7561462E-02  0.1280430E+00
          2   -1    0    0  501    0  0.00000000000E+00  0.00000000000E+00  0.23651900237E+03  0.23651900237E+03  0.00000000000E+00 0.  1.
         -2   -1    0    0    0  501 -0.00000000000E+00 -0.00000000000E+00 -0.56775182350E+02  0.56775182350E+02  0.00000000000E+00 0. -1.
         23    2    1    2    0    0 -0.76424964374E+01 -0.38549161703E+02  0.10435107229E+03  0.14204669537E+03  0.87998134960E+02 0.  0.
          5    1    1    2  502    0 -0.43350514498E+02  0.12934903130E+01  0.76397236563E+02  0.87948566668E+02  0.41800000000E+01 0. -1.
         -5    1    1    2    0  502  0.50993010936E+02  0.37255671390E+02 -0.10044888365E+01  0.63298922683E+02  0.41800000000E+01 0. -1.
        -11    1    3    3    0    0  0.64540468245E+01  0.26077893995E+02  0.14666381898E+02  0.30607417950E+02  0.00000000000E+00 0.  1.
         11    1    3    3    0    0 -0.14096543262E+02 -0.64627055697E+02  0.89684690394E+02  0.11143927742E+03  0.00000000000E+00 0. -1.
</event>
<event>
 7    1  0.4274778E-006  0.1388466E+03  0.7561462E-02  0.1214889E+00
         -4   -1    0    0    0  501 -0.00000000000E+00  0.00000000000E+00  0.59485911417E+03  0.59485911417E+03  0.00000000000E+00 0.  1.
          4   -1    0    0  501    0  0.00000000000E+00 -0.00000000000E+00 -0.40802511934E+02  0.40802511934E+02  0.00000000000E+00 0. -1.
         23    2    1    2    0    0 -0.59344046396E+02 -0.87320000856E+02  0.18502273779E+03  0.23195405218E+03  0.91775652697E+02 0.  0.
          5    1    1    2  502    0 -0.36450347950E+02  0.83048880032E+01  0.11344277904E+03  0.11951709311E+03  0.41800000000E+01 0. -1.
         -5    1    1    2    0  502  0.95794394347E+02  0.79015112853E+02  0.25559108541E+03  0.28419048082E+03  0.41800000000E+01 0. -1.
        -11    1    3    3    0    0  0.55631807276E+01 -0.25819782426E+02  0.11607620172E+03  0.11904324740E+03  0.00000000000E+00 0. -1.
         11    1    3    3    0    0 -0.64907227124E+02 -0.61500218429E+02  0.68946536071E+02  0.11291080478E+03  0.00000000000E+00 0.  1.
</event>
<event>
 7    1  0.4274778E-006  0.3425205E+03  0.7561462E-02  0.1065727E+00
          1   -1    0    0  501    0  0.00000000000E+00  0.00000000000E+00  0.50431456656E+03  0.50431456656E+03  0.00000000000E+00 0. -1.
         -1   -1    0    0    0  501 -0.00000000000E+00 -0.00000000000E+00 -0.28515116076E+03  0.28515116076E+03  0.00000000000E+00 0.  1.
         23    2    1    2    0    0  0.32930654260E+03  0.44149535292E+02  0.26242873191E+03  0.43181985752E+03  0.84897406052E+02 0.  0.
          5    1    1    2  502    0 -0.20302990597E+03 -0.84785952350E+02 -0.46349620134E+02  0.22489010676E+03  0.41800000000E+01 0. -1.
         -5    1    1    2    0  502 -0.12627663664E+03  0.40636417058E+02  0.30842940316E+01  0.13275576304E+03  0.41800000000E+01 0. -1.
        -11    1    3    3    0    0  0.26470681290E+03  0.36301888612E+02  0.16297188034E+03  0.31296542572E+03  0.00000000000E+00 0.  1.
         11    1    3    3    0    0  0.64599729698E+02  0.78476466803E+01  0.99456851570E+02  0.11885443181E+03  0.00000000000E+00 0. -1.
</event>
<event>
 7    1  0.4274778E-006  0.2345168E+03  0.7561462E-02  0.1123500E+00
         -2   -1    0    0    0  501 -0.00000000000E+00  0.00000000000E+00  0.12398838976E+03  0.12398838976E+03  0.00000000000E+00 0.  1.
          2   -1    0    0  501    0  0.00000000000E+00 -0.00000000000E+00 -0.53796222315E+03  0.53796222315E+03  0.00000000000E+00 0. -1.
         23    2    1    2    0    0  0.22121777032E+03  0.38821838219E+02 -0.28445728223E+03  0.37408733848E+03  0.92633440901E+02 0.  0.
          5    1    1    2  502    0 -0.14036372350E+03 -0.44481261563E+02 -0.14334055517E+03  0.20553477726E+03  0.41800000000E+01 0. -1.
         -5    1    1    2    0  502 -0.80854046818E+02  0.56594233438E+01  0.13824004005E+02  0.82328497169E+02  0.41800000000E+01 0. -1.
        -11    1    3    3    0    0  0.17385200963E+03  0.66004622634E+02 -0.19639914975E+03  0.27046951304E+03  0.00000000000E+00 0.  1.
         11    1    3    3    0    0  0.47365760689E+02 -0.27182784414E+02 -0.88058132475E+02  0.10361782544E+03  0.00000000000E+00 0. -1.
</event>
<event>
 7    1  0.4274778E-006  0.7176331E+02  0.7561462E-02  0.1354197E+00
          2   -1    0    0  501    0  0.00000000000E+00  0.00000000000E+00  0.17248861269E+03  0.17248861269E+03  0.00000000000E+00 0.  1.
         -2   -1    0    0    0  501 -0.00000000000E+00 -0.00000000000E+00 -0.90968451840E+02  0.90968451840E+02  0.00000000000E+00 0. -1.
         23    2    1    2    0    0 -0.17209463114E+02  0.15074648172E+02  0.97457697482E+02  0.13529711647E+03  0.91015912279E+02 0.  0.
          5    1    1    2  502    0  0.21189239177E+02  0.31845353504E+02  0.39607826893E+02  0.55221035375E+02  0.41800000000E+01 0. -1.
         -5    1    1    2    0  502 -0.39797760626E+01 -0.46920001676E+02 -0.55545363525E+02  0.72938912687E+02  0.41800000000E+01 0. -1.
        -11    1    3    3    0    0 -0.36308650030E+02  0.12988301643E+02  0.10707825003E+03  0.11381021781E+03  0.00000000000E+00 0.  1.
         11    1    3    3    0    0  0.19099186916E+02  0.20863465290E+01 -0.96205525530E+01  0.21486898662E+02  0.00000000000E+00 0. -1.
</event>
<event>
 7    1  0.4274778E-006  0.1107784E+03  0.7561462E-02  0.1259135E+00
         -1   -1    0    0    0  501 -0.00000000000E+00  0.00000000000E+00  0.53572463724E+03  0.53572463724E+03  0.00000000000E+00 0.  1.
          1   -1    0    0  501    0  0.00000000000E+00 -0.00000000000E+00 -0.34041414396E+02  0.34041414396E+02  0.00000000000E+00 0. -1.
         23    2    1    2    0    0  0.49265318628E+02 -0.30497175085E+02  0.10216886307E+03  0.14713560152E+03  0.88618617379E+02 0.  0.
          5    1    1    2  502    0  0.84620851907E+01  0.65892699769E+02  0.24492062612E+03  0.25380512261E+03  0.41800000000E+01 0. -1.
         -5    1    1    2    0  502 -0.57727403818E+02 -0.35395524684E+02  0.15459373366E+03  0.16882532751E+03  0.41800000000E+01 0. -1.
        -11    1    3    3    0    0 -0.12513551688E+02 -0.21277941482E+02 -0.29483814567E+01  0.24860263932E+02  0.00000000000E+00 0. -1.
         11    1    3    3    0    0  0.61778870315E+02 -0.92192336025E+01  0.10511724452E+03  0.12227533759E+03  0.00000000000E+00 0.  1.
</event>
<event>
 7    1  0.4274778E-006  0.1089035E+03  0.7561462E-02  0.1262614E+00
         -1   -1    0    0    0  501 -0.00000000000E+00  0.00000000000E+00  0.36774579340E+02  0.36774579340E+02  0.00000000000E+00 0.  1.
          1   -1    0    0  501    0  0.00000000000E+00 -0.00000000000E+00 -0.38566077030E+03  0.38566077030E+03  0.00000000000E+00 0. -1.
         23    2    1    2    0    0 -0.19129547952E+02  0.41271129932E+02 -0.17805903233E+03  0.20587435572E+03  0.92790007956E+02 0.  0.
          5    1    1    2  502    0  0.54735416534E+02 -0.61941294485E+02 -0.14729526280E+03  0.16895578306E+03  0.41800000000E+01 0.  1.
         -5    1    1    2    0  502 -0.35605868582E+02  0.20670164553E+02 -0.23531895827E+02  0.47605210863E+02  0.41800000000E+01 0.  1.
        -11    1    3    3    0    0 -0.11940153542E+02  0.66429209537E+02 -0.16117032170E+03  0.17473202266E+03  0.00000000000E+00 0. -1.
         11    1    3    3    0    0 -0.71893944097E+01 -0.25158079605E+02 -0.16888710634E+02  0.31142333058E+02  0.00000000000E+00 0.  1.
</event>
<event>
 7    1  0.4274778E-006  0.5446586E+02  0.7561462E-02  0.1422642E+00
         -4   -1    0    0    0  501 -0.00000000000E+00  0.00000000000E+00  0.83763199558E+02  0.83763199558E+02  0.00000000000E+00 0.  1.
          4   -1    0    0  501    0  0.00000000000E+00 -0.00000000000E+00 -0.13707209989E+03  0.13707209989E+03  0.00000000000E+00 0. -1.
         23    2    1    2    0    0 -0.33756321733E+01 -0.79553135714E+01 -0.31613812005E+02  0.93580707489E+02  0.87654057511E+02 0.  0.
          5    1    1    2  502    0 -0.15731761124E+02  0.17847795597E+02  0.48248196833E+02  0.53957325855E+02  0.41800000000E+01 0.  1.
         -5    1    1    2    0  502  0.19107393297E+02 -0.98924820260E+01 -0.69943285156E+02  0.73297266099E+02  0.41800000000E+01 0.  1.
        -11    1    3    3    0    0  0.93132547955E+01  0.25462097372E+02 -0.47320293325E+02  0.54536824970E+02  0.00000000000E+00 0.  1.
         11    1    3    3    0    0 -0.12688886969E+02 -0.33417410944E+02  0.15706481320E+02  0.39043882519E+02  0.00000000000E+00 0. -1.
</event>
<event>
 7    1  0.4274778E-006  0.1007925E+03  0.7561462E-02  0.1278638E+00
          1   -1    0    0  501    0  0.00000000000E+00  0.00000000000E+00  0.15246634993E+03  0.15246634993E+03  0.00000000000E+00 0. -1.
         -1   -1    0    0    0  501 -0.00000000000E+00 -0.00000000000E+00 -0.10583095614E+03  0.10583095614E+03  0.00000000000E+00 0.  1.
         23    2    1    2    0    0  0.39995723195E+02  0.67515600284E+01  0.34940327257E+02  0.10968200198E+03  0.95729168248E+02 0.  0.
          5    1    1    2  502    0 -0.68469263565E+02 -0.59614070819E+01  0.60692537402E+02  0.91785810035E+02  0.41800000000E+01 0. -1.
         -5    1    1    2    0  502  0.28473540369E+02 -0.79015294649E+00 -0.48997470868E+02  0.56829494052E+02  0.41800000000E+01 0.  1.
        -11    1    3    3    0    0 -0.31861194814E+02  0.17411950367E+01  0.95614743543E+01  0.33310498149E+02  0.00000000000E+00 0.  1.
         11    1    3    3    0    0  0.71856918009E+02  0.50103649916E+01  0.25378852903E+02  0.76371503833E+02  0.00000000000E+00 0. -1.
</event>
<event>
 7    1  0.4274778E-006  0.1123119E+03  0.7561462E-02  0.1256348E+00
         -2   -1    0    0    0  501 -0.00000000000E+00  0.00000000000E+00  0.49667675594E+02  0.49667675594E+02  0.00000000000E+00 0.  1.
          2   -1    0    0  501    0  0.00000000000E+00 -0.00000000000E+00 -0.28980519050E+03  0.28980519050E+03  0.00000000000E+00 0. -1.
         23    2    1    2    0    0 -0.35620516322E+02 -0.36195444837E+02 -0.11881809312E+03  0.15796577140E+03  0.90865363430E+02 0.  0.
          5    1    1    2  502    0 -0.20459997018E+02 -0.32045565756E+02 -0.10370026018E+02  0.39630034094E+02  0.41800000000E+01 0. -1.
         -5    1    1    2    0  502  0.56080513340E+02  0.68241010593E+02 -0.11094939577E+03  0.14187706060E+03  0.41800000000E+01 0. -1.
        -11    1    3    3    0    0 -0.21430649055E+02  0.26263180165E+02 -0.17624738174E+02  0.38205480588E+02  0.00000000000E+00 0.  1.
         11    1    3    3    0    0 -0.14189867267E+02 -0.62458625002E+02 -0.10119335494E+03  0.11976029081E+03  0.00000000000E+00 0. -1.
</event>
<event>
 7    1  0.4274778E-006  0.7358968E+02  0.7561462E-02  0.1348295E+00
         -2   -1    0    0    0  501 -0.00000000000E+00  0.00000000000E+00  0.62609068502E+02  0.62609068502E+02  0.00000000000E+00 0.  1.
          2   -1    0    0  501    0  0.00000000000E+00 -0.00000000000E+00 -0.21975943258E+03  0.21975943258E+03  0.00000000000E+00 0. -1.
         23    2    1    2    0    0  0.36779667640E+02 -0.24961091789E+02 -0.79621911618E+02  0.12862925216E+03  0.90719543906E+02 0.  0.
          5    1    1    2  502    0 -0.58844070522E+02  0.41407463604E+02 -0.96212756489E+02  0.12021468125E+03  0.41800000000E+01 0. -1.
         -5    1    1    2    0  502  0.22064402881E+02 -0.16446371816E+02  0.18684304028E+02  0.33524567669E+02  0.41800000000E+01 0. -1.
        -11    1    3    3    0    0  0.28065404605E+02 -0.96964242904E+01 -0.98474531542E+02  0.10285388151E+03  0.00000000000E+00 0. -1.
         11    1    3    3    0    0  0.87142630349E+01 -0.15264667498E+02  0.18852619924E+02  0.25775370648E+02  0.00000000000E+00 0.  1.
</event>
<event>
 7    1  0.4274778E-006  0.1353625E+03  0.7561462E-02  0.1219709E+00
         -1   -1    0    0    0  501 -0.00000000000E+00  0.00000000000E+00  0.25100870405E+03  0.25100870405E+03  0.00000000000E+00 0.  1.
          1   -1    0    0  501    0  0.00000000000E+00 -0.00000000000E+00 -0.96231731072E+02  0.96231731072E+02  0.00000000000E+00 0. -1.
         23    2    1    2    0    0 -0.82053901191E+02  0.72833821421E+02  0.64208443651E+02  0.15780192753E+03  0.93493934848E+02 0.  0.
          5    1    1    2  502    0 -0.16108328052E+02 -0.28676029708E+02  0.73160683884E+02  0.80322792399E+02  0.41800000000E+01 0. -1.
         -5    1    1    2    0  502  0.98162229243E+02 -0.44157791713E+02  0.17407845445E+02  0.10911571519E+03  0.41800000000E+01 0. -1.
        -11    1    3    3    0    0 -0.19839765452E+02  0.64010888695E+02 -0.13013242306E+01  0.67027633178E+02  0.00000000000E+00 0. -1.
         11    1    3    3    0    0 -0.62214135738E+02  0.88229327262E+01  0.65509767881E+02  0.90774294354E+02  0.00000000000E+00 0.  1.
</event>
<event>
 7    1  0.4274778E-006  0.3405718E+03  0.7561462E-02  0.1066553E+00
         -2   -1    0    0    0  501 -0.00000000000E+00  0.00000000000E+00  0.78801490078E+02  0.78801490078E+02  0.00000000000E+00 0.  1.
          2   -1    0    0  501    0  0.00000000000E+00 -0.00000000000E+00 -0.18655574042E+04  0.18655574042E+04  0.00000000000E+00 0. -1.
         23    2    1    2    0    0 -0.29455058035E+02  0.32459439976E+03 -0.13116977178E+04  0.13548167879E+04  0.93533422765E+02 0.  0.
          5    1    1    2  502    0 -0.49216435578E+02 -0.11760308951E+03 -0.17974880445E+03  0.22040836938E+03  0.41800000000E+01 0.  1.
         -5    1    1    2    0  502  0.78671493613E+02 -0.20699131026E+03 -0.29530939181E+03  0.36913373690E+03  0.41800000000E+01 0.  1.
        -11    1    3    3    0    0  0.17828214959E+02  0.15590314323E+03 -0.48477117153E+03  0.50953579272E+03  0.00000000000E+00 0.  1.
         11    1    3    3    0    0 -0.47283272994E+02  0.16869125654E+03 -0.82692654628E+03  0.84528099522E+03  0.00000000000E+00 0. -1.
</event>
<event>
 7    1  0.4274778E-006  0.1000928E+03  0.7561462E-02  0.1280101E+00
         -1   -1    0    0    0  501 -0.00000000000E+00  0.00000000000E+00  0.20856088714E+03  0.20856088714E+03  0.00000000000E+00 0.  1.
          1   -1    0    0  501    0  0.00000000000E+00 -0.00000000000E+00 -0.59846225322E+02  0.59846225322E+02  0.00000000000E+00 0. -1.
         23    2    1    2    0    0 -0.10950541940E+02  0.30616584352E+02  0.62437507042E+02  0.11295930856E+03  0.88340667302E+02 0.  0.
          5    1    1    2  502    0 -0.98205210542E+01  0.38506269535E+02  0.71123784562E+02  0.81579657744E+02  0.41800000000E+01 0.  1.
         -5    1    1    2    0  502  0.20771062994E+02 -0.69122853888E+02  0.15153370214E+02  0.73868146155E+02  0.41800000000E+01 0.  1.
        -11    1    3    3    0    0 -0.45365595891E+02  0.28231519429E+02  0.17331187971E+02  0.56173179154E+02  0.00000000000E+00 0. -1.
         11    1    3    3    0    0  0.34415053951E+02  0.23850649230E+01  0.45106319071E+02  0.56786129409E+02  0.00000000000E+00 0.  1.
</event>
<event>
 7    1  0.5235255E-006  0.3331486E+03  0.7561462E-02  0.1069752E+00
         -1   -1    0    0    0  501 -0.00000000000E+00  0.00000000000E+00  0.45620506951E+03  0.45620506951E+03  0.00000000000E+00 0.  1.
          1   -1    0    0  501    0  0.00000000000E+00 -0.00000000000E+00 -0.27950287121E+03  0.27950287121E+03  0.00000000000E+00 0. -1.
         23    2    1    2    0    0  0.29652756980E+03  0.13676994286E+03 -0.94258015353E+01  0.33957030916E+03  0.92652750656E+02 0.  0.
          5    1    1    2  502    0 -0.21837899111E+03 -0.10623671870E+03  0.19525585622E+03  0.31163752333E+03  0.41800000000E+01 0. -1.
         -5    1    1    2    0  502 -0.78148578693E+02 -0.30533224162E+02 -0.91278563920E+01  0.84500108235E+02  0.41800000000E+01 0. -1.
        -11    1    3    3    0    0  0.17619893564E+03  0.12985428113E+03 -0.38178226565E+01  0.21891271096E+03  0.00000000000E+00 0. -1.
         11    1    3    3    0    0  0.12032863416E+03  0.69156617302E+01 -0.56079788788E+01  0.12065759820E+03  0.00000000000E+00 0.  1.
</event>
<event>
 7    1  0.4274778E-006  0.1038937E+03  0.7561462E-02  0.1272315E+00
          1   -1    0    0  501    0  0.00000000000E+00  0.00000000000E+00  0.23322304727E+02  0.23322304727E+02  0.00000000000E+00 0. -1.
         -1   -1    0    0    0  501 -0.00000000000E+00 -0.00000000000E+00 -0.65855639805E+03  0.65855639805E+03  0.00000000000E+00 0.  1.
         23    2    1    2    0    0  0.39452329036E+02 -0.68152219322E+01 -0.13745890308E+03  0.17001143628E+03  0.91684267548E+02 0.  0.
          5    1    1    2  502    0 -0.60564797603E+02 -0.32196086341E+02 -0.21822343199E+03  0.22878728408E+03  0.41800000000E+01 0. -1.
         -5    1    1    2    0  502  0.21112468567E+02  0.39011308273E+02 -0.27955175825E+03  0.28307998242E+03  0.41800000000E+01 0.  1.
        -11    1    3    3    0    0  0.49736963413E+01  0.37802311111E+02 -0.29477959368E+02  0.48194423631E+02  0.00000000000E+00 0.  1.
         11    1    3    3    0    0  0.34478632694E+02 -0.44617533044E+02 -0.10798094371E+03  0.12181701265E+03  0.00000000000E+00 0. -1.
</event>
<event>
 7    1  0.4274778E-006  0.2136971E+03  0.7561462E-02  0.1138671E+00
          1   -1    0    0  501    0  0.00000000000E+00  0.00000000000E+00  0.17008800259E+03  0.17008800259E+03  0.00000000000E+00 0. -1.
         -1   -1    0    0    0  501 -0.00000000000E+00 -0.00000000000E+00 -0.38491046283E+03  0.38491046283E+03  0.00000000000E+00 0.  1.
         23    2    1    2    0    0 -0.52824174905E+02  0.11693715540E+03  0.20497245044E+02  0.15864594593E+03  0.91014874270E+02 0.  0.
          5    1    1    2  502    0  0.39755557074E+02  0.72261848916E+02  0.13281778582E+02  0.83643034195E+02  0.41800000000E+01 0. -1.
         -5    1    1    2    0  502  0.13068617831E+02 -0.18919900432E+03 -0.24860148387E+03  0.31270948529E+03  0.41800000000E+01 0.  1.
        -11    1    3    3    0    0  0.12457911321E+02 -0.75380860956E+01 -0.57601730926E+01  0.15658923671E+02  0.00000000000E+00 0.  1.
         11    1    3    3    0    0 -0.65282086226E+02  0.12447524150E+03  0.26257418136E+02  0.14298702226E+03  0.00000000000E+00 0. -1.
</event>
<event>
 7    1  0.4274778E-006  0.1831687E+03  0.7561462E-02  0.1164771E+00
         -2   -1    0    0    0  501 -0.00000000000E+00  0.00000000000E+00  0.61523259408E+02  0.61523259408E+02  0.00000000000E+00 0.  1.
          2   -1    0    0  501    0  0.00000000000E+00 -0.00000000000E+00 -0.11244104875E+04  0.11244104875E+04  0.00000000000E+00 0. -1.
         23    2    1    2    0    0  0.16268385410E+03  0.45364158564E+02 -0.78520441257E+03  0.80838917115E+03  0.91777662040E+02 0.  0.
          5    1    1    2  502    0 -0.11378745384E+03 -0.70284858773E+02 -0.29154523725E+03  0.32078597816E+03  0.41800000000E+01 0. -1.
         -5    1    1    2    0  502 -0.48896400264E+02  0.24920700209E+02  0.13862421776E+02  0.56758597544E+02  0.41800000000E+01 0.  1.
        -11    1    3    3    0    0  0.18398874053E+02  0.26084601280E+02 -0.53122294869E+02  0.61975020795E+02  0.00000000000E+00 0.  1.
         11    1    3    3    0    0  0.14428498005E+03  0.19279557284E+02 -0.73208211770E+03  0.74641415036E+03  0.00000000000E+00 0. -1.
</event>
<event>
 7    1  0.4274778E-006  0.1962453E+03  0.7561462E-02  0.1152946E+00
         -2   -1    0    0    0  501 -0.00000000000E+00  0.00000000000E+00  0.74231381434E+02  0.74231381434E+02  0.00000000000E+00 0.  1.
          2   -1    0    0  501    0  0.00000000000E+00 -0.00000000000E+00 -0.63906756940E+03  0.63906756940E+03  0.00000000000E+00 0. -1.
         23    2    1    2    0    0  0.11029606041E+03  0.14667640273E+03 -0.33760607397E+03  0.39555806637E+03  0.93856990285E+02 0.  0.
          5    1    1    2  502    0 -0.37941130639E+02 -0.28124324368E+02 -0.15305677507E+03  0.16023219342E+03  0.41800000000E+01 0. -1.
         -5    1    1    2    0  502 -0.72354929773E+02 -0.11855207836E+03 -0.74173338923E+02  0.15750869104E+03  0.41800000000E+01 0. -1.
        -11    1    3    3    0    0  0.11840440180E+03  0.89619158642E+02 -0.24316421283E+03  0.28492109497E+03  0.00000000000E+00 0.  1.
         11    1    3    3    0    0 -0.81083413858E+01  0.57057244085E+02 -0.94441861145E+02  0.11063697139E+03  0.00000000000E+00 0. -1.
</event>
<event>
 7    1  0.4274778E-006  0.1465081E+03  0.7561462E-02  0.1204831E+00
          2   -1    0    0  501    0  0.00000000000E+00  0.00000000000E+00  0.30156165084E+03  0.30156165084E+03  0.00000000000E+00 0. -1.
         -2   -1    0    0    0  501 -0.00000000000E+00 -0.00000000000E+00 -0.84774667270E+02  0.84774667270E+02  0.00000000000E+00 0.  1.
         23    2    1    2    0    0 -0.70762030486E+02  0.92730923876E+02  0.90788860739E+02  0.17389273919E+03  0.91595733022E+02 0.  0.
          5    1    1    2  502    0 -0.29765639095E+02  0.22189274055E+01  0.95534572571E+01  0.31617366353E+02  0.41800000000E+01 0.  1.
         -5    1    1    2    0  502  0.10052766958E+03 -0.94949851282E+02  0.11644466557E+03  0.18082621257E+03  0.41800000000E+01 0.  1.
        -11    1    3    3    0    0 -0.46329521507E+02  0.88281011433E+02  0.10539658972E+03  0.14508067641E+03  0.00000000000E+00 0. -1.
         11    1    3    3    0    0 -0.24432508979E+02  0.44499124431E+01 -0.14607728981E+02  0.28812062782E+02  0.00000000000E+00 0.  1.
</event>
<event>
 7    1  0.4274778E-006  0.7898992E+02  0.7561462E-02  0.1331943E+00
          2   -1    0    0  501    0  0.00000000000E+00  0.00000000000E+00  0.23030161222E+03  0.23030161222E+03  0.00000000000E+00 0. -1.
         -2   -1    0    0    0  501 -0.00000000000E+00 -0.00000000000E+00 -0.60210529157E+02  0.60210529157E+02  0.00000000000E+00 0.  1.
         23    2    1    2    0    0 -0.48199663937E+01  0.42896480545E+02  0.82435569544E+02  0.13178509540E+03  0.93318530446E+02 0.  0.
          5    1    1    2  502    0  0.21613708514E+02  0.13061437917E+02  0.96188154210E+02  0.99535857693E+02  0.41800000000E+01 0. -1.
         -5    1    1    2    0  502 -0.16793742121E+02 -0.55957918462E+02 -0.85326406932E+01  0.59191188282E+02  0.41800000000E+01 0. -1.
        -11    1    3    3    0    0 -0.18052357076E+02 -0.90573024533E+01 -0.11781652584E+02  0.23382250989E+02  0.00000000000E+00 0.  1.
         11    1    3    3    0    0  0.13232390682E+02  0.51953782998E+02  0.94217222128E+02  0.10840284441E+03  0.00000000000E+00 0. -1.
</event>
<event>
 7    1  0.4274778E-006  0.2211411E+03  0.7561462E-02  0.1133035E+00
         -2   -1    0    0    0  501 -0.00000000000E+00  0.00000000000E+00  0.46167526275E+03  0.46167526275E+03  0.00000000000E+00 0.  1.
          2   -1    0    0  501    0  0.00000000000E+00 -0.00000000000E+00 -0.11129604928E+03  0.11129604928E+03  0.00000000000E+00 0. -1.
         23    2    1    2    0    0  0.20960100785E+02  0.19709891039E+03  0.15595466006E+03  0.26844599661E+03  0.91946129860E+02 0.  0.
          5    1    1    2  502    0 -0.13754261791E+02  0.14606100375E+02  0.30034946827E+02  0.36360532400E+02  0.41800000000E+01 0. -1.
         -5    1    1    2    0  502 -0.72058389946E+01 -0.21170501077E+03  0.16438960658E+03  0.26816478302E+03  0.41800000000E+01 0. -1.
        -11    1    3    3    0    0 -0.17824513731E+02  0.13745036809E+02  0.45869682311E+02  0.51094687414E+02  0.00000000000E+00 0.  1.
         11    1    3    3    0    0  0.38784614517E+02  0.18335387358E+03  0.11008497775E+03  0.21735130919E+03  0.00000000000E+00 0. -1.
</event>
<event>
 7    1  0.4274778E-006  0.1025330E+03  0.7561462E-02  0.1275058E+00
         -3   -1    0    0    0  501 -0.00000000000E+00  0.00000000000E+00  0.35471061022E+02  0.35471061022E+02  0.00000000000E+00 0.  1.
          3   -1    0    0  501    0  0.00000000000E+00 -0.00000000000E+00 -0.47085697921E+03  0.47085697921E+03  0.00000000000E+00 0. -1.
         23    2    1    2    0    0 -0.53479800647E+02 -0.35734553309E+02 -0.25985798805E+03  0.28139391763E+03  0.86713987060E+02 0.  0.
          5    1    1    2  502    0 -0.33554433803E+02 -0.17382102296E+02 -0.57162448798E+02  0.68651696706E+02  0.41800000000E+01 0.  1.
         -5    1    1    2    0  502  0.87034234450E+02  0.53116655605E+02 -0.11836548134E+03  0.15628242589E+03  0.41800000000E+01 0.  1.
        -11    1    3    3    0    0 -0.13088175451E+02 -0.41716008572E+01  0.25966043372E+01  0.13980162533E+02  0.00000000000E+00 0.  1.
         11    1    3    3    0    0 -0.40391625195E+02 -0.31562952452E+02 -0.26245459239E+03  0.26741375510E+03  0.00000000000E+00 0. -1.
</event>
<event>
 7    1  0.4274778E-006  0.1312005E+03  0.7561462E-02  0.1225685E+00
         -2   -1    0    0    0  501 -0.00000000000E+00  0.00000000000E+00  0.20813350537E+03  0.20813350537E+03  0.00000000000E+00 0.  1.
          2   -1    0    0  501    0  0.00000000000E+00 -0.00000000000E+00 -0.15851397090E+03  0.15851397090E+03  0.00000000000E+00 0. -1.
         23    2    1    2    0    0  0.61713397876E+02  0.46330097864E+02 -0.97100155556E+02  0.15897369984E+03  0.99444334109E+02 0.  0.
          5    1    1    2  502    0 -0.77300089427E+02  0.16165671944E+02  0.10237533380E+03  0.12936310968E+03  0.41800000000E+01 0. -1.
         -5    1    1    2    0  502  0.15586691551E+02 -0.62495769808E+02  0.44344356239E+02  0.78310666755E+02  0.41800000000E+01 0. -1.
        -11    1    3    3    0    0  0.81903476254E+02  0.17790583243E+02 -0.90587561287E+02  0.12341308899E+03  0.00000000000E+00 0.  1.
         11    1    3    3    0    0 -0.20190078379E+02  0.28539514621E+02 -0.65125942684E+01  0.35560610847E+02  0.00000000000E+00 0. -1.
</event>
<event>
 7    1  0.4274778E-006  0.1292597E+03  0.7561462E-02  0.1228558E+00
         -2   -1    0    0    0  501 -0.00000000000E+00  0.00000000000E+00  0.33540292057E+02  0.33540292057E+02  0.00000000000E+00 0.  1.
          2   -1    0    0  501    0  0.00000000000E+00 -0.00000000000E+00 -0.59885615667E+03  0.59885615667E+03  0.00000000000E+00 0. -1.
         23    2    1    2    0    0  0.19142770048E+02 -0.83393863113E+02 -0.31606299394E+03  0.34068779495E+03  0.94081748722E+02 0.  0.
          5    1    1    2  502    0  0.14563748181E+02 -0.27168165561E+02 -0.27127384280E+02  0.41274439535E+02  0.41800000000E+01 0.  1.
         -5    1    1    2    0  502 -0.33706518229E+02  0.11056202867E+03 -0.22212548640E+03  0.25043421424E+03  0.41800000000E+01 0.  1.
        -11    1    3    3    0    0 -0.10667372827E+01  0.13109920661E+02 -0.45091595814E+01  0.13904692312E+02  0.00000000000E+00 0.  1.
         11    1    3    3    0    0  0.20209507330E+02 -0.96503783773E+02 -0.31155383436E+03  0.32678310264E+03  0.00000000000E+00 0. -1.
</event>
<event>
 7    1  0.4274778E-006  0.1269629E+03  0.7561462E-02  0.1232033E+00
         -2   -1    0    0    0  501 -0.00000000000E+00  0.00000000000E+00  0.48525296439E+02  0.48525296439E+02  0.00000000000E+00 0. -1.
          2   -1    0    0  501    0  0.00000000000E+00 -0.00000000000E+00 -0.51568024930E+03  0.51568024930E+03  0.00000000000E+00 0.  1.
         23    2    1    2    0    0  0.98339516488E+02 -0.31890842792E+02 -0.29950996218E+03  0.33088232314E+03  0.95337337737E+02 0.  0.
          5    1    1    2  502    0 -0.61172510412E+02  0.50004413021E+02 -0.17413123116E+03  0.19126336664E+03  0.41800000000E+01 0. -1.
         -5    1    1    2    0  502 -0.37167006076E+02 -0.18113570228E+02  0.64862404865E+01  0.42059855952E+02  0.41800000000E+01 0. -1.
        -11    1    3    3    0    0 -0.12179370787E+02  0.92786874313E+01 -0.10041512901E+02  0.18310191003E+02  0.00000000000E+00 0. -1.
         11    1    3    3    0    0  0.11051888728E+03 -0.41169530224E+02 -0.28946844928E+03  0.31257213214E+03  0.00000000000E+00 0.  1.
</event>
<event>
 7    1  0.4274778E-006  0.1081649E+03  0.7561462E-02  0.1264007E+00
         -2   -1    0    0    0  501 -0.00000000000E+00  0.00000000000E+00  0.64548716754E+02  0.64548716754E+02  0.00000000000E+00 0.  1.
          2   -1    0    0  501    0  0.00000000000E+00 -0.00000000000E+00 -0.19752859047E+03  0.19752859047E+03  0.00000000000E+00 0. -1.
         23    2    1    2    0    0 -0.19349148281E+02 -0.26602431856E+02 -0.56320861832E+02  0.11170100825E+03  0.90680741322E+02 0.  0.
          5    1    1    2  502    0  0.49512930984E+02  0.62334152120E+02 -0.33035150848E+02  0.86289457332E+02  0.41800000000E+01 0.  1.
         -5    1    1    2    0  502 -0.30163782702E+02 -0.35731720264E+02 -0.43623861038E+02  0.64086841643E+02  0.41800000000E+01 0.  1.
        -11    1    3    3    0    0 -0.51550756306E+02 -0.25335446197E+02 -0.54879004003E+02  0.79442245626E+02  0.00000000000E+00 0. -1.
         11    1    3    3    0    0  0.32201608025E+02 -0.12669856590E+01 -0.14418578288E+01  0.32258762624E+02  0.00000000000E+00 0.  1.
</event>
<event>
 7    1  0.4274778E-006  0.1119201E+03  0.7561462E-02  0.1257055E+00
         -1   -1    0    0    0  501 -0.00000000000E+00  0.00000000000E+00  0.29024873411E+03  0.29024873411E+03  0.00000000000E+00 0.  1.
          1   -1    0    0  501    0  0.00000000000E+00 -0.00000000000E+00 -0.70937065651E+02  0.70937065651E+02  0.00000000000E+00 0. -1.
         23    2    1    2    0    0 -0.15605685455E+02 -0.79988715499E+02  0.40659281159E+02  0.12838090878E+03  0.90480653012E+02 0.  0.
          5    1    1    2  502    0 -0.31283286598E+02  0.26468174770E+02  0.79706831776E+00  0.41198495287E+02  0.41800000000E+01 0. -1.
         -5    1    1    2    0  502  0.46888972053E+02  0.53520540729E+02  0.17785531898E+03  0.19160639569E+03  0.41800000000E+01 0. -1.
        -11    1    3    3    0    0  0.10635897748E+02 -0.84135114126E+02  0.64255970594E+01  0.85047798604E+02  0.00000000000E+00 0. -1.
         11    1    3    3    0    0 -0.26241583203E+02  0.41463986272E+01  0.34233684099E+02  0.43333110177E+02  0.00000000000E+00 0.  1.
</event>
<event>
 7    1  0.4274778E-006  0.4679708E+02  0.7561462E-02  0.1463425E+00
         -1   -1    0    0    0  501 -0.00000000000E+00  0.00000000000E+00  0.10548697286E+03  0.10548697286E+03  0.00000000000E+00 0.  1.
          1   -1    0    0  501    0  0.00000000000E+00 -0.00000000000E+00 -0.11477426169E+03  0.11477426169E+03  0.00000000000E+00 0. -1.
         23    2    1    2    0    0 -0.93563055020E+00  0.22516821258E+02 -0.87463550970E+01  0.93125937450E+02  0.89933635834E+02 0.  0.
          5    1    1    2  502    0  0.69942667224E+01 -0.71927496477E+01  0.61681780573E+02  0.62632019520E+02  0.41800000000E+01 0.  1.
         -5    1    1    2    0  502 -0.60586361722E+01 -0.15324071611E+02 -0.62222714301E+02  0.64503277576E+02  0.41800000000E+01 0.  1.
        -11    1    3    3    0    0  0.14135632778E+02  0.40128412505E+02  0.27096124801E+02  0.50441110054E+02  0.00000000000E+00 0.  1.
         11    1    3    3    0    0 -0.15071263329E+02 -0.17611591247E+02 -0.35842479898E+02  0.42684827396E+02  0.00000000000E+00 0. -1.
</event>
<event>
 7    1  0.4274778E-006  0.9842604E+02  0.7561462E-02  0.1283641E+00
         -1   -1    0    0    0  501 -0.00000000000E+00  0.00000000000E+00  0.98391276261E+02  0.98391276261E+02  0.00000000000E+00 0.  1.
          1   -1    0    0  501    0  0.00000000000E+00 -0.00000000000E+00 -0.15408299789E+03  0.15408299789E+03  0.00000000000E+00 0. -1.
         23    2    1    2    0    0 -0.25295367064E+02  0.43909909934E+02 -0.54178525671E+02  0.11749048209E+03  0.91108533914E+02 0.  0.
          5    1    1    2  502    0  0.39009999557E+02 -0.83317983875E+02 -0.84452569205E+01  0.92479518094E+02  0.41800000000E+01 0. -1.
         -5    1    1    2    0  502 -0.13714632493E+02  0.39408073941E+02  0.69320609658E+01  0.42504273966E+02  0.41800000000E+01 0. -1.
        -11    1    3    3    0    0 -0.83859145270E+01 -0.58792689436E+01  0.22380933165E+02  0.24612913990E+02  0.00000000000E+00 0.  1.
         11    1    3    3    0    0 -0.16909452537E+02  0.49789178878E+02 -0.76559458836E+02  0.92877568097E+02  0.00000000000E+00 0. -1.
</event>
<event>
 7    1  0.4274778E-006  0.1002162E+03  0.7561462E-02  0.1279842E+00
         -3   -1    0    0    0  501 -0.00000000000E+00  0.00000000000E+00  0.64025153206E+02  0.64025153206E+02  0.00000000000E+00 0.  1.
          3   -1    0    0  501    0  0.00000000000E+00 -0.00000000000E+00 -0.23183497408E+03  0.23183497408E+03  0.00000000000E+00 0. -1.
         23    2    1    2    0    0 -0.46897785570E+02  0.67630132762E+01 -0.10337449421E+03  0.14738547646E+03  0.93760609957E+02 0.  0.
          5    1    1    2  502    0 -0.36435255253E+02 -0.37521218626E+01  0.82487823831E+01  0.37777255785E+02  0.41800000000E+01 0. -1.
         -5    1    1    2    0  502  0.83333040822E+02 -0.30108914136E+01 -0.72684109046E+02  0.11069739504E+03  0.41800000000E+01 0. -1.
        -11    1    3    3    0    0 -0.59861923967E+02 -0.80374407553E+01 -0.22987533908E+02  0.64625669127E+02  0.00000000000E+00 0.  1.
         11    1    3    3    0    0  0.12964138398E+02  0.14800454032E+02 -0.80386960300E+02  0.82759807335E+02  0.00000000000E+00 0. -1.
</event>
<event>
 7    1  0.4274778E-006  0.1017934E+03  0.7561462E-02  0.1276569E+00
          3   -1    0    0  501    0  0.00000000000E+00  0.00000000000E+00  0.17504361268E+03  0.17504361268E+03  0.00000000000E+00 0. -1.
         -3   -1    0    0    0  501 -0.00000000000E+00 -0.00000000000E+00 -0.91484574642E+02  0.91484574642E+02  0.00000000000E+00 0.  1.
         23    2    1    2    0    0  0.42394539917E+02 -0.50482340571E+02  0.58647500753E+02  0.12299046331E+03  0.85681742493E+02 0.  0.
          5    1    1    2  502    0  0.42523728902E+02  0.20201121927E+02  0.24605299641E+02  0.53284575792E+02  0.41800000000E+01 0. -1.
         -5    1    1    2    0  502 -0.84918268819E+02  0.30281218644E+02  0.30623764303E+00  0.90253148218E+02  0.41800000000E+01 0. -1.
        -11    1    3    3    0    0  0.31484983210E+02 -0.40364025208E+02 -0.10502563547E+02  0.52257655322E+02  0.00000000000E+00 0.  1.
         11    1    3    3    0    0  0.10909556706E+02 -0.10118315364E+02  0.69150064300E+02  0.70732807989E+02  0.00000000000E+00 0. -1.
</event>
<event>
 7    1  0.4274778E-006  0.1071459E+03  0.7561462E-02  0.1265948E+00
          4   -1    0    0  501    0  0.00000000000E+00  0.00000000000E+00  0.30575352125E+03  0.30575352125E+03  0.00000000000E+00 0. -1.
         -4   -1    0    0    0  501 -0.00000000000E+00 -0.00000000000E+00 -0.43370412857E+02  0.43370412857E+02  0.00000000000E+00 0.  1.
         23    2    1    2    0    0 -0.25668841005E+02  0.29103692552E+02  0.11695086215E+03  0.15339869437E+03  0.91365972639E+02 0.  0.
          5    1    1    2  502    0  0.22584639742E+02  0.48258685676E+02  0.58449254799E+02  0.79200722737E+02  0.41800000000E+01 0.  1.
         -5    1    1    2    0  502  0.30842012628E+01 -0.77362378228E+02  0.86982991437E+02  0.11652451700E+03  0.41800000000E+01 0.  1.
        -11    1    3    3    0    0 -0.26290817771E+02 -0.20724821448E+02  0.92557634192E+01  0.34733189885E+02  0.00000000000E+00 0.  1.
         11    1    3    3    0    0  0.62197676548E+00  0.49828514000E+02  0.10769509873E+03  0.11866550448E+03  0.00000000000E+00 0. -1.
</event>
<event>
 7    1  0.4274778E-006  0.1015357E+03  0.7561462E-02  0.1277099E+00
         -2   -1    0    0    0  501 -0.00000000000E+00  0.00000000000E+00  0.14634843553E+03  0.14634843553E+03  0.00000000000E+00 0.  1.
          2   -1    0    0  501    0  0.00000000000E+00 -0.00000000000E+00 -0.87434995376E+02  0.87434995376E+02  0.00000000000E+00 0. -1.
         23    2    1    2    0    0  0.17884764942E+02 -0.17012733599E+02  0.32431566602E+01  0.94662592479E+02  0.91330117859E+02 0.  0.
          5    1    1    2  502    0 -0.35381296946E+02 -0.42294165781E+02 -0.75781608850E+00  0.55305328115E+02  0.41800000000E+01 0. -1.
         -5    1    1    2    0  502  0.17496532004E+02  0.59306899381E+02  0.56428099585E+02  0.83815510313E+02  0.41800000000E+01 0. -1.
        -11    1    3    3    0    0  0.48902458499E+02 -0.23265267812E+02  0.21344496652E+02  0.58209197477E+02  0.00000000000E+00 0.  1.
         11    1    3    3    0    0 -0.31017693557E+02  0.62525342130E+01 -0.18101339992E+02  0.36453395002E+02  0.00000000000E+00 0. -1.
</event>
<event>
 7    1  0.4274778E-006  0.6202223E+02  0.7561462E-02  0.1389536E+00
         -2   -1    0    0    0  501 -0.00000000000E+00  0.00000000000E+00  0.30976161807E+03  0.30976161807E+03  0.00000000000E+00 0.  1.
          2   -1    0    0  501    0  0.00000000000E+00 -0.00000000000E+00 -0.39974329054E+02  0.39974329054E+02  0.00000000000E+00 0. -1.
         23    2    1    2    0    0 -0.55283734315E+01 -0.16747020691E+02  0.82220087286E+02  0.12359287401E+03  0.90576101363E+02 0.  0.
          5    1    1    2  502    0 -0.94595505541E+01  0.15547403398E+02  0.20319864344E+03  0.20405481113E+03  0.41800000000E+01 0.  1.
         -5    1    1    2    0  502  0.14987923986E+02  0.11996172927E+01 -0.15631441716E+02  0.22088261977E+02  0.41800000000E+01 0.  1.
        -11    1    3    3    0    0 -0.40959668746E+02 -0.31210772577E+02  0.61013593478E+02  0.79840249108E+02  0.00000000000E+00 0.  1.
         11    1    3    3    0    0  0.35431295314E+02  0.14463751886E+02  0.21206493808E+02  0.43752624903E+02  0.00000000000E+00 0. -1.
</event>
<event>
 7    1  0.4274778E-006  0.6927147E+02  0.7561462E-02  0.1362588E+00
          2   -1    0    0  501    0  0.00000000000E+00  0.00000000000E+00  0.40171187776E+03  0.40171187776E+03  0.00000000000E+00 0. -1.
         -2   -1    0    0    0  501 -0.00000000000E+00 -0.00000000000E+00 -0.33669351274E+02  0.33669351274E+02  0.00000000000E+00 0.  1.
         23    2    1    2    0    0  0.71335301452E+01  0.38952966376E+02  0.18484305750E+03  0.21004415566E+03  0.91560748025E+02 0.  0.
          5    1    1    2  502    0 -0.76081678875E+01 -0.28194113740E+02  0.20152584380E+03  0.20367358785E+03  0.41800000000E+01 0.  1.
         -5    1    1    2    0  502  0.47463774227E+00 -0.10758852636E+02 -0.18326374818E+02  0.21663485522E+02  0.41800000000E+01 0.  1.
        -11    1    3    3    0    0  0.28801109631E+02 -0.19746131639E+02  0.45996546825E+02  0.57750289614E+02  0.00000000000E+00 0. -1.
         11    1    3    3    0    0 -0.21667579485E+02  0.58699098014E+02  0.13884651068E+03  0.15229386605E+03  0.00000000000E+00 0.  1.
</event>
<event>
 6    1  0.4274778E-006  0.1675800E+03  0.7561462E-02  0.1180395E+00
         -1   -1    0    0    0  501 -0.00000000000E+00  0.00000000000E+00  0.11957451957E+03  0.11957451957E+03  0.00000000000E+00 0.  1.
          1   -1    0    0  501    0  0.00000000000E+00 -0.00000000000E+00 -0.24416268812E+03  0.24416268812E+03  0.00000000000E+00 0. -1.
          5    1    1    2  502    0 -0.13247692055E+03 -0.25334282803E+02 -0.46728796543E+02  0.14280410775E+03  0.41800000000E+01 0.  1.
         -5    1    1    2    0  502  0.19357690970E+02  0.26272759518E+02 -0.30386617977E+01  0.33040641003E+02  0.41800000000E+01 0.  1.
        -11    1    1    2    0    0  0.13931118623E+03  0.82627124912E+01 -0.78124629037E+02  0.15993541411E+03  0.00000000000E+00 0. -1.
         11    1    1    2    0    0 -0.26191956651E+02 -0.92011892055E+01  0.33039188183E+01  0.27957044828E+02  0.00000000000E+00 0.  1.
</event>
<event>
 7    1  0.4274778E-006  0.8684364E+02  0.7561462E-02  0.1310680E+00
          2   -1    0    0  501    0  0.00000000000E+00  0.00000000000E+00  0.68747225278E+03  0.68747225278E+03  0.00000000000E+00 0. -1.
         -2   -1    0    0    0  501 -0.00000000000E+00 -0.00000000000E+00 -0.19157863589E+02  0.19157863589E+02  0.00000000000E+00 0.  1.
         23    2    1    2    0    0 -0.28440951221E+02 -0.25035918971E+02  0.29292108801E+03  0.30913347123E+03  0.91241735444E+02 0.  0.
          5    1    1    2  502    0 -0.34311647888E+02 -0.16213007824E+01  0.31204787211E+02  0.46595374684E+02  0.41800000000E+01 0.  1.
         -5    1    1    2    0  502  0.62752599109E+02  0.26657219753E+02  0.34418851397E+03  0.35090127045E+03  0.41800000000E+01 0.  1.
        -11    1    3    3    0    0 -0.46599544355E+02 -0.11145446058E+02  0.27738324248E+03  0.28149103309E+03  0.00000000000E+00 0. -1.
         11    1    3    3    0    0  0.18158593134E+02 -0.13890472913E+02  0.15537845529E+02  0.27642438135E+02  0.00000000000E+00 0.  1.
</event>
<event>
 7    1  0.4274778E-006  0.3405758E+03  0.7561462E-02  0.1066551E+00
          1   -1    0    0  501    0  0.00000000000E+00  0.00000000000E+00  0.21751034645E+03  0.21751034645E+03  0.00000000000E+00 0. -1.
         -1   -1    0    0    0  501 -0.00000000000E+00 -0.00000000000E+00 -0.63383048550E+03  0.63383048550E+03  0.00000000000E+00 0.  1.
         23    2    1    2    0    0 -0.57367952717E+02 -0.13869844219E+03  0.27028035201E+02  0.17738624776E+03  0.90592639561E+02 0.  0.
          5    1    1    2  502    0 -0.15476535175E+03 -0.10187835036E+03 -0.18758097529E+03  0.26369605053E+03  0.41800000000E+01 0. -1.
         -5    1    1    2    0  502  0.21213330447E+03  0.24057679255E+03 -0.25576719896E+03  0.41025853366E+03  0.41800000000E+01 0.  1.
        -11    1    3    3    0    0 -0.74428972081E+01  0.13198657955E+02  0.51563796271E+01  0.16005922077E+02  0.00000000000E+00 0.  1.
         11    1    3    3    0    0 -0.49925055509E+02 -0.15189710015E+03  0.21871655574E+02  0.16138032568E+03  0.00000000000E+00 0. -1.
</event>
<event>
 7    1  0.4274778E-006  0.9280005E+02  0.7561462E-02  0.1296209E+00
          2   -1    0    0  501    0  0.00000000000E+00  0.00000000000E+00  0.54802929091E+02  0.54802929091E+02  0.00000000000E+00 0. -1.
         -2   -1    0    0    0  501 -0.00000000000E+00 -0.00000000000E+00 -0.32631704493E+03  0.32631704493E+03  0.00000000000E+00 0.  1.
         23    2    1    2    0    0 -0.29669546831E+02  0.32037732247E+02 -0.84704250704E+02  0.13313794714E+03  0.92974214620E+02 0.  0.
          5    1    1    2  502    0 -0.98990724428E+01 -0.44630256152E+02  0.98434386401E+01  0.46949090340E+02  0.41800000000E+01 0. -1.
         -5    1    1    2    0  502  0.39568619274E+02  0.12592523905E+02 -0.19665330378E+03  0.20103293654E+03  0.41800000000E+01 0.  1.
        -11    1    3    3    0    0 -0.36176875769E+02  0.59556357242E+02 -0.76958411146E+02  0.10381870291E+03  0.00000000000E+00 0.  1.
         11    1    3    3    0    0  0.65073289384E+01 -0.27518624995E+02 -0.77458395581E+01  0.29319244226E+02  0.00000000000E+00 0. -1.
</event>
<event>
 7    1  0.4274778E-006  0.1307207E+03  0.7561462E-02  0.1226390E+00
          3   -1    0    0  501    0  0.00000000000E+00  0.00000000000E+00  0.12205950852E+02  0.12205950852E+02  0.00000000000E+00 0. -1.
         -3   -1    0    0    0  501 -0.00000000000E+00 -0.00000000000E+00 -0.19304090310E+04  0.19304090310E+04  0.00000000000E+00 0.  1.
         23    2    1    2    0    0  0.66623767353E+02 -0.38201406741E+02 -0.40303557976E+03  0.42035408516E+03  0.91442902975E+02 0.  0.
          5    1    1    2  502    0  0.32682446345E+02 -0.65398103421E+01 -0.22453568068E+03  0.22703448134E+03  0.41800000000E+01 0. -1.
         -5    1    1    2    0  502 -0.99306213698E+02  0.44741217083E+02 -0.12906318197E+04  0.12952264153E+04  0.41800000000E+01 0. -1.
        -11    1    3    3    0    0  0.41088821967E+02  0.26770610082E+02 -0.18673815844E+03  0.19307018587E+03  0.00000000000E+00 0.  1.
         11    1    3    3    0    0  0.25534945386E+02 -0.64972016823E+02 -0.21629742132E+03  0.22728389929E+03  0.00000000000E+00 0. -1.
</event>
<event>
 7    1  0.4274778E-006  0.9552608E+02  0.7561462E-02  0.1289996E+00
         -2   -1    0    0    0  501 -0.00000000000E+00  0.00000000000E+00  0.50753100202E+03  0.50753100202E+03  0.00000000000E+00 0.  1.
          2   -1    0    0  501    0  0.00000000000E+00 -0.00000000000E+00 -0.28284205076E+02  0.28284205076E+02  0.00000000000E+00 0. -1.
         23    2    1    2    0    0  0.65532900512E+01 -0.16367487293E+02  0.67284890793E+02  0.10491921705E+03  0.78548999530E+02 0.  0.
          5    1    1    2  502    0 -0.35858225293E+02  0.55977921124E+02  0.14738768765E+03  0.16174035627E+03  0.41800000000E+01 0.  1.
         -5    1    1    2    0  502  0.29304935241E+02 -0.39610433832E+02  0.26457421850E+03  0.26915563377E+03  0.41800000000E+01 0.  1.
        -11    1    3    3    0    0  0.39824893262E+02 -0.70745205036E+01  0.54963388304E+02  0.68242545509E+02  0.00000000000E+00 0.  1.
         11    1    3    3    0    0 -0.33271603211E+02 -0.92929667889E+01  0.12321502489E+02  0.36676671544E+02  0.00000000000E+00 0. -1.
</event>
<event>
 7    1  0.4274778E-006  0.1124233E+03  0.7561462E-02  0.1256147E+00
          1   -1    0    0  501    0  0.00000000000E+00  0.00000000000E+00  0.44270146199E+03  0.44270146199E+03  0.00000000000E+00 0. -1.
         -1   -1    0    0    0  501 -0.00000000000E+00 -0.00000000000E+00 -0.38596517319E+02  0.38596517319E+02  0.00000000000E+00 0.  1.
         23    2    1    2    0    0  0.55918974562E+02  0.42598785345E+02  0.21088348357E+03  0.24062392412E+03  0.92121881148E+02 0.  0.
          5    1    1    2  502    0 -0.21869041316E+02  0.34524763492E+02  0.12672796339E+03  0.13322035643E+03  0.41800000000E+01 0.  1.
         -5    1    1    2    0  502 -0.34049933246E+02 -0.77123548836E+02  0.66493497703E+02  0.10745369875E+03  0.41800000000E+01 0.  1.
        -11    1    3    3    0    0  0.16365294516E+01 -0.17957272316E+02  0.41968904556E+01  0.18513663797E+02  0.00000000000E+00 0.  1.
         11    1    3    3    0    0  0.54282445111E+02  0.60556057661E+02  0.20668659311E+03  0.22211026032E+03  0.00000000000E+00 0. -1.
</event>
<event>
 7    1  0.4274778E-006  0.3068469E+03  0.7561462E-02  0.1081867E+00
         -1   -1    0    0    0  501 -0.00000000000E+00  0.00000000000E+00  0.62803212942E+03  0.62803212942E+03  0.00000000000E+00 0.  1.
          1   -1    0    0  501    0  0.00000000000E+00 -0.00000000000E+00 -0.16632286791E+03  0.16632286791E+03  0.00000000000E+00 0. -1.
         23    2    1    2    0    0  0.85157270297E+02  0.28967779126E+03  0.17974305426E+03  0.36270958713E+03  0.89920496053E+02 0.  0.
          5    1    1    2  502    0 -0.93654941378E+02 -0.26039470616E+03  0.19273261856E+03  0.33725359257E+03  0.41800000000E+01 0. -1.
         -5    1    1    2    0  502  0.84976710810E+01 -0.29283085094E+02  0.89233588683E+02  0.94391817630E+02  0.41800000000E+01 0. -1.
        -11    1    3    3    0    0  0.27271722189E+02  0.31921518153E+02 -0.20360888411E+01  0.42034221893E+02  0.00000000000E+00 0. -1.
         11    1    3    3    0    0  0.57885548108E+02  0.25775627310E+03  0.18177914311E+03  0.32067536524E+03  0.00000000000E+00 0.  1.
</event>
<event>
 7    1  0.4274778E-006  0.1395737E+03  0.7561462E-02  0.1213904E+00
         -1   -1    0    0    0  501 -0.00000000000E+00  0.00000000000E+00  0.25625234250E+02  0.25625234250E+02  0.00000000000E+00 0.  1.
          1   -1    0    0  501    0  0.00000000000E+00 -0.00000000000E+00 -0.89013761808E+03  0.89013761808E+03  0.00000000000E+00 0. -1.
         23    2    1    2    0    0  0.89486571162E+02 -0.53818864487E+02 -0.41493338771E+03  0.43756366434E+03  0.91585629435E+02 0.  0.
          5    1    1    2  502    0 -0.34422526175E+02 -0.25914783289E+02 -0.27588445059E+03  0.27926007373E+03  0.41800000000E+01 0. -1.
         -5    1    1    2    0  502 -0.55064044987E+02  0.79733647776E+02 -0.17369454553E+03  0.19893911427E+03  0.41800000000E+01 0. -1.
        -11    1    3    3    0    0  0.10871713420E+03 -0.47327829441E+02 -0.35732994038E+03  0.37648907686E+03  0.00000000000E+00 0. -1.
         11    1    3    3    0    0 -0.19230563033E+02 -0.64910350462E+01 -0.57603447337E+02  0.61074587478E+02  0.00000000000E+00 0.  1.
</event>
<event>
 7    1  0.4274778E-006  0.8242857E+02  0.7561462E-02  0.1322297E+00
         -1   -1    0    0    0  501 -0.00000000000E+00  0.00000000000E+00  0.12553330900E+03  0.12553330900E+03  0.00000000000E+00 0.  1.
          1   -1    0    0  501    0  0.00000000000E+00 -0.00000000000E+00 -0.11034784363E+03  0.11034784363E+03  0.00000000000E+00 0. -1.
         23    2    1    2    0    0  0.33055898687E+02 -0.15293020188E+02 -0.24482524484E+02  0.99689755716E+02  0.89510247933E+02 0.  0.
          5    1    1    2  502    0 -0.44489023137E+01  0.49474686392E+02 -0.26380851377E+02  0.56399991531E+02  0.41800000000E+01 0. -1.
         -5    1    1    2    0  502 -0.28606996374E+02 -0.34181666204E+02  0.66048841228E+02  0.79791405387E+02  0.41800000000E+01 0. -1.
        -11    1    3    3    0    0  0.23179750702E+02  0.21819992966E+02  0.22518627069E+02  0.38993608460E+02  0.00000000000E+00 0.  1.
         11    1    3    3    0    0  0.98761479850E+01 -0.37113013154E+02 -0.47001151553E+02  0.60696147256E+02  0.00000000000E+00 0. -1.
</event>
<event>
 7    1  0.4274778E-006  0.1989565E+03  0.7561462E-02  0.1150622E+00
         -2   -1    0    0    0  501 -0.00000000000E+00  0.00000000000E+00  0.62391531811E+02  0.62391531811E+02  0.00000000000E+00 0.  1.
          2   -1    0    0  501    0  0.00000000000E+00 -0.00000000000E+00 -0.64003329836E+03  0.64003329836E+03  0.00000000000E+00 0. -1.
         23    2    1    2    0    0  0.77868248572E+02  0.14800496481E+03 -0.29488176828E+03  0.35090045922E+03  0.90592170035E+02 0.  0.
          5    1    1    2  502    0  0.36621561238E+01  0.20094456818E+02 -0.40625788255E+02  0.45663176123E+02  0.41800000000E+01 0.  1.
         -5    1    1    2    0  502 -0.81530404696E+02 -0.16809942163E+03 -0.24213421001E+03  0.30586119483E+03  0.41800000000E+01 0.  1.
        -11    1    3    3    0    0  0.70059416429E+02  0.37604795530E+02 -0.12504120936E+03  0.14818146482E+03  0.00000000000E+00 0.  1.
         11    1    3    3    0    0  0.78088321428E+01  0.11040016928E+03 -0.16984055892E+03  0.20271899440E+03  0.00000000000E+00 0. -1.
</event>
<event>
 7    1  0.4274778E-006  0.2007991E+03  0.7561462E-02  0.1149067E+00
         -2   -1    0    0    0  501 -0.00000000000E+00  0.00000000000E+00  0.24625772462E+03  0.24625772462E+03  0.00000000000E+00 0.  1.
          2   -1    0    0  501    0  0.00000000000E+00 -0.00000000000E+00 -0.26088531270E+03  0.26088531270E+03  0.00000000000E+00 0. -1.
         23    2    1    2    0    0  0.15115676846E+03  0.90721549426E+02 -0.15185573005E+03  0.25110870418E+03  0.94428016942E+02 0.  0.
          5    1    1    2  502    0 -0.66332966799E+02 -0.11008942181E+03  0.73668181075E+02  0.14820329477E+03  0.41800000000E+01 0.  1.
         -5    1    1    2    0  502 -0.84823801660E+02  0.19367872380E+02  0.63559960896E+02  0.10783103838E+03  0.41800000000E+01 0.  1.
        -11    1    3    3    0    0  0.90813346123E+02  0.86478173908E+02 -0.14262796569E+03  0.18991649479E+03  0.00000000000E+00 0.  1.
         11    1    3    3    0    0  0.60343422335E+02  0.42433755174E+01 -0.92277643652E+01  0.61192209391E+02  0.00000000000E+00 0. -1.
</event>
<event>
 7    1  0.4274778E-006  0.8483401E+02  0.7561462E-02  0.1315867E+00
         -1   -1    0    0    0  501 -0.00000000000E+00  0.00000000000E+00  0.21380944948E+03  0.21380944948E+03  0.00000000000E+00 0.  1.
          1   -1    0    0  501    0  0.00000000000E+00 -0.00000000000E+00 -0.57352271324E+02  0.57352271324E+02  0.00000000000E+00 0. -1.
         23    2    1    2    0    0  0.57969783828E+01 -0.15014401151E+02  0.52023763910E+02  0.10741320203E+03  0.92585564531E+02 0.  0.
          5    1    1    2  502    0  0.73024436053E+01  0.51900726394E+02  0.11194021029E+03  0.12367333651E+03  0.41800000000E+01 0.  1.
         -5    1    1    2    0  502 -0.13099421988E+02 -0.36886325243E+02 -0.75067960470E+01  0.40075182261E+02  0.41800000000E+01 0.  1.
        -11    1    3    3    0    0 -0.27525799804E+02 -0.30409079945E+02  0.57154606610E+02  0.70349348645E+02  0.00000000000E+00 0.  1.
         11    1    3    3    0    0  0.33322778186E+02  0.15394678794E+02 -0.51308427006E+01  0.37063853389E+02  0.00000000000E+00 0. -1.
</event>
<event>
 7    1  0.4274778E-006  0.1298593E+03  0.7561462E-02  0.1227665E+00
         -1   -1    0    0    0  501 -0.00000000000E+00  0.00000000000E+00  0.10482927531E+04  0.10482927531E+04  0.00000000000E+00 0.  1.
          1   -1    0    0  501    0  0.00000000000E+00 -0.00000000000E+00 -0.16802207777E+02  0.16802207777E+02  0.00000000000E+00 0. -1.
         23    2    1    2    0    0  0.51015265939E+02 -0.50727745722E+02  0.36439298505E+03  0.38256777109E+03  0.91651461395E+02 0.  0.
          5    1    1    2  502    0 -0.72557027891E+02  0.79146721240E+02  0.46392699336E+03  0.47620841377E+03  0.41800000000E+01 0. -1.
         -5    1    1    2    0  502  0.21541761952E+02 -0.28418975519E+02  0.20317056692E+03  0.20631877602E+03  0.41800000000E+01 0. -1.
        -11    1    3    3    0    0  0.77478154909E+02 -0.43817208440E+02  0.27011861648E+03  0.28440618702E+03  0.00000000000E+00 0. -1.
         11    1    3    3    0    0 -0.26462888970E+02 -0.69105372812E+01  0.94274368565E+02  0.98161584067E+02  0.00000000000E+00 0.  1.
</event>
<event>
 7    1  0.4274778E-006  0.1026225E+03  0.7561462E-02  0.1274876E+00
         -1   -1    0    0    0  501 -0.00000000000E+00  0.00000000000E+00  0.10978972118E+03  0.10978972118E+03  0.00000000000E+00 0.  1.
          1   -1    0    0  501    0  0.00000000000E+00 -0.00000000000E+00 -0.16126266359E+03  0.16126266359E+03  0.00000000000E+00 0. -1.
         23    2    1    2    0    0  0.27404128951E+02 -0.59287847742E+02 -0.66132378538E+02  0.12917844246E+03  0.89708100710E+02 0.  0.
          5    1    1    2  502    0 -0.11041879033E+02 -0.30780908936E+02  0.34918980665E+02  0.48022859746E+02  0.41800000000E+01 0. -1.
         -5    1    1    2    0  502 -0.16362249918E+02  0.90068756678E+02 -0.20259544539E+02  0.93851082556E+02  0.41800000000E+01 0. -1.
        -11    1    3    3    0    0  0.19985160610E+02 -0.67012281526E+02 -0.83659736709E+01  0.70427565877E+02  0.00000000000E+00 0.  1.
         11    1    3    3    0    0  0.74189683413E+01  0.77244337841E+01 -0.57766404867E+02  0.58750876587E+02  0.00000000000E+00 0. -1.
</event>
<event>
 7    1  0.4274778E-006  0.2044820E+03  0.7561462E-02  0.1146012E+00
         -1   -1    0    0    0  501 -0.00000000000E+00  0.00000000000E+00  0.47012754306E+02  0.47012754306E+02  0.00000000000E+00 0.  1.
          1   -1    0    0  501    0  0.00000000000E+00 -0.00000000000E+00 -0.96833838292E+03  0.96833838292E+03  0.00000000000E+00 0. -1.
         23    2    1    2    0    0  0.40281859981E+02  0.17909138057E+03 -0.46331493196E+03  0.50631352557E+03  0.89422084287E+02 0.  0.
          5    1    1    2  502    0  0.22792040132E+02 -0.11051448271E+03 -0.34215415223E+03  0.36030523764E+03  0.41800000000E+01 0. -1.
         -5    1    1    2    0  502 -0.63073900113E+02 -0.68576897855E+02 -0.11585654442E+03  0.14873237401E+03  0.41800000000E+01 0. -1.
        -11    1    3    3    0    0  0.47050560876E+02  0.35277164925E+02 -0.16266948892E+03  0.17297281945E+03  0.00000000000E+00 0. -1.
         11    1    3    3    0    0 -0.67687008949E+01  0.14381421564E+03 -0.30064544305E+03  0.33334070612E+03  0.00000000000E+00 0.  1.
</event>
<event>
 7    1  0.4274778E-006  0.1200810E+03  0.7561462E-02  0.1242963E+00
          1   -1    0    0  501    0  0.00000000000E+00  0.00000000000E+00  0.68696150664E+03  0.68696150664E+03  0.00000000000E+00 0. -1.
         -1   -1    0    0    0  501 -0.00000000000E+00 -0.00000000000E+00 -0.37656686203E+02  0.37656686203E+02  0.00000000000E+00 0.  1.
         23    2    1    2    0    0 -0.64062152479E+02 -0.58451576642E+02  0.11753929161E+03  0.17149758438E+03  0.89863174798E+02 0.  0.
          5    1    1    2  502    0 -0.36391705443E+02  0.20307512767E+01  0.11569741995E+03  0.12137481435E+03  0.41800000000E+01 0.  1.
         -5    1    1    2    0  502  0.10045385792E+03  0.56420825366E+02  0.41606810888E+03  0.43174579411E+03  0.41800000000E+01 0.  1.
        -11    1    3    3    0    0 -0.28429747788E+02 -0.15511512419E+02  0.11062950162E+03  0.11527247809E+03  0.00000000000E+00 0. -1.
         11    1    3    3    0    0 -0.35632404692E+02 -0.42940064223E+02  0.69097899894E+01  0.56225106290E+02  0.00000000000E+00 0.  1.
</event>
<event>
 7    1  0.4274778E-006  0.1418631E+03  0.7561462E-02  0.1210844E+00
          3   -1    0    0  501    0  0.00000000000E+00  0.00000000000E+00  0.38460106685E+03  0.38460106685E+03  0.00000000000E+00 0. -1.
         -3   -1    0    0    0  501 -0.00000000000E+00 -0.00000000000E+00 -0.54595918869E+02  0.54595918869E+02  0.00000000000E+00 0.  1.
         23    2    1    2    0    0  0.83695450787E+02  0.46224625822E+02  0.17190147036E+03  0.21606770087E+03  0.89406327142E+02 0.  0.
          5    1    1    2  502    0 -0.10937983134E+03 -0.62537405888E+01  0.11404457968E+03  0.15819827853E+03  0.41800000000E+01 0.  1.
         -5    1    1    2    0  502  0.25684380548E+02 -0.39970885233E+02  0.44059097941E+02  0.64931006321E+02  0.41800000000E+01 0.  1.
        -11    1    3    3    0    0 -0.16969252090E+02  0.69837876747E+01  0.86129619650E+01  0.20270962498E+02  0.00000000000E+00 0.  1.
         11    1    3    3    0    0  0.10066470288E+03  0.39240838147E+02  0.16328850840E+03  0.19579673838E+03  0.00000000000E+00 0. -1.
</event>
<event>
 7    1  0.4274778E-006  0.1022464E+03  0.7561462E-02  0.1275642E+00
         -2   -1    0    0    0  501 -0.00000000000E+00  0.00000000000E+00  0.10030106230E+03  0.10030106230E+03  0.00000000000E+00 0.  1.
          2   -1    0    0  501    0  0.00000000000E+00 -0.00000000000E+00 -0.14748508755E+03  0.14748508755E+03  0.00000000000E+00 0. -1.
         23    2    1    2    0    0 -0.43113114636E+02  0.17740404007E+02 -0.51016193672E+02  0.11419164228E+03  0.90904436423E+02 0.  0.
          5    1    1    2  502    0  0.62182223798E+02  0.38875141700E+02 -0.15209220806E+01  0.73468981228E+02  0.41800000000E+01 0. -1.
         -5    1    1    2    0  502 -0.19069109163E+02 -0.56615545707E+02  0.53530905009E+01  0.60125526341E+02  0.41800000000E+01 0. -1.
        -11    1    3    3    0    0  0.12326271399E+02 -0.16154552802E+01  0.19065625503E+02  0.22760596174E+02  0.00000000000E+00 0.  1.
         11    1    3    3    0    0 -0.55439386035E+02  0.19355859287E+02 -0.70081819175E+02  0.91431046103E+02  0.00000000000E+00 0. -1.
</event>
<event>
 7    1  0.4274778E-006  0.2803334E+03  0.7561462E-02  0.1095507E+00
         -2   -1    0    0    0  501 -0.00000000000E+00  0.00000000000E+00  0.51780849864E+02  0.51780849864E+02  0.00000000000E+00 0.  1.
          2   -1    0    0  501    0  0.00000000000E+00 -0.00000000000E+00 -0.16426984547E+04  0.16426984547E+04  0.00000000000E+00 0. -1.
         23    2    1    2    0    0  0.20122305392E+03  0.16469441233E+03 -0.99330508391E+03  0.10308501967E+04  0.91554199900E+02 0.  0.
          5    1    1    2  502    0 -0.17753371992E+03 -0.70636458708E+02 -0.38056706149E+03  0.42585970894E+03  0.41800000000E+01 0.  1.
         -5    1    1    2    0  502 -0.23689334004E+02 -0.94057953623E+02 -0.21704545949E+03  0.23776939894E+03  0.41800000000E+01 0.  1.
        -11    1    3    3    0    0  0.73007042352E+02  0.11232700575E+03 -0.56700206886E+03  0.58261370611E+03  0.00000000000E+00 0.  1.
         11    1    3    3    0    0  0.12821601157E+03  0.52367406576E+02 -0.42630301504E+03  0.44823649063E+03  0.00000000000E+00 0. -1.
</event>
<event>
 7    1  0.4274778E-006  0.1807103E+03  0.7561462E-02  0.1167117E+00
         -2   -1    0    0    0  501 -0.00000000000E+00  0.00000000000E+00  0.59239798297E+02  0.59239798297E+02  0.00000000000E+00 0.  1.
          2   -1    0    0  501    0  0.00000000000E+00 -0.00000000000E+00 -0.90085139763E+03  0.90085139763E+03  0.00000000000E+00 0. -1.
         23    2    1    2    0    0  0.15382017844E+03 -0.68370227963E+02 -0.64726431458E+03  0.67416576015E+03  0.84930818062E+02 0.  0.
          5    1    1    2  502    0 -0.42917101821E+02 -0.21971151874E+01  0.86636049608E+01  0.44036750502E+02  0.41800000000E+01 0.  1.
         -5    1    1    2    0  502 -0.11090307662E+03  0.70567343150E+02 -0.20301088971E+03  0.24188868528E+03  0.41800000000E+01 0.  1.
        -11    1    3    3    0    0  0.47142903265E+02  0.16981084831E+02 -0.21802638099E+03  0.22371033364E+03  0.00000000000E+00 0. -1.
         11    1    3    3    0    0  0.10667727518E+03 -0.85351312793E+02 -0.42923793359E+03  0.45045542650E+03  0.00000000000E+00 0.  1.
</event>
<event>
 7    1  0.4274778E-006  0.1407899E+03  0.7561462E-02  0.1212270E+00
          2   -1    0    0  501    0  0.00000000000E+00  0.00000000000E+00  0.62823625568E+03  0.62823625568E+03  0.00000000000E+00 0. -1.
         -2   -1    0    0    0  501 -0.00000000000E+00 -0.00000000000E+00 -0.37218821332E+02  0.37218821332E+02  0.00000000000E+00 0.  1.
         23    2    1    2    0    0  0.90445330860E+02  0.15025502572E+02  0.25896165096E+03  0.28923339329E+03  0.90491411322E+02 0.  0.
          5    1    1    2  502    0 -0.44642947361E+02  0.65026391278E+02  0.20054786063E+03  0.21554197066E+03  0.41800000000E+01 0. -1.
         -5    1    1    2    0  502 -0.45802383499E+02 -0.80051893850E+02  0.13150792276E+03  0.16067971307E+03  0.41800000000E+01 0.  1.
        -11    1    3    3    0    0  0.82037171918E+02  0.34546780920E+02  0.25136642237E+03  0.26666206319E+03  0.00000000000E+00 0. -1.
         11    1    3    3    0    0  0.84081589425E+01 -0.19521278348E+02  0.75952285887E+01  0.22571330100E+02  0.00000000000E+00 0.  1.
</event>
<event>
 7    1  0.4274778E-006  0.1084978E+03  0.7561462E-02  0.1263377E+00
          2   -1    0    0  501    0  0.00000000000E+00  0.00000000000E+00  0.22033867522E+03  0.22033867522E+03  0.00000000000E+00 0. -1.
         -2   -1    0    0    0  501 -0.00000000000E+00 -0.00000000000E+00 -0.15459239197E+03  0.15459239197E+03  0.00000000000E+00 0.  1.
         23    2    1    2    0    0 -0.49330256962E+02  0.92078950695E+01  0.17290980124E+03  0.20274066004E+03  0.93207919643E+02 0.  0.
          5    1    1    2  502    0 -0.22005072469E+02  0.24603150332E+02 -0.83167099884E+02  0.89575538646E+02  0.41800000000E+01 0.  1.
         -5    1    1    2    0  502  0.71335329431E+02 -0.33811045402E+02 -0.23996418112E+02  0.82614868507E+02  0.41800000000E+01 0.  1.
        -11    1    3    3    0    0 -0.73694797837E+02 -0.90167569719E+01  0.13562269758E+03  0.15461481569E+03  0.00000000000E+00 0.  1.
         11    1    3    3    0    0  0.24364540875E+02  0.18224652041E+02  0.37287103666E+02  0.48125844345E+02  0.00000000000E+00 0. -1.
</event>
<event>
 7    1  0.4274778E-006  0.1074215E+03  0.7561462E-02  0.1265421E+00
          1   -1    0    0  501    0  0.00000000000E+00  0.00000000000E+00  0.26979641322E+03  0.26979641322E+03  0.00000000000E+00 0. -1.
         -1   -1    0    0    0  501 -0.00000000000E+00 -0.00000000000E+00 -0.52135786989E+02  0.52135786989E+02  0.00000000000E+00 0.  1.
         23    2    1    2    0    0  0.29755806915E+02  0.20224290964E+02  0.13700018540E+03  0.16880546579E+03  0.91824857692E+02 0.  0.
          5    1    1    2  502    0  0.24018542752E+02  0.34055804386E+02 -0.84430810446E-01  0.41882785687E+02  0.41800000000E+01 0.  1.
         -5    1    1    2    0  502 -0.53774349668E+02 -0.54280095350E+02  0.80744871639E+02  0.11124394873E+03  0.41800000000E+01 0.  1.
        -11    1    3    3    0    0 -0.31375425075E+02 -0.18868012489E+01  0.29092675453E+02  0.42829441773E+02  0.00000000000E+00 0.  1.
         11    1    3    3    0    0  0.61131231991E+02  0.22111092213E+02  0.10790750995E+03  0.12597602402E+03  0.00000000000E+00 0. -1.
</event>
<event>
 7    1  0.4274778E-006  0.9976966E+02  0.7561462E-02  0.1280781E+00
         -3   -1    0    0    0  501 -0.00000000000E+00  0.00000000000E+00  0.32945594455E+03  0.32945594455E+03  0.00000000000E+00 0.  1.
          3   -1    0    0  501    0  0.00000000000E+00 -0.00000000000E+00 -0.47398026913E+02  0.47398026913E+02  0.00000000000E+00 0. -1.
         23    2    1    2    0    0  0.54417565406E+02 -0.27895914577E+02  0.11044437658E+03  0.15586104770E+03  0.91407069741E+02 0.  0.
          5    1    1    2  502    0 -0.62853528446E+02  0.67255715498E+02  0.84886101699E+02  0.12528774867E+03  0.41800000000E+01 0. -1.
         -5    1    1    2    0  502  0.84359630408E+01 -0.39359800921E+02  0.86727439365E+02  0.95705175094E+02  0.41800000000E+01 0. -1.
        -11    1    3    3    0    0  0.75631030713E+01 -0.17302822546E+02  0.10594393073E+03  0.10761368247E+03  0.00000000000E+00 0.  1.
         11    1    3    3    0    0  0.46854462334E+02 -0.10593092030E+02  0.45004458513E+01  0.48247365237E+02  0.00000000000E+00 0. -1.
</event>
<event>
 7    1  0.4274778E-006  0.1030110E+03  0.7561462E-02  0.1274089E+00
          1   -1    0    0  501    0  0.00000000000E+00  0.00000000000E+00  0.16567726668E+03  0.16567726668E+03  0.00000000000E+00 0. -1.
         -1   -1    0    0    0  501 -0.00000000000E+00 -0.00000000000E+00 -0.10209219780E+03  0.10209219780E+03  0.00000000000E+00 0.  1.
         23    2    1    2    0    0  0.47309733093E+02  0.58358250000E+02  0.28171328424E+02  0.11761841250E+03  0.86003319853E+02 0.  0.
          5    1    1    2  502    0 -0.57209456455E+02 -0.62017002735E+02  0.72527119070E+02  0.11134040568E+03  0.41800000000E+01 0. -1.
         -5    1    1    2    0  502  0.98997233626E+01  0.36587527344E+01 -0.37113378612E+02  0.38810646300E+02  0.41800000000E+01 0. -1.
        -11    1    3    3    0    0  0.29863228695E+02  0.78237478750E+02  0.34255338229E+02  0.90478415694E+02  0.00000000000E+00 0. -1.
         11    1    3    3    0    0  0.17446504398E+02 -0.19879228750E+02 -0.60840098050E+01  0.27139996807E+02  0.00000000000E+00 0.  1.
</event>
<event>
 7    1  0.4274778E-006  0.1367470E+03  0.7561462E-02  0.1217774E+00
         -1   -1    0    0    0  501 -0.00000000000E+00  0.00000000000E+00  0.18302978402E+03  0.18302978402E+03  0.00000000000E+00 0.  1.
          1   -1    0    0  501    0  0.00000000000E+00 -0.00000000000E+00 -0.28826981164E+03  0.28826981164E+03  0.00000000000E+00 0. -1.
         23    2    1    2    0    0 -0.11451750277E+03 -0.50173012247E+02 -0.22029407064E+03  0.26888498103E+03  0.90211229152E+02 0.  0.
          5    1    1    2  502    0  0.30029340574E+02  0.18487794867E+01 -0.19647371400E+02  0.36175556442E+02  0.41800000000E+01 0. -1.
         -5    1    1    2    0  502  0.84488162196E+02  0.48324232760E+02  0.13470141442E+03  0.16623905820E+03  0.41800000000E+01 0.  1.
        -11    1    3    3    0    0 -0.38736947298E+02 -0.57750267885E+02 -0.61752982717E+02  0.93000405382E+02  0.00000000000E+00 0.  1.
         11    1    3    3    0    0 -0.75780555472E+02  0.75772556383E+01 -0.15854108792E+03  0.17588457565E+03  0.00000000000E+00 0. -1.
</event>
<event>
 7    1  0.4274778E-006  0.2046129E+03  0.7561462E-02  0.1145904E+00
          1   -1    0    0  501    0  0.00000000000E+00  0.00000000000E+00  0.15735550020E+03  0.15735550020E+03  0.00000000000E+00 0. -1.
         -1   -1    0    0    0  501 -0.00000000000E+00 -0.00000000000E+00 -0.27554868348E+03  0.27554868348E+03  0.00000000000E+00 0.  1.
         23    2    1    2    0    0 -0.16754170877E+03  0.57082125170E+02 -0.53753904854E+02  0.20678839270E+03  0.92430319020E+02 0.  0.
          5    1    1    2  502    0 -0.13794315149E+02  0.84447327318E+01 -0.23710752867E+02  0.29004634851E+02  0.41800000000E+01 0.  1.
         -5    1    1    2    0  502  0.18133602392E+03 -0.65526857902E+02 -0.40728525553E+02  0.19711115613E+03  0.41800000000E+01 0.  1.
        -11    1    3    3    0    0 -0.37747954081E+02 -0.25746376817E+02 -0.11181957305E+02  0.47040622080E+02  0.00000000000E+00 0. -1.
         11    1    3    3    0    0 -0.12979375469E+03  0.82828501987E+02 -0.42571947549E+02  0.15974777062E+03  0.00000000000E+00 0.  1.
</event>
<event>
 7    1  0.4274778E-006  0.1145623E+03  0.7561462E-02  0.1252347E+00
         -2   -1    0    0    0  501 -0.00000000000E+00  0.00000000000E+00  0.13178063016E+03  0.13178063016E+03  0.00000000000E+00 0. -1.
          2   -1    0    0  501    0  0.00000000000E+00 -0.00000000000E+00 -0.17221374751E+03  0.17221374751E+03  0.00000000000E+00 0.  1.
         23    2    1    2    0    0  0.57814421768E+02  0.61428088359E+02 -0.81508750726E+02  0.14763273667E+03  0.89642797185E+02 0.  0.
          5    1    1    2  502    0  0.20409034986E+01  0.11439993841E+02 -0.33731307280E+02  0.35920916428E+02  0.41800000000E+01 0.  1.
         -5    1    1    2    0  502 -0.59855325267E+02 -0.72868082199E+02  0.74806940655E+02  0.12044072458E+03  0.41800000000E+01 0.  1.
        -11    1    3    3    0    0 -0.14945942587E+02  0.45510317617E+02 -0.39732829368E+02  0.62235584186E+02  0.00000000000E+00 0.  1.
         11    1    3    3    0    0  0.72760364355E+02  0.15917770741E+02 -0.41775921358E+02  0.85397152481E+02  0.00000000000E+00 0. -1.
</event>
<event>
 7    1  0.4274778E-006  0.1634450E+03  0.7561462E-02  0.1184861E+00
         -1   -1    0    0    0  501 -0.00000000000E+00  0.00000000000E+00  0.79036468225E+02  0.79036468225E+02  0.00000000000E+00 0.  1.
          1   -1    0    0  501    0  0.00000000000E+00 -0.00000000000E+00 -0.48261738676E+03  0.48261738676E+03  0.00000000000E+00 0. -1.
         23    2    1    2    0    0 -0.15102321357E+03  0.14419315990E+02 -0.27596765897E+03  0.32723440079E+03  0.88928491226E+02 0.  0.
          5    1    1    2  502    0  0.13967669048E+03 -0.51831706994E+01 -0.39928387764E+02  0.14542417842E+03  0.41800000000E+01 0. -1.
         -5    1    1    2    0  502  0.11346523098E+02 -0.92361452902E+01 -0.87684871807E+02  0.88995275774E+02  0.41800000000E+01 0. -1.
        -11    1    3    3    0    0 -0.15681368691E+03  0.25940180536E+02 -0.26932705022E+03  0.31273069141E+03  0.00000000000E+00 0. -1.
         11    1    3    3    0    0  0.57904733321E+01 -0.11520864546E+02 -0.66406087474E+01  0.14503709382E+02  0.00000000000E+00 0.  1.
</event>
<event>
 7    1  0.4274778E-006  0.1176598E+03  0.7561462E-02  0.1247008E+00
         -2   -1    0    0    0  501 -0.00000000000E+00  0.00000000000E+00  0.70220706487E+03  0.70220706487E+03  0.00000000000E+00 0.  1.
          2   -1    0    0  501    0  0.00000000000E+00 -0.00000000000E+00 -0.39907883083E+02  0.39907883083E+02  0.00000000000E+00 0. -1.
         23    2    1    2    0    0  0.76966112590E+02  0.19492425734E+02  0.89664231638E+02  0.15062347716E+03  0.91345609028E+02 0.  0.
          5    1    1    2  502    0 -0.56811313886E+01  0.35671709714E+02  0.54232736642E+02  0.65294779665E+02  0.41800000000E+01 0. -1.
         -5    1    1    2    0  502 -0.71284981202E+02 -0.55164135447E+02  0.51840221351E+03  0.52619669113E+03  0.41800000000E+01 0. -1.
        -11    1    3    3    0    0  0.50262764483E+02  0.48114016518E+02  0.22937987602E+02  0.73262919367E+02  0.00000000000E+00 0. -1.
         11    1    3    3    0    0  0.26703348107E+02 -0.28621590784E+02  0.66726244036E+02  0.77360557795E+02  0.00000000000E+00 0.  1.
</event>
<event>
 7    1  0.4274778E-006  0.2247840E+03  0.7561462E-02  0.1130366E+00
         -1   -1    0    0    0  501 -0.00000000000E+00  0.00000000000E+00  0.20478345246E+03  0.20478345246E+03  0.00000000000E+00 0.  1.
          1   -1    0    0  501    0  0.00000000000E+00 -0.00000000000E+00 -0.61734705960E+03  0.61734705960E+03  0.00000000000E+00 0. -1.
         23    2    1    2    0    0 -0.19778767493E+03  0.39811572690E+02 -0.51611151064E+03  0.56598367541E+03  0.11515860254E+03 0.  0.
          5    1    1    2  502    0  0.10816408678E+03  0.31555213603E+02  0.20536692815E+02  0.11460553794E+03  0.41800000000E+01 0. -1.
         -5    1    1    2    0  502  0.89623588149E+02 -0.71366786294E+02  0.83011210685E+02  0.14154129870E+03  0.41800000000E+01 0.  1.
        -11    1    3    3    0    0 -0.36086844453E+02 -0.29142780225E+02 -0.18923139760E+03  0.19483347716E+03  0.00000000000E+00 0.  1.
         11    1    3    3    0    0 -0.16170083048E+03  0.68954352916E+02 -0.32688011304E+03  0.37115019826E+03  0.00000000000E+00 0. -1.
</event>
<event>
 7    1  0.4274778E-006  0.8923406E+02  0.7561462E-02  0.1304717E+00
          2   -1    0    0  501    0  0.00000000000E+00  0.00000000000E+00  0.55912320087E+02  0.55912320087E+02  0.00000000000E+00 0. -1.
         -2   -1    0    0    0  501 -0.00000000000E+00 -0.00000000000E+00 -0.24108765695E+03  0.24108765695E+03  0.00000000000E+00 0.  1.
         23    2    1    2    0    0  0.75257954191E+01  0.20732184774E+02 -0.29467902727E+02  0.96056239347E+02  0.88724194807E+02 0.  0.
          5    1    1    2  502    0 -0.30713899858E+01 -0.73598371349E+02 -0.88733010179E+02  0.11540005718E+03  0.41800000000E+01 0. -1.
         -5    1    1    2    0  502 -0.44544054333E+01  0.52866186575E+02 -0.66974423955E+02  0.85543680508E+02  0.41800000000E+01 0. -1.
        -11    1    3    3    0    0 -0.27228455789E+01 -0.14511992899E+02  0.25790851557E+02  0.29718341979E+02  0.00000000000E+00 0. -1.
         11    1    3    3    0    0  0.10248640998E+02  0.35244177673E+02 -0.55258754284E+02  0.66337897368E+02  0.00000000000E+00 0.  1.
</event>
<event>
 7    1  0.4274778E-006  0.1017726E+03  0.7561462E-02  0.1276612E+00
          2   -1    0    0  501    0  0.00000000000E+00  0.00000000000E+00  0.11664140842E+03  0.11664140842E+03  0.00000000000E+00 0. -1.
         -2   -1    0    0    0  501 -0.00000000000E+00 -0.00000000000E+00 -0.20882694135E+03  0.20882694135E+03  0.00000000000E+00 0.  1.
         23    2    1    2    0    0 -0.46059181188E+02  0.70805435342E+01  0.63505724668E+02  0.12038508975E+03  0.91038511081E+02 0.  0.
          5    1    1    2  502    0  0.23972096793E+02  0.57784903004E+02 -0.92698645413E+02  0.11191187471E+03  0.41800000000E+01 0. -1.
         -5    1    1    2    0  502  0.22087084395E+02 -0.64865446538E+02 -0.62992612183E+02  0.93171385314E+02  0.41800000000E+01 0. -1.
        -11    1    3    3    0    0 -0.58298817417E+02  0.50405672857E+00  0.79890896342E+02  0.98901777050E+02  0.00000000000E+00 0. -1.
         11    1    3    3    0    0  0.12239636229E+02  0.65764868056E+01 -0.16385171674E+02  0.21483312699E+02  0.00000000000E+00 0.  1.
</event>
<event>
 7    1  0.4274778E-006  0.2031793E+03  0.7561462E-02  0.1147084E+00
          1   -1    0    0  501    0  0.00000000000E+00  0.00000000000E+00  0.48295558324E+02  0.48295558324E+02  0.00000000000E+00 0. -1.
         -1   -1    0    0    0  501 -0.00000000000E+00 -0.00000000000E+00 -0.15355825255E+04  0.15355825255E+04  0.00000000000E+00 0.  1.
         23    2    1    2    0    0 -0.38263361481E+02 -0.19084696837E+03 -0.27303966697E+03  0.34778351035E+03  0.92282501915E+02 0.  0.
          5    1    1    2  502    0 -0.62476470381E+01  0.21428453759E+01 -0.36108183713E+03  0.36116643031E+03  0.41800000000E+01 0.  1.
         -5    1    1    2    0  502  0.44511008519E+02  0.18870412300E+03 -0.85316546303E+03  0.87492814312E+03  0.41800000000E+01 0.  1.
        -11    1    3    3    0    0 -0.47844227337E+02 -0.79003009523E+02 -0.17867808577E+03  0.20113777352E+03  0.00000000000E+00 0. -1.
         11    1    3    3    0    0  0.95808658556E+01 -0.11184395885E+03 -0.94361581204E+02  0.14664573683E+03  0.00000000000E+00 0.  1.
</event>
<event>
 7    1  0.4274778E-006  0.8733864E+02  0.7561462E-02  0.1309428E+00
          1   -1    0    0  501    0  0.00000000000E+00  0.00000000000E+00  0.17793876286E+03  0.17793876286E+03  0.00000000000E+00 0. -1.
         -1   -1    0    0    0  501 -0.00000000000E+00 -0.00000000000E+00 -0.94383273114E+02  0.94383273114E+02  0.00000000000E+00 0.  1.
         23    2    1    2    0    0 -0.58222411040E+02 -0.15732115670E+01  0.79148227261E+02  0.13426931124E+03  0.91495802750E+02 0.  0.
          5    1    1    2  502    0  0.26252315636E+01  0.13824067997E+02  0.57954489572E+02  0.59784546149E+02  0.41800000000E+01 0. -1.
         -5    1    1    2    0  502  0.55597179477E+02 -0.12250856430E+02 -0.53547227091E+02  0.78268178579E+02  0.41800000000E+01 0. -1.
        -11    1    3    3    0    0 -0.68861463730E+02 -0.28068864406E+02  0.74645339026E+02  0.10536455274E+03  0.00000000000E+00 0. -1.
         11    1    3    3    0    0  0.10639052690E+02  0.26495652839E+02  0.45028882348E+01  0.28904758500E+02  0.00000000000E+00 0.  1.
</event>
<event>
 7    1  0.4274778E-006  0.1168944E+03  0.7561462E-02  0.1248310E+00
          4   -1    0    0  501    0  0.00000000000E+00  0.00000000000E+00  0.59695591465E+03  0.59695591465E+03  0.00000000000E+00 0. -1.
         -4   -1    0    0    0  501 -0.00000000000E+00 -0.00000000000E+00 -0.38868678123E+02  0.38868678123E+02  0.00000000000E+00 0.  1.
         23    2    1    2    0    0 -0.46333483173E+02 -0.80452920052E+01  0.46626199351E+03  0.47831356640E+03  0.95771095953E+02 0.  0.
          5    1    1    2  502    0 -0.21831449239E+02 -0.38525617762E+02  0.23720080734E+02  0.50407836989E+02  0.41800000000E+01 0. -1.
         -5    1    1    2    0  502  0.68164932412E+02  0.46570909767E+02  0.68105162278E+02  0.10710318938E+03  0.41800000000E+01 0.  1.
        -11    1    3    3    0    0 -0.76176936553E+02 -0.20156133246E+01  0.33927267895E+03  0.34772537877E+03  0.00000000000E+00 0.  1.
         11    1    3    3    0    0  0.29843453380E+02 -0.60296786806E+01  0.12698931457E+03  0.13058818763E+03  0.00000000000E+00 0. -1.
</event>
<event>
 7    1  0.4274778E-006  0.9638347E+02  0.7561462E-02  0.1288090E+00
          1   -1    0    0  501    0  0.00000000000E+00  0.00000000000E+00  0.37706486056E+03  0.37706486056E+03  0.00000000000E+00 0. -1.
         -1   -1    0    0    0  501 -0.00000000000E+00 -0.00000000000E+00 -0.39782027933E+02  0.39782027933E+02  0.00000000000E+00 0.  1.
         23    2    1    2    0    0 -0.15924967988E+02  0.36049047871E+02  0.21378435235E+03  0.23670233822E+03  0.93654199854E+02 0.  0.
          5    1    1    2  502    0 -0.28279118530E+02  0.70179860813E+01 -0.11537199285E+02  0.31615503172E+02  0.41800000000E+01 0.  1.
         -5    1    1    2    0  502  0.44204086518E+02 -0.43067033952E+02  0.13503567956E+03  0.14852904710E+03  0.41800000000E+01 0.  1.
        -11    1    3    3    0    0  0.39133653931E+02  0.20926160230E+02  0.99538737190E+02  0.10898305948E+03  0.00000000000E+00 0.  1.
         11    1    3    3    0    0 -0.55058621920E+02  0.15122887641E+02  0.11424561516E+03  0.12771927874E+03  0.00000000000E+00 0. -1.
</event>
<event>
 7    1  0.4274778E-006  0.1410479E+03  0.7561462E-02  0.1211926E+00
         -2   -1    0    0    0  501 -0.00000000000E+00  0.00000000000E+00  0.26010996955E+02  0.26010996955E+02  0.00000000000E+00 0. -1.
          2   -1    0    0  501    0  0.00000000000E+00 -0.00000000000E+00 -0.96134495297E+03  0.96134495297E+03  0.00000000000E+00 0.  1.
         23    2    1    2    0    0 -0.31929928132E+02  0.10383765564E+03 -0.48385421270E+03  0.50642081934E+03  0.10269064255E+03 0.  0.
          5    1    1    2  502    0  0.32235622541E+02 -0.12660367781E+03 -0.29378623399E+03  0.32155162925E+03  0.41800000000E+01 0. -1.
         -5    1    1    2    0  502 -0.30569440879E+00  0.22766022166E+02 -0.15769350932E+03  0.15938350133E+03  0.41800000000E+01 0. -1.
        -11    1    3    3    0    0 -0.53554023735E+02  0.76461823227E+02 -0.44285956766E+03  0.45259147202E+03  0.00000000000E+00 0.  1.
         11    1    3    3    0    0  0.21624095603E+02  0.27375832418E+02 -0.40994645040E+02  0.53829347323E+02  0.00000000000E+00 0. -1.
</event>
<event>
 7    1  0.4274778E-006  0.1076587E+03  0.7561462E-02  0.1264968E+00
          2   -1    0    0  501    0  0.00000000000E+00  0.00000000000E+00  0.13796815610E+02  0.13796815610E+02  0.00000000000E+00 0. -1.
         -2   -1    0    0    0  501 -0.00000000000E+00 -0.00000000000E+00 -0.10135868011E+04  0.10135868011E+04  0.00000000000E+00 0.  1.
         23    2    1    2    0    0 -0.73068377319E+01 -0.47685011768E+02 -0.41661814188E+03  0.42899879297E+03  0.90233242211E+02 0.  0.
          5    1    1    2  502    0 -0.88548998697E+01 -0.33561751677E+02 -0.66818651188E+02  0.75412233583E+02  0.41800000000E+01 0.  1.
         -5    1    1    2    0  502  0.16161737602E+02  0.81246763445E+02 -0.51635319242E+03  0.52297259016E+03  0.41800000000E+01 0.  1.
        -11    1    3    3    0    0  0.34057862021E+02 -0.44343074894E+02 -0.30122197701E+03  0.30636730519E+03  0.00000000000E+00 0.  1.
         11    1    3    3    0    0 -0.41364699752E+02 -0.33419368738E+01 -0.11539616487E+03  0.12263148777E+03  0.00000000000E+00 0. -1.
</event>
<event>
 7    1  0.4274778E-006  0.1137436E+03  0.7561462E-02  0.1253790E+00
         -1   -1    0    0    0  501 -0.00000000000E+00  0.00000000000E+00  0.51921585875E+02  0.51921585875E+02  0.00000000000E+00 0.  1.
          1   -1    0    0  501    0  0.00000000000E+00 -0.00000000000E+00 -0.26352378999E+03  0.26352378999E+03  0.00000000000E+00 0. -1.
         23    2    1    2    0    0  0.46155964502E+02 -0.98941732065E+01 -0.11073511872E+03  0.14796501027E+03  0.86041327409E+02 0.  0.
          5    1    1    2  502    0 -0.69137317668E+02  0.50892947726E+02 -0.72339086973E+02  0.11234089517E+03  0.41800000000E+01 0. -1.
         -5    1    1    2    0  502  0.22981353166E+02 -0.40998774520E+02 -0.28527998417E+02  0.55139470428E+02  0.41800000000E+01 0. -1.
        -11    1    3    3    0    0  0.69319589495E+02 -0.14280108343E+02 -0.98818292948E+02  0.12154909298E+03  0.00000000000E+00 0.  1.
         11    1    3    3    0    0 -0.23163624993E+02  0.43859351362E+01 -0.11916825775E+02  0.26415917292E+02  0.00000000000E+00 0. -1.
</event>
<event>
 7    1  0.4274778E-006  0.3456210E+03  0.7561462E-02  0.1064427E+00
         -1   -1    0    0    0  501 -0.00000000000E+00  0.00000000000E+00  0.21190872906E+04  0.21190872906E+04  0.00000000000E+00 0.  1.
          1   -1    0    0  501    0  0.00000000000E+00 -0.00000000000E+00 -0.66622977984E+02  0.66622977984E+02  0.00000000000E+00 0. -1.
         23    2    1    2    0    0  0.26230663086E+03  0.20172992588E+03  0.60896951375E+03  0.69949815502E+03  0.94625940431E+02 0.  0.
          5    1    1    2  502    0 -0.24403360840E+03 -0.12983197871E+03  0.10512828399E+04  0.10870242990E+04  0.41800000000E+01 0. -1.
         -5    1    1    2    0  502 -0.18273022462E+02 -0.71897947167E+02  0.39221195893E+03  0.39918781455E+03  0.41800000000E+01 0. -1.
        -11    1    3    3    0    0  0.11311748814E+03  0.13752549794E+03  0.26720386436E+03  0.32110237283E+03  0.00000000000E+00 0. -1.
         11    1    3    3    0    0  0.14918914272E+03  0.64204427935E+02  0.34176564939E+03  0.37839578219E+03  0.00000000000E+00 0.  1.
</event>
<event>
 7    1  0.4274778E-006  0.1342830E+03  0.7561462E-02  0.1221235E+00
         -2   -1    0    0    0  501 -0.00000000000E+00  0.00000000000E+00  0.83598303539E+02  0.83598303539E+02  0.00000000000E+00 0.  1.
          2   -1    0    0  501    0  0.00000000000E+00 -0.00000000000E+00 -0.51327991433E+03  0.51327991433E+03  0.00000000000E+00 0. -1.
         23    2    1    2    0    0 -0.71141760080E+01  0.87646884116E+02 -0.43388397767E+03  0.45201476227E+03  0.91265828456E+02 0.  0.
          5    1    1    2  502    0  0.16959447422E+01  0.27104240879E+02  0.11253870716E+02  0.29692391420E+02  0.41800000000E+01 0. -1.
         -5    1    1    2    0  502  0.54182312658E+01 -0.11475112499E+03 -0.70515038453E+01  0.11517106418E+03  0.41800000000E+01 0.  1.
        -11    1    3    3    0    0  0.17261011590E+02  0.98103644545E+02 -0.35943154886E+03  0.37297896175E+03  0.00000000000E+00 0. -1.
         11    1    3    3    0    0 -0.24375187598E+02 -0.10456760429E+02 -0.74452428804E+02  0.79035800520E+02  0.00000000000E+00 0.  1.
</event>
<event>
 7    1  0.4274778E-006  0.1485017E+03  0.7561462E-02  0.1202326E+00
         -1   -1    0    0    0  501 -0.00000000000E+00  0.00000000000E+00  0.51005633606E+02  0.51005633606E+02  0.00000000000E+00 0.  1.
          1   -1    0    0  501    0  0.00000000000E+00 -0.00000000000E+00 -0.50508253568E+03  0.50508253568E+03  0.00000000000E+00 0. -1.
         23    2    1    2    0    0  0.11549090223E+03 -0.23687905819E+02 -0.19366901066E+03  0.24406460582E+03  0.90335932743E+02 0.  0.
          5    1    1    2  502    0 -0.74414760842E+02 -0.32252959136E+02 -0.21276894688E+03  0.22774087723E+03  0.41800000000E+01 0.  1.
         -5    1    1    2    0  502 -0.41076141386E+02  0.55940864955E+02 -0.47638944533E+02  0.84282686237E+02  0.41800000000E+01 0.  1.
        -11    1    3    3    0    0  0.95024915118E+02  0.20817736641E+02 -0.14790106313E+03  0.17702496188E+03  0.00000000000E+00 0. -1.
         11    1    3    3    0    0  0.20465987110E+02 -0.44505642460E+02 -0.45767947532E+02  0.67039643946E+02  0.00000000000E+00 0.  1.
</event>
<event>
 7    1  0.4274778E-006  0.1843378E+03  0.7561462E-02  0.1163670E+00
          1   -1    0    0  501    0  0.00000000000E+00  0.00000000000E+00  0.26377536328E+03  0.26377536328E+03  0.00000000000E+00 0. -1.
         -1   -1    0    0    0  501 -0.00000000000E+00 -0.00000000000E+00 -0.27925965727E+03  0.27925965727E+03  0.00000000000E+00 0.  1.
         23    2    1    2    0    0  0.81276447816E+02  0.16177571469E+03  0.15455584029E+03  0.26488052274E+03  0.11617633462E+03 0.  0.
          5    1    1    2  502    0 -0.40461966673E+02 -0.68036684703E+02 -0.15584975761E+03  0.17485073794E+03  0.41800000000E+01 0.  1.
         -5    1    1    2    0  502 -0.40814481143E+02 -0.93739029982E+02 -0.14190376687E+02  0.10330375987E+03  0.41800000000E+01 0.  1.
        -11    1    3    3    0    0  0.87569618935E+02  0.14866824762E+03  0.82279109429E+02  0.19115579473E+03  0.00000000000E+00 0.  1.
         11    1    3    3    0    0 -0.62931711185E+01  0.13107467068E+02  0.72276730865E+02  0.73724728010E+02  0.00000000000E+00 0. -1.
</event>
<event>
 7    1  0.4274778E-006  0.1334667E+03  0.7561462E-02  0.1222401E+00
          1   -1    0    0  501    0  0.00000000000E+00  0.00000000000E+00  0.92355330786E+03  0.92355330786E+03  0.00000000000E+00 0. -1.
         -1   -1    0    0    0  501 -0.00000000000E+00 -0.00000000000E+00 -0.31413315331E+02  0.31413315331E+02  0.00000000000E+00 0.  1.
         23    2    1    2    0    0 -0.10913715287E+03  0.34687752676E+02  0.58095728261E+03  0.60057116029E+03  0.10030052858E+03 0.  0.
          5    1    1    2  502    0  0.16121720255E+02  0.96635559758E+01 -0.65539494308E+01  0.20340128594E+02  0.41800000000E+01 0.  1.
         -5    1    1    2    0  502  0.93015432616E+02 -0.44351308652E+02  0.31773665935E+03  0.33405533431E+03  0.41800000000E+01 0.  1.
        -11    1    3    3    0    0 -0.40175959939E+02  0.59037901523E+02  0.38156093067E+03  0.38818594177E+03  0.00000000000E+00 0.  1.
         11    1    3    3    0    0 -0.68961192932E+02 -0.24350148847E+02  0.19939635194E+03  0.21238521852E+03  0.00000000000E+00 0. -1.
</event>
<event>
 7    1  0.4274778E-006  0.1693628E+03  0.7561462E-02  0.1178514E+00
         -3   -1    0    0    0  501 -0.00000000000E+00  0.00000000000E+00  0.10069569182E+03  0.10069569182E+03  0.00000000000E+00 0.  1.
          3   -1    0    0  501    0  0.00000000000E+00 -0.00000000000E+00 -0.29687228428E+03  0.29687228428E+03  0.00000000000E+00 0. -1.
         23    2    1    2    0    0  0.85582465257E+02 -0.10215445184E+03 -0.11707247589E+03  0.19840902680E+03  0.88883558171E+02 0.  0.
          5    1    1    2  502    0 -0.11372817888E+03  0.97330920399E+02 -0.80970395779E+02  0.17023831569E+03  0.41800000000E+01 0. -1.
         -5    1    1    2    0  502  0.28145713621E+02  0.48235314395E+01  0.18662792086E+01  0.28920633618E+02  0.41800000000E+01 0. -1.
        -11    1    3    3    0    0 -0.18261636011E+02 -0.79811484280E+01 -0.12645682700E+02  0.23602952590E+02  0.00000000000E+00 0.  1.
         11    1    3    3    0    0  0.10384410127E+03 -0.94173303410E+02 -0.10442679319E+03  0.17480607421E+03  0.00000000000E+00 0. -1.
</event>
<event>
 7    1  0.4274778E-006  0.2472926E+03  0.7561462E-02  0.1115028E+00
          3   -1    0    0  501    0  0.00000000000E+00  0.00000000000E+00  0.58969301076E+02  0.58969301076E+02  0.00000000000E+00 0. -1.
         -3   -1    0    0    0  501 -0.00000000000E+00 -0.00000000000E+00 -0.11928892299E+04  0.11928892299E+04  0.00000000000E+00 0.  1.
         23    2    1    2    0    0 -0.14701615353E+03  0.17482766711E+03 -0.34907489759E+03  0.42495277351E+03  0.80951300163E+02 0.  0.
          5    1    1    2  502    0  0.42283679129E+02  0.67299077100E+01 -0.71998789426E+02  0.83871921745E+02  0.41800000000E+01 0.  1.
         -5    1    1    2    0  502  0.10473247440E+03 -0.18155757482E+03 -0.71284624182E+03  0.74303383574E+03  0.41800000000E+01 0.  1.
        -11    1    3    3    0    0 -0.31420090389E+02  0.98530979738E+02 -0.16170796519E+03  0.19195062400E+03  0.00000000000E+00 0. -1.
         11    1    3    3    0    0 -0.11559606314E+03  0.76296687372E+02 -0.18736693240E+03  0.23300214951E+03  0.00000000000E+00 0.  1.
</event>
<event>
 7    1  0.4274778E-006  0.8698850E+02  0.7561462E-02  0.1310313E+00
         -1   -1    0    0    0  501 -0.00000000000E+00  0.00000000000E+00  0.12177468691E+03  0.12177468691E+03  0.00000000000E+00 0.  1.
          1   -1    0    0  501    0  0.00000000000E+00 -0.00000000000E+00 -0.14154178187E+03  0.14154178187E+03  0.00000000000E+00 0. -1.
         23    2    1    2    0    0 -0.60271775559E+02  0.39322722740E+02  0.85111013855E+01  0.11625799966E+03  0.90909406469E+02 0.  0.
          5    1    1    2  502    0  0.58190156815E+02 -0.42107039663E+02 -0.72712899883E+02  0.10229240123E+03  0.41800000000E+01 0.  1.
         -5    1    1    2    0  502  0.20816187435E+01  0.27843169238E+01  0.44434703533E+02  0.44766067902E+02  0.41800000000E+01 0.  1.
        -11    1    3    3    0    0  0.10984056408E+02 -0.56285517151E+01  0.27280794578E+02  0.29942809527E+02  0.00000000000E+00 0.  1.
         11    1    3    3    0    0 -0.71255831967E+02  0.44951274455E+02 -0.18769693192E+02  0.86315190129E+02  0.00000000000E+00 0. -1.
</event>
<event>
 7    1  0.4274778E-006  0.8819417E+02  0.7561462E-02  0.1307285E+00
          1   -1    0    0  501    0  0.00000000000E+00  0.00000000000E+00  0.11685346900E+03  0.11685346900E+03  0.00000000000E+00 0. -1.
         -1   -1    0    0    0  501 -0.00000000000E+00 -0.00000000000E+00 -0.12244298705E+03  0.12244298705E+03  0.00000000000E+00 0.  1.
         23    2    1    2    0    0 -0.49309140690E+02  0.15564240205E+02 -0.14219345602E+01  0.10387779299E+03  0.90082945388E+02 0.  0.
          5    1    1    2  502    0  0.32672018804E+02 -0.40560315870E+02 -0.55233602674E+02  0.76031725619E+02  0.41800000000E+01 0. -1.
         -5    1    1    2    0  502  0.16637121886E+02  0.24996075665E+02  0.51066019189E+02  0.59386937445E+02  0.41800000000E+01 0. -1.
        -11    1    3    3    0    0 -0.46810910696E+02  0.44613561465E+02  0.20011142473E+02  0.67691041134E+02  0.00000000000E+00 0.  1.
         11    1    3    3    0    0 -0.24982299943E+01 -0.29049321260E+02 -0.21433077033E+02  0.36186751856E+02  0.00000000000E+00 0. -1.
</event>
<event>
 7    1  0.4274778E-006  0.1112001E+03  0.7561462E-02  0.1258363E+00
         -1   -1    0    0    0  501 -0.00000000000E+00  0.00000000000E+00  0.13017530932E+03  0.13017530932E+03  0.00000000000E+00 0.  1.
          1   -1    0    0  501    0  0.00000000000E+00 -0.00000000000E+00 -0.12093758048E+03  0.12093758048E+03  0.00000000000E+00 0. -1.
         23    2    1    2    0    0 -0.55183234001E+02 -0.26939567295E+02  0.12712628968E+02  0.11171936295E+03  0.92459047814E+02 0.  0.
          5    1    1    2  502    0  0.76254028016E+02  0.46624951517E+02  0.30595894478E+02  0.94562910549E+02  0.41800000000E+01 0.  1.
         -5    1    1    2    0  502 -0.21070794015E+02 -0.19685384222E+02 -0.34070794606E+02  0.44830616296E+02  0.41800000000E+01 0.  1.
        -11    1    3    3    0    0  0.99804584374E+01  0.20757411324E+02 -0.13646844670E+02  0.26771552905E+02  0.00000000000E+00 0.  1.
         11    1    3    3    0    0 -0.65163692439E+02 -0.47696978619E+02  0.26359473638E+02  0.84947810049E+02  0.00000000000E+00 0. -1.
</event>
<event>
 7    1  0.4274778E-006  0.3512309E+03  0.7561462E-02  0.1062111E+00
         -2   -1    0    0    0  501 -0.00000000000E+00  0.00000000000E+00  0.46155604412E+03  0.46155604412E+03  0.00000000000E+00 0. -1.
          2   -1    0    0  501    0  0.00000000000E+00 -0.00000000000E+00 -0.28068217691E+03  0.28068217691E+03  0.00000000000E+00 0.  1.
         23    2    1    2    0    0 -0.27213474611E+03  0.20330408180E+03  0.40119667534E+02  0.35384381040E+03  0.90586890442E+02 0.  0.
          5    1    1    2  502    0  0.44039094657E+02 -0.10277903333E+03  0.31800787937E+02  0.11632598189E+03  0.41800000000E+01 0.  1.
         -5    1    1    2    0  502  0.22809565145E+03 -0.10052504848E+03  0.10895341174E+03  0.27206842873E+03  0.41800000000E+01 0.  1.
        -11    1    3    3    0    0 -0.64069145256E+02  0.65987263797E+02 -0.26662361707E+02  0.95760408777E+02  0.00000000000E+00 0.  1.
         11    1    3    3    0    0 -0.20806560085E+03  0.13731681801E+03  0.66782029241E+02  0.25808340163E+03  0.00000000000E+00 0. -1.
</event>
<event>
 7    1  0.4274778E-006  0.1198079E+03  0.7561462E-02  0.1243414E+00
          2   -1    0    0  501    0  0.00000000000E+00  0.00000000000E+00  0.55198298876E+03  0.55198298876E+03  0.00000000000E+00 0.  1.
         -2   -1    0    0    0  501 -0.00000000000E+00 -0.00000000000E+00 -0.35489160556E+02  0.35489160556E+02  0.00000000000E+00 0. -1.
         23    2    1    2    0    0 -0.56795004969E+02 -0.29800591404E+02  0.23894196148E+03  0.26356296057E+03  0.90875879036E+02 0.  0.
          5    1    1    2  502    0 -0.38988067016E+02 -0.33896300379E+02  0.89601618664E+02  0.10351304757E+03  0.41800000000E+01 0. -1.
         -5    1    1    2    0  502  0.95783071984E+02  0.63696891783E+02  0.18795024805E+03  0.22039614117E+03  0.41800000000E+01 0.  1.
        -11    1    3    3    0    0 -0.15976248486E+02  0.72578686202E+01 -0.79780171394E+00  0.17565695550E+02  0.00000000000E+00 0.  1.
         11    1    3    3    0    0 -0.40818756483E+02 -0.37058460024E+02  0.23973976320E+03  0.24599726502E+03  0.00000000000E+00 0. -1.
</event>
<event>
 7    1  0.1104397E-005  0.3652188E+03  0.7561462E-02  0.1056536E+00
         -2   -1    0    0    0  501 -0.00000000000E+00  0.00000000000E+00  0.83360012714E+02  0.83360012714E+02  0.00000000000E+00 0.  1.
          2   -1    0    0  501    0  0.00000000000E+00 -0.00000000000E+00 -0.18009596084E+04  0.18009596084E+04  0.00000000000E+00 0. -1.
         23    2    1    2    0    0  0.22915976085E+03  0.26782321509E+03 -0.11380198221E+04  0.11945343497E+04  0.87061625104E+02 0.  0.
          5    1    1    2  502    0 -0.15754780332E+03 -0.90193939928E+02 -0.30552831520E+03  0.35541705210E+03  0.41800000000E+01 0. -1.
         -5    1    1    2    0  502 -0.71611957529E+02 -0.17762927516E+03 -0.27405145843E+03  0.33436821937E+03  0.41800000000E+01 0. -1.
        -11    1    3    3    0    0  0.10329160582E+03  0.77622095464E+02 -0.31430015401E+03  0.33982191270E+03  0.00000000000E+00 0. -1.
         11    1    3    3    0    0  0.12586815503E+03  0.19020111963E+03 -0.82371966807E+03  0.85471243698E+03  0.00000000000E+00 0.  1.
</event>
<event>
 7    1  0.4274778E-006  0.1250860E+03  0.7561462E-02  0.1234935E+00
          3   -1    0    0  501    0  0.00000000000E+00  0.00000000000E+00  0.92828035066E+02  0.92828035066E+02  0.00000000000E+00 0. -1.
         -3   -1    0    0    0  501 -0.00000000000E+00 -0.00000000000E+00 -0.21678381158E+03  0.21678381158E+03  0.00000000000E+00 0.  1.
         23    2    1    2    0    0  0.83333291069E+02  0.86675396587E+01 -0.17559684054E+02  0.12525571478E+03  0.91438984775E+02 0.  0.
          5    1    1    2  502    0  0.14459697263E+02 -0.42760778198E+02 -0.20553237726E+02  0.49774240105E+02  0.41800000000E+01 0. -1.
         -5    1    1    2    0  502 -0.97792988332E+02  0.34093238539E+02 -0.85842854734E+02  0.13458189176E+03  0.41800000000E+01 0. -1.
        -11    1    3    3    0    0  0.82608871743E+02  0.23855476758E+02  0.16864839876E+02  0.87622669932E+02  0.00000000000E+00 0. -1.
         11    1    3    3    0    0  0.72441932564E+00 -0.15187937099E+02 -0.34424523930E+02  0.37633044847E+02  0.00000000000E+00 0.  1.
</event>
<event>
 7    1  0.4274778E-006  0.1634820E+03  0.7561462E-02  0.1184821E+00
         -1   -1    0    0    0  501 -0.00000000000E+00  0.00000000000E+00  0.24499497654E+03  0.24499497654E+03  0.00000000000E+00 0.  1.
          1   -1    0    0  501    0  0.00000000000E+00 -0.00000000000E+00 -0.11408942651E+03  0.11408942651E+03  0.00000000000E+00 0. -1.
         23    2    1    2    0    0 -0.12346353817E+03  0.20314893508E+02  0.38601700034E+02  0.15952795858E+03  0.91121557093E+02 0.  0.
          5    1    1    2  502    0 -0.24338591686E+02  0.42218394925E-01  0.12662864201E+01  0.24727408052E+02  0.41800000000E+01 0. -1.
         -5    1    1    2    0  502  0.14780212986E+03 -0.20357111903E+02  0.91037563569E+02  0.17482903642E+03  0.41800000000E+01 0. -1.
        -11    1    3    3    0    0 -0.13427901202E+03  0.30998472447E+02  0.41764332320E+02  0.14400006186E+03  0.00000000000E+00 0.  1.
         11    1    3    3    0    0  0.10815473846E+02 -0.10683578939E+02 -0.31626322856E+01  0.15527896717E+02  0.00000000000E+00 0. -1.
</event>
<event>
 7    1  0.4274778E-006  0.1095160E+03  0.7561462E-02  0.1261469E+00
          3   -1    0    0  501    0  0.00000000000E+00  0.00000000000E+00  0.97057050939E+02  0.97057050939E+02  0.00000000000E+00 0. -1.
         -3   -1    0    0    0  501 -0.00000000000E+00 -0.00000000000E+00 -0.18187201552E+03  0.18187201552E+03  0.00000000000E+00 0.  1.
         23    2    1    2    0    0 -0.10866757265E+02  0.20320845556E+02  0.38746092143E+02  0.10160086697E+03  0.91051926592E+02 0.  0.
          5    1    1    2  502    0 -0.56582581630E+02 -0.60408436343E+01 -0.44600137242E+02  0.72420473471E+02  0.41800000000E+01 0.  1.
         -5    1    1    2    0  502  0.67449338895E+02 -0.14280001922E+02 -0.78960919486E+02  0.10490772602E+03  0.41800000000E+01 0.  1.
        -11    1    3    3    0    0 -0.65864944687E+01  0.56293307917E+02  0.16261231940E+02  0.58963938893E+02  0.00000000000E+00 0. -1.
         11    1    3    3    0    0 -0.42802627966E+01 -0.35972462360E+02  0.22484860203E+02  0.42636928081E+02  0.00000000000E+00 0.  1.
</event>
<event>
 7    1  0.4274778E-006  0.1041937E+03  0.7561462E-02  0.1271716E+00
          3   -1    0    0  501    0  0.00000000000E+00  0.00000000000E+00  0.70363409674E+03  0.70363409674E+03  0.00000000000E+00 0. -1.
         -3   -1    0    0    0  501 -0.00000000000E+00 -0.00000000000E+00 -0.28012465670E+02  0.28012465670E+02  0.00000000000E+00 0.  1.
         23    2    1    2    0    0  0.69685196366E+02 -0.55463329134E+02  0.31753721285E+03  0.34202667806E+03  0.90665095191E+02 0.  0.
          5    1    1    2  502    0 -0.61451288340E+02  0.35198276828E+02  0.66660007672E+02  0.97345819392E+02  0.41800000000E+01 0. -1.
         -5    1    1    2    0  502 -0.82339080256E+01  0.20265052306E+02  0.29142441055E+03  0.29227406496E+03  0.41800000000E+01 0. -1.
        -11    1    3    3    0    0 -0.13133727202E+01 -0.43087199348E+02  0.55585854906E+02  0.70342156359E+02  0.00000000000E+00 0.  1.
         11    1    3    3    0    0  0.70998569086E+02 -0.12376129785E+02  0.26195135795E+03  0.27168452170E+03  0.00000000000E+00 0. -1.
</event>
<event>
 7    1  0.4274778E-006  0.1981821E+03  0.7561462E-02  0.1151282E+00
          2   -1    0    0  501    0  0.00000000000E+00  0.00000000000E+00  0.79758079118E+02  0.79758079118E+02  0.00000000000E+00 0. -1.
         -2   -1    0    0    0  501 -0.00000000000E+00 -0.00000000000E+00 -0.60888564733E+03  0.60888564733E+03  0.00000000000E+00 0.  1.
         23    2    1    2    0    0 -0.13416824727E+03  0.13568961537E+03 -0.23250234463E+03  0.31441979101E+03  0.91595165940E+02 0.  0.
          5    1    1    2  502    0  0.18365680405E+02 -0.16172851771E+02 -0.15106411512E+03  0.15309049163E+03  0.41800000000E+01 0. -1.
         -5    1    1    2    0  502  0.11580256686E+03 -0.11951676360E+03 -0.14556110846E+03  0.22113344380E+03  0.41800000000E+01 0. -1.
        -11    1    3    3    0    0 -0.55220098566E+02  0.10819208561E+03 -0.98087149949E+02  0.15612775429E+03  0.00000000000E+00 0. -1.
         11    1    3    3    0    0 -0.78948148701E+02  0.27497529759E+02 -0.13441519468E+03  0.15829203672E+03  0.00000000000E+00 0.  1.
</event>
<event>
 7    1  0.4274778E-006  0.1107297E+03  0.7561462E-02  0.1259225E+00
         -2   -1    0    0    0  501 -0.00000000000E+00  0.00000000000E+00  0.55563355793E+02  0.55563355793E+02  0.00000000000E+00 0. -1.
          2   -1    0    0  501    0  0.00000000000E+00 -0.00000000000E+00 -0.40896152694E+03  0.40896152694E+03  0.00000000000E+00 0.  1.
         23    2    1    2    0    0  0.54728208124E+02 -0.32618091162E+02 -0.29211857556E+03  0.31135367885E+03  0.86883453600E+02 0.  0.
          5    1    1    2  502    0 -0.18155546403E+02  0.75445702129E+02 -0.12832195070E+02  0.78764303242E+02  0.41800000000E+01 0. -1.
         -5    1    1    2    0  502 -0.36572661721E+02 -0.42827610967E+02 -0.48447400520E+02  0.74406900645E+02  0.41800000000E+01 0. -1.
        -11    1    3    3    0    0 -0.12976780040E+02 -0.27060829960E+01 -0.39515473063E+01  0.13832368977E+02  0.00000000000E+00 0. -1.
         11    1    3    3    0    0  0.67704988164E+02 -0.29912008166E+02 -0.28816702825E+03  0.29752130987E+03  0.00000000000E+00 0.  1.
</event>
<event>
 7    1  0.4274778E-006  0.1086563E+03  0.7561462E-02  0.1263079E+00
         -2   -1    0    0    0  501 -0.00000000000E+00  0.00000000000E+00  0.29980475950E+03  0.29980475950E+03  0.00000000000E+00 0.  1.
          2   -1    0    0  501    0  0.00000000000E+00 -0.00000000000E+00 -0.11309534384E+03  0.11309534384E+03  0.00000000000E+00 0. -1.
         23    2    1    2    0    0  0.52781684951E+02  0.65130252252E+02  0.20254127653E+02  0.12543356383E+03  0.91079598279E+02 0.  0.
          5    1    1    2  502    0  0.21860867366E+02 -0.31719334695E+02 -0.45782845349E+02  0.59979621904E+02  0.41800000000E+01 0. -1.
         -5    1    1    2    0  502 -0.74642552317E+02 -0.33410917557E+02  0.21223813336E+03  0.22748691760E+03  0.41800000000E+01 0.  1.
        -11    1    3    3    0    0  0.16972236187E+02 -0.52041617906E+01  0.40270208011E+02  0.44009428017E+02  0.00000000000E+00 0.  1.
         11    1    3    3    0    0  0.35809448764E+02  0.70334414043E+02 -0.20016080358E+02  0.81424135810E+02  0.00000000000E+00 0. -1.
</event>
<event>
 7    1  0.4274778E-006  0.1266899E+03  0.7561462E-02  0.1232452E+00
          1   -1    0    0  501    0  0.00000000000E+00  0.00000000000E+00  0.86038400731E+02  0.86038400731E+02  0.00000000000E+00 0. -1.
         -1   -1    0    0    0  501 -0.00000000000E+00 -0.00000000000E+00 -0.29402564432E+03  0.29402564432E+03  0.00000000000E+00 0.  1.
         23    2    1    2    0    0  0.10628461958E+02  0.94654550907E+02 -0.15212702273E+02  0.13130317812E+03  0.89087878314E+02 0.  0.
          5    1    1    2  502    0 -0.58066116407E+02 -0.12680240481E+02 -0.52242954835E+02  0.79241788868E+02  0.41800000000E+01 0.  1.
         -5    1    1    2    0  502  0.47437654448E+02 -0.81974310426E+02 -0.14053158648E+03  0.16951907807E+03  0.41800000000E+01 0.  1.
        -11    1    3    3    0    0 -0.90313919210E+01  0.23522516071E+02 -0.45116645841E+02  0.51675782861E+02  0.00000000000E+00 0.  1.
         11    1    3    3    0    0  0.19659853879E+02  0.71132034836E+02  0.29903943568E+02  0.79627395257E+02  0.00000000000E+00 0. -1.
</event>
<event>
 7    1  0.4274778E-006  0.1075386E+03  0.7561462E-02  0.1265197E+00
          1   -1    0    0  501    0  0.00000000000E+00  0.00000000000E+00  0.18199291720E+03  0.18199291720E+03  0.00000000000E+00 0. -1.
         -1   -1    0    0    0  501 -0.00000000000E+00 -0.00000000000E+00 -0.71465410437E+02  0.71465410437E+02  0.00000000000E+00 0.  1.
         23    2    1    2    0    0  0.13584984481E+02 -0.29106763476E+02  0.67411301820E+02  0.11730335004E+03  0.90465666608E+02 0.  0.
          5    1    1    2  502    0  0.51964322024E+02  0.12584017083E+02 -0.37997020246E+01  0.53763913406E+02  0.41800000000E+01 0. -1.
         -5    1    1    2    0  502 -0.65549306504E+02  0.16522746393E+02  0.46915906969E+02  0.82391064189E+02  0.41800000000E+01 0. -1.
        -11    1    3    3    0    0 -0.36542009218E+02 -0.23105334366E+02  0.18549799086E+02  0.47045403176E+02  0.00000000000E+00 0.  1.
         11    1    3    3    0    0  0.50126993698E+02 -0.60014291097E+01  0.48861502733E+02  0.70257946867E+02  0.00000000000E+00 0. -1.
</event>
<event>
 7    1  0.4274778E-006  0.9800140E+02  0.7561462E-02  0.1284556E+00
         -1   -1    0    0    0  501 -0.00000000000E+00  0.00000000000E+00  0.95138385052E+02  0.95138385052E+02  0.00000000000E+00 0.  1.
          1   -1    0    0  501    0  0.00000000000E+00 -0.00000000000E+00 -0.16649172356E+03  0.16649172356E+03  0.00000000000E+00 0. -1.
         23    2    1    2    0    0 -0.64246729104E+02 -0.13373723188E+01 -0.21522162190E+02  0.11232364047E+03  0.89576592799E+02 0.  0.
          5    1    1    2  502    0 -0.41012075466E+01 -0.17322074581E+02  0.34523430131E+02  0.39066786394E+02  0.41800000000E+01 0.  1.
         -5    1    1    2    0  502  0.68347936651E+02  0.18659446900E+02 -0.84354606448E+02  0.11023968175E+03  0.41800000000E+01 0.  1.
        -11    1    3    3    0    0  0.14964690117E+02  0.19746034147E+02  0.66420078959E+01  0.25650810586E+02  0.00000000000E+00 0.  1.
         11    1    3    3    0    0 -0.79211419221E+02 -0.21083406465E+02 -0.28164170086E+02  0.86672829883E+02  0.00000000000E+00 0. -1.
</event>
<event>
 7    1  0.4274778E-006  0.1372007E+03  0.7561462E-02  0.1217146E+00
         -1   -1    0    0    0  501 -0.00000000000E+00  0.00000000000E+00  0.14860065196E+03  0.14860065196E+03  0.00000000000E+00 0.  1.
          1   -1    0    0  501    0  0.00000000000E+00 -0.00000000000E+00 -0.14428842695E+03  0.14428842695E+03  0.00000000000E+00 0. -1.
         23    2    1    2    0    0  0.83503934717E+02  0.64865458737E+01 -0.15499434142E+02  0.14104875606E+03  0.11242569429E+03 0.  0.
          5    1    1    2  502    0  0.38279841562E+01  0.41922102093E+02 -0.16644167040E+02  0.45460057227E+02  0.41800000000E+01 0.  1.
         -5    1    1    2    0  502 -0.87331918873E+02 -0.48408647967E+02  0.36455826186E+02  0.10638026563E+03  0.41800000000E+01 0.  1.
        -11    1    3    3    0    0  0.13758152446E+02  0.48718490059E+02  0.16814909152E+02  0.53343408235E+02  0.00000000000E+00 0.  1.
         11    1    3    3    0    0  0.69745782271E+02 -0.42231944185E+02 -0.32314343294E+02  0.87705347824E+02  0.00000000000E+00 0. -1.
</event>
<event>
 7    1  0.4274778E-006  0.2492660E+03  0.7561462E-02  0.1113770E+00
          1   -1    0    0  501    0  0.00000000000E+00  0.00000000000E+00  0.53805871056E+02  0.53805871056E+02  0.00000000000E+00 0. -1.
         -1   -1    0    0    0  501 -0.00000000000E+00 -0.00000000000E+00 -0.13289021189E+04  0.13289021189E+04  0.00000000000E+00 0.  1.
         23    2    1    2    0    0  0.22056258068E+01 -0.23884509816E+03 -0.49475596974E+03  0.55709822147E+03  0.92320707727E+02 0.  0.
          5    1    1    2  502    0 -0.22830907890E+02  0.79603392221E+02 -0.45822326785E+03  0.46566510069E+03  0.41800000000E+01 0. -1.
         -5    1    1    2    0  502  0.20625282083E+02  0.15924170594E+03 -0.32211701022E+03  0.35994466775E+03  0.41800000000E+01 0. -1.
        -11    1    3    3    0    0 -0.41969118799E+02 -0.15008168539E+03 -0.32693052320E+03  0.36217328204E+03  0.00000000000E+00 0. -1.
         11    1    3    3    0    0  0.44174744606E+02 -0.88763412771E+02 -0.16782544654E+03  0.19492493943E+03  0.00000000000E+00 0.  1.
</event>
<event>
 7    1  0.4274778E-006  0.1257679E+03  0.7561462E-02  0.1233874E+00
          1   -1    0    0  501    0  0.00000000000E+00  0.00000000000E+00  0.62343310624E+03  0.62343310624E+03  0.00000000000E+00 0. -1.
         -1   -1    0    0    0  501 -0.00000000000E+00 -0.00000000000E+00 -0.43894453731E+02  0.43894453731E+02  0.00000000000E+00 0.  1.
         23    2    1    2    0    0  0.20994112779E+02  0.10184511100E+03  0.41676329280E+03  0.43720328706E+03  0.81497807252E+02 0.  0.
          5    1    1    2  502    0  0.14378382141E+02 -0.76141098959E+02  0.19143241869E+02  0.79925846463E+02  0.41800000000E+01 0. -1.
         -5    1    1    2    0  502 -0.35372494919E+02 -0.25704012039E+02  0.14363211784E+03  0.15019842645E+03  0.41800000000E+01 0. -1.
        -11    1    3    3    0    0  0.46784478044E+02  0.35191707497E+02  0.22700768418E+03  0.23443492133E+03  0.00000000000E+00 0.  1.
         11    1    3    3    0    0 -0.25790365265E+02  0.66653403501E+02  0.18975560861E+03  0.20276836572E+03  0.00000000000E+00 0. -1.
</event>
<event>
 7    1  0.4274778E-006  0.1318653E+03  0.7561462E-02  0.1224714E+00
          2   -1    0    0  501    0  0.00000000000E+00  0.00000000000E+00  0.41711456994E+02  0.41711456994E+02  0.00000000000E+00 0. -1.
         -2   -1    0    0    0  501 -0.00000000000E+00 -0.00000000000E+00 -0.71001266172E+03  0.71001266172E+03  0.00000000000E+00 0.  1.
         23    2    1    2    0    0 -0.94629788370E+02  0.33877500955E+02 -0.13336755501E+03  0.19323992307E+03  0.97222843109E+02 0.  0.
          5    1    1    2  502    0  0.67411553315E+02  0.14051985150E+02 -0.46120008291E+03  0.46633117490E+03  0.41800000000E+01 0.  1.
         -5    1    1    2    0  502  0.27218235055E+02 -0.47929486104E+02 -0.73733566805E+02  0.92153020740E+02  0.41800000000E+01 0.  1.
        -11    1    3    3    0    0 -0.67838221577E+02  0.68020429457E+02 -0.85207120794E+02  0.12840972145E+03  0.00000000000E+00 0.  1.
         11    1    3    3    0    0 -0.26791566793E+02 -0.34142928502E+02 -0.48160434217E+02  0.64830201619E+02  0.00000000000E+00 0. -1.
</event>
<event>
 7    1  0.4274778E-006  0.1124621E+03  0.7561462E-02  0.1256077E+00
         -1   -1    0    0    0  501 -0.00000000000E+00  0.00000000000E+00  0.25466882365E+02  0.25466882365E+02  0.00000000000E+00 0.  1.
          1   -1    0    0  501    0  0.00000000000E+00 -0.00000000000E+00 -0.67683073821E+03  0.67683073821E+03  0.00000000000E+00 0. -1.
         23    2    1    2    0    0  0.42695011931E+02  0.45652766207E+02 -0.39299802589E+03  0.40852000851E+03  0.92380246245E+02 0.  0.
          5    1    1    2  502    0 -0.61825669167E+02  0.13519961460E+02 -0.19432140657E+03  0.20441008825E+03  0.41800000000E+01 0. -1.
         -5    1    1    2    0  502  0.19130657236E+02 -0.59172727667E+02 -0.64044423383E+02  0.89367523812E+02  0.41800000000E+01 0. -1.
        -11    1    3    3    0    0 -0.65747716673E+01 -0.17719061411E+02 -0.22304806969E+02  0.29235204355E+02  0.00000000000E+00 0.  1.
         11    1    3    3    0    0  0.49269783598E+02  0.63371827618E+02 -0.37069321892E+03  0.37928480416E+03  0.00000000000E+00 0. -1.
</event>
<event>
 7    1  0.4274778E-006  0.1055590E+03  0.7561462E-02  0.1269022E+00
         -1   -1    0    0    0  501 -0.00000000000E+00  0.00000000000E+00  0.47409073168E+02  0.47409073168E+02  0.00000000000E+00 0.  1.
          1   -1    0    0  501    0  0.00000000000E+00 -0.00000000000E+00 -0.26563875972E+03  0.26563875972E+03  0.00000000000E+00 0. -1.
         23    2    1    2    0    0 -0.24756742031E+02 -0.15914761871E+02 -0.84814900433E+02  0.12781382577E+03  0.90975990244E+02 0.  0.
          5    1    1    2  502    0  0.75499428593E+02  0.54248925274E+01 -0.69479325171E+02  0.10283210687E+03  0.41800000000E+01 0. -1.
         -5    1    1    2    0  502 -0.50742686562E+02  0.10489869343E+02 -0.63935460951E+02  0.82401900253E+02  0.41800000000E+01 0. -1.
        -11    1    3    3    0    0 -0.50154681197E+01  0.31535380367E+02 -0.41947495380E+01  0.32206071772E+02  0.00000000000E+00 0.  1.
         11    1    3    3    0    0 -0.19741273912E+02 -0.47450142237E+02 -0.80620150895E+02  0.95607753997E+02  0.00000000000E+00 0. -1.
</event>
<event>
 7    1  0.6906610E-006  0.1643782E+03  0.7561462E-02  0.1183841E+00
         -1   -1    0    0    0  501 -0.00000000000E+00  0.00000000000E+00  0.17062426158E+03  0.17062426158E+03  0.00000000000E+00 0.  1.
          1   -1    0    0  501    0  0.00000000000E+00 -0.00000000000E+00 -0.22091868569E+03  0.22091868569E+03  0.00000000000E+00 0. -1.
         23    2    1    2    0    0 -0.14388370329E+03  0.69564024727E+02 -0.39423794029E+02  0.18830045436E+03  0.91439334904E+02 0.  0.
          5    1    1    2  502    0  0.12291576990E+03 -0.68135659887E+02  0.41550707227E+02  0.14661066915E+03  0.41800000000E+01 0. -1.
         -5    1    1    2    0  502  0.20967933390E+02 -0.14283648408E+01 -0.52421337307E+02  0.56631823755E+02  0.41800000000E+01 0. -1.
        -11    1    3    3    0    0 -0.10234989528E+03  0.71977367536E+02  0.77956217154E+01  0.12536751660E+03  0.00000000000E+00 0.  1.
         11    1    3    3    0    0 -0.41533808005E+02 -0.24133428087E+01 -0.47219415745E+02  0.62932937753E+02  0.00000000000E+00 0. -1.
</event>
<event>
 7    1  0.4274778E-006  0.2114536E+03  0.7561462E-02  0.1140420E+00
          2   -1    0    0  501    0  0.00000000000E+00  0.00000000000E+00  0.12179153555E+03  0.12179153555E+03  0.00000000000E+00 0.  1.
         -2   -1    0    0    0  501 -0.00000000000E+00 -0.00000000000E+00 -0.39949818129E+03  0.39949818129E+03  0.00000000000E+00 0. -1.
         23    2    1    2    0    0 -0.16891820526E+03  0.82889285117E+02 -0.85561050568E+02  0.22469445725E+03  0.88107389526E+02 0.  0.
          5    1    1    2  502    0  0.10377443117E+03  0.16819641346E+02 -0.72858992260E+02  0.12797631833E+03  0.41800000000E+01 0. -1.
         -5    1    1    2    0  502  0.65143774095E+02 -0.99708926463E+02 -0.11928660291E+03  0.16861894126E+03  0.41800000000E+01 0. -1.
        -11    1    3    3    0    0 -0.23110495947E+02  0.40575455665E+02  0.64913855464E+01  0.47144466395E+02  0.00000000000E+00 0.  1.
         11    1    3    3    0    0 -0.14580770931E+03  0.42313829452E+02 -0.92052436114E+02  0.17754999086E+03  0.00000000000E+00 0. -1.
</event>
<event>
 7    1  0.4274778E-006  0.1475918E+03  0.7561462E-02  0.1203464E+00
         -1   -1    0    0    0  501 -0.00000000000E+00  0.00000000000E+00  0.54701919589E+03  0.54701919589E+03  0.00000000000E+00 0.  1.
          1   -1    0    0  501    0  0.00000000000E+00 -0.00000000000E+00 -0.54745931747E+02  0.54745931747E+02  0.00000000000E+00 0. -1.
         23    2    1    2    0    0 -0.11474314379E+03 -0.86769786828E+01  0.10829243275E+03  0.18184806469E+03  0.90001047961E+02 0.  0.
          5    1    1    2  502    0 -0.88165145130E+01  0.41028404620E+02  0.94383833023E+02  0.10337717954E+03  0.41800000000E+01 0. -1.
         -5    1    1    2    0  502  0.12355965831E+03 -0.32351425937E+02  0.28959699837E+03  0.31653988341E+03  0.41800000000E+01 0. -1.
        -11    1    3    3    0    0 -0.16335448538E+02 -0.20377676415E+02  0.71529043811E+02  0.76147886927E+02  0.00000000000E+00 0.  1.
         11    1    3    3    0    0 -0.98407695257E+02  0.11700697732E+02  0.36763388942E+02  0.10570017777E+03  0.00000000000E+00 0. -1.
</event>
<event>
 7    1  0.4274778E-006  0.1048626E+03  0.7561462E-02  0.1270391E+00
         -2   -1    0    0    0  501 -0.00000000000E+00  0.00000000000E+00  0.26273898326E+02  0.26273898326E+02  0.00000000000E+00 0.  1.
          2   -1    0    0  501    0  0.00000000000E+00 -0.00000000000E+00 -0.52545441336E+03  0.52545441336E+03  0.00000000000E+00 0. -1.
         23    2    1    2    0    0 -0.33729026678E+02 -0.15418865793E+02 -0.28270098252E+03  0.29893240403E+03  0.89807282546E+02 0.  0.
          5    1    1    2  502    0  0.78321234398E+02  0.28262162946E+02 -0.12713298165E+03  0.15203036880E+03  0.41800000000E+01 0. -1.
         -5    1    1    2    0  502 -0.44592207720E+02 -0.12843297153E+02 -0.89346550854E+02  0.10076553885E+03  0.41800000000E+01 0. -1.
        -11    1    3    3    0    0 -0.53728426341E+01 -0.41133930162E+02 -0.59870358548E+02  0.72837678994E+02  0.00000000000E+00 0.  1.
         11    1    3    3    0    0 -0.28356184043E+02  0.25715064370E+02 -0.22283062398E+03  0.22609472504E+03  0.00000000000E+00 0. -1.
</event>
<event>
 7    1  0.4274778E-006  0.1126193E+03  0.7561462E-02  0.1255795E+00
         -2   -1    0    0    0  501 -0.00000000000E+00  0.00000000000E+00  0.11754716563E+03  0.11754716563E+03  0.00000000000E+00 0.  1.
          2   -1    0    0  501    0  0.00000000000E+00 -0.00000000000E+00 -0.11624068376E+03  0.11624068376E+03  0.00000000000E+00 0. -1.
         23    2    1    2    0    0 -0.44935535219E+01  0.97208571002E+01 -0.16558135792E+02  0.10697455699E+03  0.10514131869E+03 0.  0.
          5    1    1    2  502    0  0.22816884603E+02 -0.62652727125E+02  0.22392159989E+02  0.70461731942E+02  0.41800000000E+01 0.  1.
         -5    1    1    2    0  502 -0.18323331081E+02  0.52931870025E+02 -0.45275423256E+01  0.56351560456E+02  0.41800000000E+01 0.  1.
        -11    1    3    3    0    0  0.74281213063E+01  0.54968588163E+02 -0.22397909193E+02  0.59819637302E+02  0.00000000000E+00 0. -1.
         11    1    3    3    0    0 -0.11921674828E+02 -0.45247731062E+02  0.58397734006E+01  0.47154919684E+02  0.00000000000E+00 0.  1.
</event>
<event>
 7    1  0.4274778E-006  0.9864878E+02  0.7561462E-02  0.1283163E+00
         -1   -1    0    0    0  501 -0.00000000000E+00  0.00000000000E+00  0.88376834041E+03  0.88376834041E+03  0.00000000000E+00 0.  1.
          1   -1    0    0  501    0  0.00000000000E+00 -0.00000000000E+00 -0.15259356337E+02  0.15259356337E+02  0.00000000000E+00 0. -1.
         23    2    1    2    0    0 -0.13758339829E+02  0.24965224915E+02  0.25903122419E+03  0.27619297554E+03  0.91503170769E+02 0.  0.
          5    1    1    2  502    0  0.15600384237E+00  0.37355467891E+02  0.44161987121E+03  0.44321669459E+03  0.41800000000E+01 0. -1.
         -5    1    1    2    0  502  0.13602335987E+02 -0.62320692806E+02  0.16785788867E+03  0.17961802661E+03  0.41800000000E+01 0. -1.
        -11    1    3    3    0    0 -0.19715128557E+02 -0.32499185626E+02  0.98189590101E+02  0.10529045049E+03  0.00000000000E+00 0.  1.
         11    1    3    3    0    0  0.59567887272E+01  0.57464410541E+02  0.16084163409E+03  0.17090252505E+03  0.00000000000E+00 0. -1.
</event>
<event>
 7    1  0.4274778E-006  0.1111999E+03  0.7561462E-02  0.1258364E+00
         -2   -1    0    0    0  501 -0.00000000000E+00  0.00000000000E+00  0.14412885997E+03  0.14412885997E+03  0.00000000000E+00 0.  1.
          2   -1    0    0  501    0  0.00000000000E+00 -0.00000000000E+00 -0.26172405330E+03  0.26172405330E+03  0.00000000000E+00 0. -1.
         23    2    1    2    0    0  0.37124225049E+01 -0.36424125842E+02 -0.22020125276E+03  0.24305671060E+03  0.96163786460E+02 0.  0.
          5    1    1    2  502    0  0.31305277814E+02 -0.31770182353E+02  0.17279733427E+02  0.48014857003E+02  0.41800000000E+01 0. -1.
         -5    1    1    2    0  502 -0.35017700319E+02  0.68194308196E+02  0.85326325995E+02  0.11478134567E+03  0.41800000000E+01 0.  1.
        -11    1    3    3    0    0  0.38161295958E+02  0.13234354737E+02 -0.65296678416E+02  0.76779482068E+02  0.00000000000E+00 0.  1.
         11    1    3    3    0    0 -0.34448873453E+02 -0.49658480579E+02 -0.15490457434E+03  0.16627722853E+03  0.00000000000E+00 0. -1.
</event>
<event>
 7    1  0.4274778E-006  0.1013905E+03  0.7561462E-02  0.1277399E+00
         -1   -1    0    0    0  501 -0.00000000000E+00  0.00000000000E+00  0.10269467611E+03  0.10269467611E+03  0.00000000000E+00 0.  1.
          1   -1    0    0  501    0  0.00000000000E+00 -0.00000000000E+00 -0.24222167906E+03  0.24222167906E+03  0.00000000000E+00 0. -1.
         23    2    1    2    0    0  0.36187191492E+02  0.30352361889E+02 -0.17791642871E+03  0.20580257084E+03  0.92030776697E+02 0.  0.
          5    1    1    2  502    0  0.37605669598E+02  0.19800259509E+02  0.22652691262E+01  0.42764944835E+02  0.41800000000E+01 0. -1.
         -5    1    1    2    0  502 -0.73792861089E+02 -0.50152621398E+02  0.36124156622E+02  0.96348839497E+02  0.41800000000E+01 0. -1.
        -11    1    3    3    0    0  0.24561863636E+02 -0.11642422916E+02 -0.52000775456E+01  0.27674391829E+02  0.00000000000E+00 0.  1.
         11    1    3    3    0    0  0.11625327855E+02  0.41994784805E+02 -0.17271635116E+03  0.17812817901E+03  0.00000000000E+00 0. -1.
</event>
<event>
 7    1  0.4274778E-006  0.1497011E+03  0.7561462E-02  0.1200841E+00
          2   -1    0    0  501    0  0.00000000000E+00  0.00000000000E+00  0.77499906447E+02  0.77499906447E+02  0.00000000000E+00 0.  1.
         -2   -1    0    0    0  501 -0.00000000000E+00 -0.00000000000E+00 -0.35683811260E+03  0.35683811260E+03  0.00000000000E+00 0. -1.
         23    2    1    2    0    0  0.35459951010E+01 -0.10939341712E+03 -0.49031500312E+02  0.15031710070E+03  0.90618149127E+02 0.  0.
          5    1    1    2  502    0  0.55548908079E+02  0.41128258196E+02 -0.14033171451E+03  0.15648539008E+03  0.41800000000E+01 0. -1.
         -5    1    1    2    0  502 -0.59094903180E+02  0.68265158922E+02 -0.89974991330E+02  0.12753552826E+03  0.41800000000E+01 0. -1.
        -11    1    3    3    0    0 -0.32495947336E+02 -0.99298827630E+01 -0.24009807138E+02  0.41606009226E+02  0.00000000000E+00 0. -1.
         11    1    3    3    0    0  0.36041942437E+02 -0.99463534355E+02 -0.25021693174E+02  0.10871109148E+03  0.00000000000E+00 0.  1.
</event>
<event>
 7    1  0.4274778E-006  0.9937497E+02  0.7561462E-02  0.1281616E+00
         -1   -1    0    0    0  501 -0.00000000000E+00  0.00000000000E+00  0.94876564341E+02  0.94876564341E+02  0.00000000000E+00 0.  1.
          1   -1    0    0  501    0  0.00000000000E+00 -0.00000000000E+00 -0.14601904417E+03  0.14601904417E+03  0.00000000000E+00 0. -1.
         23    2    1    2    0    0  0.45494983165E+02  0.25375213246E+01 -0.26727919926E+02  0.10553340608E+03  0.91360196950E+02 0.  0.
          5    1    1    2  502    0  0.13193114374E+02 -0.40465270115E+02 -0.45312670153E+02  0.62307357742E+02  0.41800000000E+01 0.  1.
         -5    1    1    2    0  502 -0.58688097539E+02  0.37927748790E+02  0.20898110250E+02  0.73054844693E+02  0.41800000000E+01 0.  1.
        -11    1    3    3    0    0 -0.57453816019E+01  0.28126270267E+02  0.17099623284E+02  0.33413973205E+02  0.00000000000E+00 0.  1.
         11    1    3    3    0    0  0.51240364767E+02 -0.25588748942E+02 -0.43827543210E+02  0.72119432871E+02  0.00000000000E+00 0. -1.
</event>
<event>
 7    1  0.4274778E-006  0.1317787E+03  0.7561462E-02  0.1224840E+00
         -2   -1    0    0    0  501 -0.00000000000E+00  0.00000000000E+00  0.54959090100E+02  0.54959090100E+02  0.00000000000E+00 0.  1.
          2   -1    0    0  501    0  0.00000000000E+00 -0.00000000000E+00 -0.41222510175E+03  0.41222510175E+03  0.00000000000E+00 0. -1.
         23    2    1    2    0    0 -0.10843493718E+03  0.18786928971E+02 -0.19741770820E+03  0.24337252076E+03  0.90251581965E+02 0.  0.
          5    1    1    2  502    0  0.70963068135E+02  0.21416220334E+02 -0.15062526451E+03  0.16792812225E+03  0.41800000000E+01 0. -1.
         -5    1    1    2    0  502  0.37471869046E+02 -0.40203149305E+02 -0.92230389334E+01  0.55883548840E+02  0.41800000000E+01 0.  1.
        -11    1    3    3    0    0  0.93180720693E+01  0.13400897516E+02 -0.39014811803E+01  0.16781897292E+02  0.00000000000E+00 0.  1.
         11    1    3    3    0    0 -0.11775300925E+03  0.53860314545E+01 -0.19351622702E+03  0.22659062347E+03  0.00000000000E+00 0. -1.
</event>
<event>
 7    1  0.4274778E-006  0.8096906E+02  0.7561462E-02  0.1326324E+00
         -1   -1    0    0    0  501 -0.00000000000E+00  0.00000000000E+00  0.52624097289E+02  0.52624097289E+02  0.00000000000E+00 0.  1.
          1   -1    0    0  501    0  0.00000000000E+00 -0.00000000000E+00 -0.33806471367E+03  0.33806471367E+03  0.00000000000E+00 0. -1.
         23    2    1    2    0    0 -0.46278263969E+02  0.12351903595E+02 -0.21139705561E+03  0.23763853264E+03  0.97412062065E+02 0.  0.
          5    1    1    2  502    0  0.18059870670E+02  0.40708209620E+02 -0.80876431712E+02  0.92421787829E+02  0.41800000000E+01 0. -1.
         -5    1    1    2    0  502  0.28218393299E+02 -0.53060113214E+02  0.68328709341E+01  0.60628490497E+02  0.41800000000E+01 0. -1.
        -11    1    3    3    0    0 -0.10938638586E+02  0.18112825169E+02  0.20041250383E+01  0.21254288200E+02  0.00000000000E+00 0.  1.
         11    1    3    3    0    0 -0.35339625383E+02 -0.57609215740E+01 -0.21340118064E+03  0.21638424444E+03  0.00000000000E+00 0. -1.
</event>
<event>
 7    1  0.4274778E-006  0.1153627E+03  0.7561462E-02  0.1250949E+00
         -2   -1    0    0    0  501 -0.00000000000E+00  0.00000000000E+00  0.32084442873E+02  0.32084442873E+02  0.00000000000E+00 0.  1.
          2   -1    0    0  501    0  0.00000000000E+00 -0.00000000000E+00 -0.61929775565E+03  0.61929775565E+03  0.00000000000E+00 0. -1.
         23    2    1    2    0    0  0.23894940872E+02 -0.48334320101E+02 -0.41908894888E+03  0.43499885254E+03  0.10335027788E+03 0.  0.
          5    1    1    2  502    0 -0.63733548338E+02  0.16572500194E+02 -0.14688421113E+03  0.16102501925E+03  0.41800000000E+01 0.  1.
         -5    1    1    2    0  502  0.39838607466E+02  0.31761819907E+02 -0.21240152764E+02  0.55358326728E+02  0.41800000000E+01 0.  1.
        -11    1    3    3    0    0 -0.11078407500E+02 -0.71054528756E+02 -0.21550149419E+03  0.22718356271E+03  0.00000000000E+00 0.  1.
         11    1    3    3    0    0  0.34973348372E+02  0.22720208655E+02 -0.20358745469E+03  0.20781528983E+03  0.00000000000E+00 0. -1.
</event>
<event>
 7    1  0.4274778E-006  0.1244315E+03  0.7561462E-02  0.1235960E+00
          1   -1    0    0  501    0  0.00000000000E+00  0.00000000000E+00  0.15376866939E+03  0.15376866939E+03  0.00000000000E+00 0. -1.
         -1   -1    0    0    0  501 -0.00000000000E+00 -0.00000000000E+00 -0.16217609677E+03  0.16217609677E+03  0.00000000000E+00 0.  1.
         23    2    1    2    0    0  0.68977160153E+02 -0.20773981181E+02  0.86783721341E+02  0.14303195645E+03  0.87962033629E+02 0.  0.
          5    1    1    2  502    0 -0.42686604842E+02 -0.51603244095E+02 -0.48005033753E+02  0.82504525328E+02  0.41800000000E+01 0.  1.
         -5    1    1    2    0  502 -0.26290555312E+02  0.72377225275E+02 -0.47186114968E+02  0.90408284371E+02  0.41800000000E+01 0.  1.
        -11    1    3    3    0    0  0.48792178161E+02  0.24849361039E+02  0.17164311328E+02  0.57382758535E+02  0.00000000000E+00 0.  1.
         11    1    3    3    0    0  0.20184981992E+02 -0.45623342220E+02  0.69619410014E+02  0.85649197918E+02  0.00000000000E+00 0. -1.
</event>
<event>
 7    1  0.4274778E-006  0.7727527E+02  0.7561462E-02  0.1336967E+00
         -1   -1    0    0    0  501 -0.00000000000E+00  0.00000000000E+00  0.17632586574E+03  0.17632586574E+03  0.00000000000E+00 0.  1.
          1   -1    0    0  501    0  0.00000000000E+00 -0.00000000000E+00 -0.92753062676E+02  0.92753062676E+02  0.00000000000E+00 0. -1.
         23    2    1    2    0    0 -0.31044441270E+02  0.24760966041E+02 -0.18154612407E+02  0.10303142102E+03  0.93322135601E+02 0.  0.
          5    1    1    2  502    0 -0.27054912639E+02  0.17187767316E+02 -0.94794587550E+01  0.33685607928E+02  0.41800000000E+01 0. -1.
         -5    1    1    2    0  502  0.58099353909E+02 -0.41948733357E+02  0.11120687423E+03  0.13236189947E+03  0.41800000000E+01 0. -1.
        -11    1    3    3    0    0 -0.21724322678E+02 -0.22782832036E+01 -0.53368789365E+02  0.57665973056E+02  0.00000000000E+00 0. -1.
         11    1    3    3    0    0 -0.93201185923E+01  0.27039249245E+02  0.35214176959E+02  0.45365447966E+02  0.00000000000E+00 0.  1.
</event>
<event>
 7    1  0.4274778E-006  0.1107477E+03  0.7561462E-02  0.1259191E+00
         -2   -1    0    0    0  501 -0.00000000000E+00  0.00000000000E+00  0.26666210467E+02  0.26666210467E+02  0.00000000000E+00 0.  1.
          2   -1    0    0  501    0  0.00000000000E+00 -0.00000000000E+00 -0.50582361616E+03  0.50582361616E+03  0.00000000000E+00 0. -1.
         23    2    1    2    0    0  0.50755514395E+01 -0.33941080914E+02 -0.20888033445E+03  0.23269936056E+03  0.96644917574E+02 0.  0.
          5    1    1    2  502    0 -0.33921407642E+02 -0.32722170718E+02 -0.55008124952E+02  0.72558724931E+02  0.41800000000E+01 0.  1.
         -5    1    1    2    0  502  0.28845856202E+02  0.66663251632E+02 -0.21526894629E+03  0.22723174113E+03  0.41800000000E+01 0.  1.
        -11    1    3    3    0    0 -0.36894269807E+02 -0.44832918898E+02 -0.13633238180E+03  0.14818129467E+03  0.00000000000E+00 0. -1.
         11    1    3    3    0    0  0.41969821246E+02  0.10891837985E+02 -0.72547952641E+02  0.84518065894E+02  0.00000000000E+00 0.  1.
</event>
<event>
 7    1  0.4274778E-006  0.1226469E+03  0.7561462E-02  0.1238793E+00
         -2   -1    0    0    0  501 -0.00000000000E+00  0.00000000000E+00  0.24238499839E+03  0.24238499839E+03  0.00000000000E+00 0. -1.
          2   -1    0    0  501    0  0.00000000000E+00 -0.00000000000E+00 -0.70216330727E+02  0.70216330727E+02  0.00000000000E+00 0.  1.
         23    2    1    2    0    0  0.61046578963E+02 -0.15395206123E+02  0.34133136983E+02  0.11596192328E+03  0.91205259919E+02 0.  0.
          5    1    1    2  502    0 -0.35378929641E+02  0.70363542629E+02  0.84972178790E+02  0.11593291320E+03  0.41800000000E+01 0. -1.
         -5    1    1    2    0  502 -0.25667649323E+02 -0.54968336507E+02  0.53063351894E+02  0.80706492640E+02  0.41800000000E+01 0. -1.
        -11    1    3    3    0    0  0.24664152821E+02 -0.49780654874E+02  0.35417651606E+02  0.65885082373E+02  0.00000000000E+00 0. -1.
         11    1    3    3    0    0  0.36382426142E+02  0.34385448752E+02 -0.12845146224E+01  0.50076840911E+02  0.00000000000E+00 0.  1.
</event>
<event>
 7    1  0.4274778E-006  0.1000837E+03  0.7561462E-02  0.1280120E+00
         -1   -1    0    0    0  501 -0.00000000000E+00  0.00000000000E+00  0.33550718097E+02  0.33550718097E+02  0.00000000000E+00 0.  1.
          1   -1    0    0  501    0  0.00000000000E+00 -0.00000000000E+00 -0.54447401057E+03  0.54447401057E+03  0.00000000000E+00 0. -1.
         23    2    1    2    0    0 -0.22723344373E+02 -0.47575159557E+02 -0.35991913443E+03  0.37497447232E+03  0.91018269460E+02 0.  0.
          5    1    1    2  502    0  0.45747528238E-01 -0.23332727930E+02  0.99160455078E+01  0.25694720158E+02  0.41800000000E+01 0.  1.
         -5    1    1    2    0  502  0.22677596845E+02  0.70907887487E+02 -0.16092020355E+03  0.17735553619E+03  0.41800000000E+01 0.  1.
        -11    1    3    3    0    0 -0.47471420984E+02  0.89220294119E+00 -0.12206141470E+03  0.13097068678E+03  0.00000000000E+00 0.  1.
         11    1    3    3    0    0  0.24748076611E+02 -0.48467362498E+02 -0.23785771972E+03  0.24400378554E+03  0.00000000000E+00 0. -1.
</event>
<event>
 7    1  0.4274778E-006  0.8993312E+02  0.7561462E-02  0.1303014E+00
          3   -1    0    0  501    0  0.00000000000E+00  0.00000000000E+00  0.40653698505E+03  0.40653698505E+03  0.00000000000E+00 0. -1.
         -3   -1    0    0    0  501 -0.00000000000E+00 -0.00000000000E+00 -0.31976938591E+02  0.31976938591E+02  0.00000000000E+00 0.  1.
         23    2    1    2    0    0  0.23762886519E+01  0.10427093063E+02  0.22496056653E+03  0.24321386844E+03  0.91822428039E+02 0.  0.
          5    1    1    2  502    0  0.42460237990E+02 -0.23705076751E+02  0.13879245969E+03  0.14712451101E+03  0.41800000000E+01 0. -1.
         -5    1    1    2    0  502 -0.44836526642E+02  0.13277983687E+02  0.10807020252E+02  0.48175544199E+02  0.41800000000E+01 0. -1.
        -11    1    3    3    0    0  0.22401710972E+02  0.41490079081E+02  0.73614747633E+02  0.87420789207E+02  0.00000000000E+00 0.  1.
         11    1    3    3    0    0 -0.20025422320E+02 -0.31062986017E+02  0.15134581889E+03  0.15579307923E+03  0.00000000000E+00 0. -1.
</event>
<event>
 7    1  0.4274778E-006  0.8674746E+02  0.7561462E-02  0.1310925E+00
          3   -1    0    0  501    0  0.00000000000E+00  0.00000000000E+00  0.88840064913E+03  0.88840064913E+03  0.00000000000E+00 0. -1.
         -3   -1    0    0    0  501 -0.00000000000E+00 -0.00000000000E+00 -0.17109940125E+02  0.17109940125E+02  0.00000000000E+00 0.  1.
         23    2    1    2    0    0  0.42046979805E+02  0.18085113121E+01  0.53097608816E+03  0.54049975582E+03  0.91832241749E+02 0.  0.
          5    1    1    2  502    0 -0.38485493108E+02 -0.26690746114E+02  0.34956612796E+02  0.58591520599E+02  0.41800000000E+01 0. -1.
         -5    1    1    2    0  502 -0.35614866965E+01  0.24882234802E+02  0.30535800805E+03  0.30641931284E+03  0.41800000000E+01 0. -1.
        -11    1    3    3    0    0 -0.10976186049E+02  0.36176839584E+02  0.19308130748E+03  0.19674763450E+03  0.00000000000E+00 0. -1.
         11    1    3    3    0    0  0.53023165854E+02 -0.34368328272E+02  0.33789478068E+03  0.34375212132E+03  0.00000000000E+00 0.  1.
</event>
<event>
 7    1  0.4274778E-006  0.1058455E+03  0.7561462E-02  0.1268463E+00
         -1   -1    0    0    0  501 -0.00000000000E+00  0.00000000000E+00  0.98687974946E+03  0.98687974946E+03  0.00000000000E+00 0.  1.
          1   -1    0    0  501    0  0.00000000000E+00 -0.00000000000E+00 -0.11918401252E+02  0.11918401252E+02  0.00000000000E+00 0. -1.
         23    2    1    2    0    0 -0.27624999344E+02  0.23116544846E+02  0.45623873349E+03  0.46654044812E+03  0.90601835299E+02 0.  0.
          5    1    1    2  502    0 -0.37360399531E+02  0.13014437614E+02  0.26015682704E+03  0.26318096833E+03  0.41800000000E+01 0. -1.
         -5    1    1    2    0  502  0.64985398875E+02 -0.36130982460E+02  0.25856578768E+03  0.26907673426E+03  0.41800000000E+01 0.  1.
        -11    1    3    3    0    0  0.33272514864E+02  0.12913508262E+02  0.17526642003E+03  0.17886345890E+03  0.00000000000E+00 0.  1.
         11    1    3    3    0    0 -0.60897514208E+02  0.10203036584E+02  0.28097231346E+03  0.28767698922E+03  0.00000000000E+00 0. -1.
</event>
<event>
 7    1  0.4274778E-006  0.9143688E+02  0.7561462E-02  0.1299409E+00
         -2   -1    0    0    0  501 -0.00000000000E+00  0.00000000000E+00  0.87848754320E+03  0.87848754320E+03  0.00000000000E+00 0. -1.
          2   -1    0    0  501    0  0.00000000000E+00 -0.00000000000E+00 -0.44209449300E+02  0.44209449300E+02  0.00000000000E+00 0.  1.
         23    2    1    2    0    0 -0.76161498851E+02 -0.17840399775E+02  0.60195120780E+02  0.13468008982E+03  0.91631982717E+02 0.  0.
          5    1    1    2  502    0  0.22820832917E+02 -0.15925102512E+02  0.29567232115E+02  0.40817801509E+02  0.41800000000E+01 0.  1.
         -5    1    1    2    0  502  0.53340665934E+02  0.33765502288E+02  0.74451574101E+03  0.74719910117E+03  0.41800000000E+01 0.  1.
        -11    1    3    3    0    0 -0.68116454537E+02  0.39568338846E+01 -0.20270774311E+01  0.68261387006E+02  0.00000000000E+00 0.  1.
         11    1    3    3    0    0 -0.80450443143E+01 -0.21797233660E+02  0.62222198211E+02  0.66418702814E+02  0.00000000000E+00 0. -1.
</event>
<event>
 7    1  0.4274778E-006  0.4185276E+03  0.7561462E-02  0.1037547E+00
          1   -1    0    0  501    0  0.00000000000E+00  0.00000000000E+00  0.47206280316E+03  0.47206280316E+03  0.00000000000E+00 0. -1.
         -1   -1    0    0    0  501 -0.00000000000E+00 -0.00000000000E+00 -0.38880463157E+03  0.38880463157E+03  0.00000000000E+00 0.  1.
         23    2    1    2    0    0 -0.40726475688E+03 -0.42030366200E+01  0.11682308740E+03  0.43348431463E+03  0.91535619103E+02 0.  0.
          5    1    1    2  502    0  0.26578623278E+03 -0.46263212171E+02  0.12818739205E+02  0.27011923073E+03  0.41800000000E+01 0. -1.
         -5    1    1    2    0  502  0.14147852410E+03  0.50466248791E+02 -0.46383655013E+02  0.15726388937E+03  0.41800000000E+01 0. -1.
        -11    1    3    3    0    0 -0.27575899118E+02 -0.24295877480E+02  0.16271866665E+02  0.40193202404E+02  0.00000000000E+00 0. -1.
         11    1    3    3    0    0 -0.37968885776E+03  0.20092840860E+02  0.10055122074E+03  0.39329111222E+03  0.00000000000E+00 0.  1.
</event>
<event>
 7    1  0.4274778E-006  0.1408283E+03  0.7561462E-02  0.1212219E+00
          1   -1    0    0  501    0  0.00000000000E+00  0.00000000000E+00  0.42339367006E+03  0.42339367006E+03  0.00000000000E+00 0. -1.
         -1   -1    0    0    0  501 -0.00000000000E+00 -0.00000000000E+00 -0.54337253530E+02  0.54337253530E+02  0.00000000000E+00 0.  1.
         23    2    1    2    0    0 -0.89962321901E+02  0.51395619966E+02  0.20147833425E+03  0.24435429999E+03  0.91546576324E+02 0.  0.
          5    1    1    2  502    0  0.79978219959E+01  0.36059280225E+02  0.17004464068E+02  0.40876167203E+02  0.41800000000E+01 0. -1.
         -5    1    1    2    0  502  0.81964499906E+02 -0.87454900191E+02  0.15057361821E+03  0.19250045640E+03  0.41800000000E+01 0. -1.
        -11    1    3    3    0    0 -0.37390651479E+02 -0.14631855806E+02  0.21446146952E+02  0.45520206957E+02  0.00000000000E+00 0.  1.
         11    1    3    3    0    0 -0.52571670423E+02  0.66027475772E+02  0.18003218730E+03  0.19883409303E+03  0.00000000000E+00 0. -1.
</event>
<event>
 7    1  0.4274778E-006  0.1076488E+03  0.7561462E-02  0.1264987E+00
         -1   -1    0    0    0  501 -0.00000000000E+00  0.00000000000E+00  0.46366817735E+03  0.46366817735E+03  0.00000000000E+00 0.  1.
          1   -1    0    0  501    0  0.00000000000E+00 -0.00000000000E+00 -0.28897750620E+02  0.28897750620E+02  0.00000000000E+00 0. -1.
         23    2    1    2    0    0  0.27020684950E+02  0.97836935323E+00  0.12704442226E+03  0.15929231837E+03  0.92209993182E+02 0.  0.
          5    1    1    2  502    0 -0.67948797439E+02  0.22857377677E+02  0.24007403675E+03  0.25058434570E+03  0.41800000000E+01 0. -1.
         -5    1    1    2    0  502  0.40928112488E+02 -0.23835747031E+02  0.67651967725E+02  0.82689263906E+02  0.41800000000E+01 0. -1.
        -11    1    3    3    0    0  0.28329526513E+02 -0.43243681615E+02  0.72937235110E+02  0.89400326272E+02  0.00000000000E+00 0.  1.
         11    1    3    3    0    0 -0.13088415629E+01  0.44222050969E+02  0.54107187153E+02  0.69891992100E+02  0.00000000000E+00 0. -1.
</event>
<event>
 7    1  0.4274778E-006  0.9681578E+02  0.7561462E-02  0.1287138E+00
          2   -1    0    0  501    0  0.00000000000E+00  0.00000000000E+00  0.34433727284E+02  0.34433727284E+02  0.00000000000E+00 0.  1.
         -2   -1    0    0    0  501 -0.00000000000E+00 -0.00000000000E+00 -0.44787149908E+03  0.44787149908E+03  0.00000000000E+00 0. -1.
         23    2    1    2    0    0  0.64123921608E+02  0.17219643931E+02 -0.19525542999E+03  0.22219458639E+03  0.82688317309E+02 0.  0.
          5    1    1    2  502    0 -0.71113150776E+02  0.25990252442E+02 -0.19742482612E+03  0.21148666106E+03  0.41800000000E+01 0.  1.
         -5    1    1    2    0  502  0.69892291677E+01 -0.43209896372E+02 -0.20757515683E+02  0.48623978922E+02  0.41800000000E+01 0.  1.
        -11    1    3    3    0    0  0.58381941358E+02  0.29570014400E+01 -0.19811196028E+03  0.20655639361E+03  0.00000000000E+00 0. -1.
         11    1    3    3    0    0  0.57419802497E+01  0.14262642491E+02  0.28565302922E+01  0.15638192776E+02  0.00000000000E+00 0.  1.
</event>
<event>
 7    1  0.4274778E-006  0.2585505E+03  0.7561462E-02  0.1108017E+00
         -2   -1    0    0    0  501 -0.00000000000E+00  0.00000000000E+00  0.14519630096E+03  0.14519630096E+03  0.00000000000E+00 0.  1.
          2   -1    0    0  501    0  0.00000000000E+00 -0.00000000000E+00 -0.51525422538E+03  0.51525422538E+03  0.00000000000E+00 0. -1.
         23    2    1    2    0    0 -0.18969364641E+03 -0.14003493429E+03 -0.28365133213E+03  0.37990437237E+03  0.90971378003E+02 0.  0.
          5    1    1    2  502    0  0.80405055643E+01 -0.20630844485E+02 -0.17114200123E+02  0.28295754447E+02  0.41800000000E+01 0.  1.
         -5    1    1    2    0  502  0.18165314085E+03  0.16066577877E+03 -0.69292392171E+02  0.25225039953E+03  0.41800000000E+01 0.  1.
        -11    1    3    3    0    0 -0.98278578385E+02 -0.12558868086E+03 -0.19292585949E+03  0.25030298239E+03  0.00000000000E+00 0.  1.
         11    1    3    3    0    0 -0.91415068027E+02 -0.14446253427E+02 -0.90725472636E+02  0.12960138998E+03  0.00000000000E+00 0. -1.
</event>
<event>
 7    1  0.4274778E-006  0.2206999E+03  0.7561462E-02  0.1133362E+00
         -2   -1    0    0    0  501 -0.00000000000E+00  0.00000000000E+00  0.28535993907E+03  0.28535993907E+03  0.00000000000E+00 0.  1.
          2   -1    0    0  501    0  0.00000000000E+00 -0.00000000000E+00 -0.45113958622E+03  0.45113958622E+03  0.00000000000E+00 0. -1.
         23    2    1    2    0    0 -0.18199523566E+03  0.94849699128E+02 -0.36223010471E+03  0.42608676330E+03  0.90667248056E+02 0.  0.
          5    1    1    2  502    0  0.13520428707E+03 -0.11071025993E+03  0.98531847823E+02  0.20065631894E+03  0.41800000000E+01 0. -1.
         -5    1    1    2    0  502  0.46790948594E+02  0.15860560799E+02  0.97918609734E+02  0.10975644305E+03  0.41800000000E+01 0. -1.
        -11    1    3    3    0    0 -0.88623454597E+02  0.71369753530E+01 -0.20374322001E+03  0.22229789207E+03  0.00000000000E+00 0.  1.
         11    1    3    3    0    0 -0.93371781064E+02  0.87712723775E+02 -0.15848688471E+03  0.20378887122E+03  0.00000000000E+00 0. -1.
</event>
<event>
 7    1  0.4274778E-006  0.9193420E+02  0.7561462E-02  0.1298234E+00
         -4   -1    0    0    0  501 -0.00000000000E+00  0.00000000000E+00  0.46118991650E+02  0.46118991650E+02  0.00000000000E+00 0.  1.
          4   -1    0    0  501    0  0.00000000000E+00 -0.00000000000E+00 -0.28190231570E+03  0.28190231570E+03  0.00000000000E+00 0. -1.
         23    2    1    2    0    0  0.10651030110E+02 -0.16379230490E+02 -0.16172923365E+03  0.18528829435E+03  0.88281840563E+02 0.  0.
          5    1    1    2  502    0  0.27759413208E+02  0.52528063037E+02 -0.66522214934E+02  0.89288632579E+02  0.41800000000E+01 0. -1.
         -5    1    1    2    0  502 -0.38410443318E+02 -0.36148832547E+02 -0.75318754681E+01  0.53444380420E+02  0.41800000000E+01 0.  1.
        -11    1    3    3    0    0  0.39207155550E+02 -0.17238528054E+02 -0.14706666634E+03  0.15317627834E+03  0.00000000000E+00 0. -1.
         11    1    3    3    0    0 -0.28556125440E+02  0.85929756416E+00 -0.14662567303E+02  0.32112016013E+02  0.00000000000E+00 0.  1.
</event>
<event>
 7    1  0.4274778E-006  0.1038564E+03  0.7561462E-02  0.1272389E+00
         -2   -1    0    0    0  501 -0.00000000000E+00  0.00000000000E+00  0.93883506597E+02  0.93883506597E+02  0.00000000000E+00 0.  1.
          2   -1    0    0  501    0  0.00000000000E+00 -0.00000000000E+00 -0.22179333803E+03  0.22179333803E+03  0.00000000000E+00 0. -1.
         23    2    1    2    0    0  0.83868310461E+02  0.36152400502E+02 -0.79582757754E+02  0.15343153790E+03  0.94164387789E+02 0.  0.
          5    1    1    2  502    0 -0.63159153499E+02 -0.57879735538E+02  0.19496784464E+02  0.87958737264E+02  0.41800000000E+01 0. -1.
         -5    1    1    2    0  502 -0.20709156961E+02  0.21727335036E+02 -0.67823858144E+02  0.74286569468E+02  0.41800000000E+01 0. -1.
        -11    1    3    3    0    0  0.63259812297E+02  0.23672766174E+02  0.27960576194E+01  0.67601935241E+02  0.00000000000E+00 0.  1.
         11    1    3    3    0    0  0.20608498164E+02  0.12479634329E+02 -0.82378815374E+02  0.85829602655E+02  0.00000000000E+00 0. -1.
</event>
<event>
 7    1  0.4274778E-006  0.1339829E+03  0.7561462E-02  0.1221663E+00
          1   -1    0    0  501    0  0.00000000000E+00  0.00000000000E+00  0.40993262767E+02  0.40993262767E+02  0.00000000000E+00 0. -1.
         -1   -1    0    0    0  501 -0.00000000000E+00 -0.00000000000E+00 -0.54722160052E+03  0.54722160052E+03  0.00000000000E+00 0.  1.
         23    2    1    2    0    0  0.99624547962E+01 -0.10172369853E+03 -0.20881232071E+03  0.24976110474E+03  0.91274655927E+02 0.  0.
          5    1    1    2  502    0 -0.25803298704E+02  0.12222196771E+03 -0.18672396021E+03  0.22469385690E+03  0.41800000000E+01 0. -1.
         -5    1    1    2    0  502  0.15840843908E+02 -0.20498269178E+02 -0.11069205684E+03  0.11375990164E+03  0.41800000000E+01 0. -1.
        -11    1    3    3    0    0 -0.98954627846E+01 -0.95380511074E+02 -0.20783678740E+03  0.22889187900E+03  0.00000000000E+00 0.  1.
         11    1    3    3    0    0  0.19857917581E+02 -0.63431874547E+01 -0.97553330766E+00  0.20869225739E+02  0.00000000000E+00 0. -1.
</event>
<event>
 7    1  0.4274778E-006  0.1127147E+03  0.7561462E-02  0.1255624E+00
          2   -1    0    0  501    0  0.00000000000E+00  0.00000000000E+00  0.19901405057E+03  0.19901405057E+03  0.00000000000E+00 0. -1.
         -2   -1    0    0    0  501 -0.00000000000E+00 -0.00000000000E+00 -0.12204939167E+03  0.12204939167E+03  0.00000000000E+00 0.  1.
         23    2    1    2    0    0 -0.36631860295E+01  0.87050293868E+02  0.10624575612E+03  0.16582450954E+03  0.92835524849E+02 0.  0.
          5    1    1    2  502    0  0.24701868240E+02 -0.57652484044E+02  0.41726548532E+02  0.75449111747E+02  0.41800000000E+01 0.  1.
         -5    1    1    2    0  502 -0.21038682211E+02 -0.29397809824E+02 -0.71007645764E+02  0.79789820959E+02  0.41800000000E+01 0.  1.
        -11    1    3    3    0    0 -0.47491403624E+02  0.43941776522E+02  0.65521807013E+02  0.92083768039E+02  0.00000000000E+00 0. -1.
         11    1    3    3    0    0  0.43828217594E+02  0.43108517347E+02  0.40723949112E+02  0.73740741497E+02  0.00000000000E+00 0.  1.
</event>
<event>
 7    1  0.4274778E-006  0.1057739E+03  0.7561462E-02  0.1268602E+00
         -1   -1    0    0    0  501 -0.00000000000E+00  0.00000000000E+00  0.25472459431E+03  0.25472459431E+03  0.00000000000E+00 0.  1.
          1   -1    0    0  501    0  0.00000000000E+00 -0.00000000000E+00 -0.68053536202E+02  0.68053536202E+02  0.00000000000E+00 0. -1.
         23    2    1    2    0    0  0.63421731103E+02 -0.71349911348E+01  0.40446383324E+02  0.12003437119E+03  0.93269053112E+02 0.  0.
          5    1    1    2  502    0 -0.44877126215E+01  0.58399783540E+02  0.85474054578E+02  0.10370130514E+03  0.41800000000E+01 0. -1.
         -5    1    1    2    0  502 -0.58934018482E+02 -0.51264792405E+02  0.60750620211E+02  0.99042454184E+02  0.41800000000E+01 0. -1.
        -11    1    3    3    0    0  0.28980729340E+02  0.16009947272E+02  0.64190266695E+02  0.72225974712E+02  0.00000000000E+00 0.  1.
         11    1    3    3    0    0  0.34441001763E+02 -0.23144938406E+02 -0.23743883371E+02  0.47808396478E+02  0.00000000000E+00 0. -1.
</event>
<event>
 7    1  0.4274778E-006  0.7830350E+02  0.7561462E-02  0.1333936E+00
         -2   -1    0    0    0  501 -0.00000000000E+00  0.00000000000E+00  0.59324610143E+02  0.59324610143E+02  0.00000000000E+00 0.  1.
          2   -1    0    0  501    0  0.00000000000E+00 -0.00000000000E+00 -0.19932940406E+03  0.19932940406E+03  0.00000000000E+00 0. -1.
         23    2    1    2    0    0  0.10708791302E+02 -0.33151962258E+01 -0.61112103502E+02  0.11034921778E+03  0.91195350391E+02 0.  0.
          5    1    1    2  502    0  0.60980238809E+00 -0.58961312815E+02 -0.21933355692E+02  0.63050398569E+02  0.41800000000E+01 0. -1.
         -5    1    1    2    0  502 -0.11318593690E+02  0.62276509041E+02 -0.56959334724E+02  0.85254397855E+02  0.41800000000E+01 0. -1.
        -11    1    3    3    0    0 -0.79792234267E+01 -0.11220786347E+02 -0.80866358235E+02  0.82030128288E+02  0.00000000000E+00 0. -1.
         11    1    3    3    0    0  0.18688014728E+02  0.79055901207E+01  0.19754254732E+02  0.28319089492E+02  0.00000000000E+00 0.  1.
</event>
<event>
 7    1  0.4274778E-006  0.1944919E+03  0.7561462E-02  0.1154471E+00
          1   -1    0    0  501    0  0.00000000000E+00  0.00000000000E+00  0.63960319458E+03  0.63960319458E+03  0.00000000000E+00 0. -1.
         -1   -1    0    0    0  501 -0.00000000000E+00 -0.00000000000E+00 -0.97896150863E+02  0.97896150863E+02  0.00000000000E+00 0.  1.
         23    2    1    2    0    0 -0.10079070630E+03  0.13911969618E+03  0.47579153309E+03  0.51500185631E+03  0.96624389839E+02 0.  0.
          5    1    1    2  502    0 -0.20660755485E+02 -0.61599554475E+02  0.38906270439E+02  0.75845515413E+02  0.41800000000E+01 0.  1.
         -5    1    1    2    0  502  0.12145146178E+03 -0.77520141701E+02  0.27009240191E+02  0.14665197371E+03  0.41800000000E+01 0.  1.
        -11    1    3    3    0    0 -0.82873443574E+02  0.13898372042E+03  0.46849891939E+03  0.49565685677E+03  0.00000000000E+00 0. -1.
         11    1    3    3    0    0 -0.17917262724E+02  0.13597575948E+00  0.72926136920E+01  0.19344999544E+02  0.00000000000E+00 0.  1.
</event>
<event>
 7    1  0.4274778E-006  0.1094059E+03  0.7561462E-02  0.1261674E+00
         -2   -1    0    0    0  501 -0.00000000000E+00  0.00000000000E+00  0.19414564402E+02  0.19414564402E+02  0.00000000000E+00 0.  1.
          2   -1    0    0  501    0  0.00000000000E+00 -0.00000000000E+00 -0.68589600364E+03  0.68589600364E+03  0.00000000000E+00 0. -1.
         23    2    1    2    0    0  0.34285805281E+02 -0.47259921479E+01 -0.34666258606E+03  0.36015853392E+03  0.91331098407E+02 0.  0.
          5    1    1    2  502    0 -0.43709096876E+02 -0.53962549406E+02 -0.18914696781E+03  0.20153533119E+03  0.41800000000E+01 0. -1.
         -5    1    1    2    0  502  0.94232915950E+01  0.58688541554E+02 -0.13067188537E+03  0.14361670293E+03  0.41800000000E+01 0. -1.
        -11    1    3    3    0    0 -0.15372218841E+02  0.26756862039E+02 -0.59365997895E+02  0.66907073500E+02  0.00000000000E+00 0.  1.
         11    1    3    3    0    0  0.49658024121E+02 -0.31482854187E+02 -0.28729658816E+03  0.29325146042E+03  0.00000000000E+00 0. -1.
</event>
<event>
 7    1  0.4274778E-006  0.1229450E+03  0.7561462E-02  0.1238316E+00
          1   -1    0    0  501    0  0.00000000000E+00  0.00000000000E+00  0.46282171404E+02  0.46282171404E+02  0.00000000000E+00 0. -1.
         -1   -1    0    0    0  501 -0.00000000000E+00 -0.00000000000E+00 -0.57480121463E+03  0.57480121463E+03  0.00000000000E+00 0.  1.
         23    2    1    2    0    0 -0.11122133103E+03  0.43953482409E+02 -0.19196063374E+03  0.24263784999E+03  0.87875754619E+02 0.  0.
          5    1    1    2  502    0  0.37819653162E+02 -0.35889831905E+02 -0.28129882599E+03  0.28612044335E+03  0.41800000000E+01 0. -1.
         -5    1    1    2    0  502  0.73401677867E+02 -0.80636505039E+01 -0.55259583499E+02  0.92325092697E+02  0.41800000000E+01 0. -1.
        -11    1    3    3    0    0 -0.44330388796E+02  0.16077045473E+02 -0.12035428315E+02  0.48667302131E+02  0.00000000000E+00 0.  1.
         11    1    3    3    0    0 -0.66890942233E+02  0.27876436936E+02 -0.17992520543E+03  0.19397054786E+03  0.00000000000E+00 0. -1.
</event>
<event>
 7    1  0.4274778E-006  0.9775508E+02  0.7561462E-02  0.1285089E+00
         -2   -1    0    0    0  501 -0.00000000000E+00  0.00000000000E+00  0.64837577981E+02  0.64837577981E+02  0.00000000000E+00 0.  1.
          2   -1    0    0  501    0  0.00000000000E+00 -0.00000000000E+00 -0.20802173422E+03  0.20802173422E+03  0.00000000000E+00 0. -1.
         23    2    1    2    0    0 -0.85723329760E+01  0.36092649892E+02 -0.80888720559E+02  0.12829319309E+03  0.92412088012E+02 0.  0.
          5    1    1    2  502    0  0.34618172363E+02  0.36078367785E+02 -0.88080475515E+01  0.50942326031E+02  0.41800000000E+01 0.  1.
         -5    1    1    2    0  502 -0.26045839387E+02 -0.72171017677E+02 -0.53487388131E+02  0.93623793082E+02  0.41800000000E+01 0.  1.
        -11    1    3    3    0    0  0.20952856589E+02 -0.11303271231E+01  0.11845983007E+02  0.24096206175E+02  0.00000000000E+00 0.  1.
         11    1    3    3    0    0 -0.29525189565E+02  0.37222977015E+02 -0.92734703566E+02  0.10419698691E+03  0.00000000000E+00 0. -1.
</event>
<event>
 7    1  0.4274778E-006  0.1431255E+03  0.7561462E-02  0.1209184E+00
          1   -1    0    0  501    0  0.00000000000E+00  0.00000000000E+00  0.11314235368E+03  0.11314235368E+03  0.00000000000E+00 0. -1.
         -1   -1    0    0    0  501 -0.00000000000E+00 -0.00000000000E+00 -0.33376693459E+03  0.33376693459E+03  0.00000000000E+00 0.  1.
         23    2    1    2    0    0  0.91056061936E+02 -0.68969046258E+02  0.26174609600E+02  0.14756763107E+03  0.89683665158E+02 0.  0.
          5    1    1    2  502    0 -0.18976870429E+02  0.91546928801E+02 -0.12992582267E+03  0.16012230819E+03  0.41800000000E+01 0.  1.
         -5    1    1    2    0  502 -0.72079191507E+02 -0.22577882543E+02 -0.11687336783E+03  0.13921934900E+03  0.41800000000E+01 0.  1.
        -11    1    3    3    0    0  0.80792114747E+02 -0.48801532126E+02 -0.19694688224E+02  0.96420102091E+02  0.00000000000E+00 0.  1.
         11    1    3    3    0    0  0.10263947189E+02 -0.20167514132E+02  0.45869297824E+02  0.51147528983E+02  0.00000000000E+00 0. -1.
</event>
<event>
 7    1  0.4274778E-006  0.1333011E+03  0.7561462E-02  0.1222638E+00
          2   -1    0    0  501    0  0.00000000000E+00  0.00000000000E+00  0.34996492380E+03  0.34996492380E+03  0.00000000000E+00 0. -1.
         -2   -1    0    0    0  501 -0.00000000000E+00 -0.00000000000E+00 -0.53584822724E+02  0.53584822724E+02  0.00000000000E+00 0.  1.
         23    2    1    2    0    0  0.77076165976E+02  0.25469448842E+02  0.15875556389E+03  0.20062759577E+03  0.91971054853E+02 0.  0.
          5    1    1    2  502    0 -0.45757243703E+02 -0.76109942895E+02  0.90604200277E+02  0.12693715873E+03  0.41800000000E+01 0.  1.
         -5    1    1    2    0  502 -0.31318922273E+02  0.50640494053E+02  0.47020336907E+02  0.75984992026E+02  0.41800000000E+01 0.  1.
        -11    1    3    3    0    0 -0.11224194687E+02 -0.16727403637E+02  0.52189546012E+02  0.55942267489E+02  0.00000000000E+00 0.  1.
         11    1    3    3    0    0  0.88300360662E+02  0.42196852479E+02  0.10656601788E+03  0.14468532828E+03  0.00000000000E+00 0. -1.
</event>
<event>
 7    1  0.4274778E-006  0.1598646E+03  0.7561462E-02  0.1188850E+00
         -2   -1    0    0    0  501 -0.00000000000E+00  0.00000000000E+00  0.51232570728E+03  0.51232570728E+03  0.00000000000E+00 0.  1.
          2   -1    0    0  501    0  0.00000000000E+00 -0.00000000000E+00 -0.62774234989E+02  0.62774234989E+02  0.00000000000E+00 0. -1.
         23    2    1    2    0    0  0.62529318369E+02  0.61802557829E+02  0.18772651963E+03  0.22616472290E+03  0.90442047189E+02 0.  0.
          5    1    1    2  502    0 -0.10044179398E+03  0.23654747219E+02  0.44760857829E+02  0.11255713143E+03  0.41800000000E+01 0. -1.
         -5    1    1    2    0  502  0.37912475608E+02 -0.85457305047E+02  0.21706409483E+03  0.23637808794E+03  0.41800000000E+01 0.  1.
        -11    1    3    3    0    0  0.67582471440E+02  0.71202118317E+01  0.12872385584E+03  0.14556070529E+03  0.00000000000E+00 0.  1.
         11    1    3    3    0    0 -0.50531530711E+01  0.54682345997E+02  0.59002663796E+02  0.80604017609E+02  0.00000000000E+00 0. -1.
</event>
<event>
 7    1  0.4274778E-006  0.6557286E+02  0.7561462E-02  0.1375830E+00
          2   -1    0    0  501    0  0.00000000000E+00  0.00000000000E+00  0.30338130875E+03  0.30338130875E+03  0.00000000000E+00 0. -1.
         -2   -1    0    0    0  501 -0.00000000000E+00 -0.00000000000E+00 -0.39619798782E+02  0.39619798782E+02  0.00000000000E+00 0.  1.
         23    2    1    2    0    0 -0.13154256006E+02 -0.15473233910E+01  0.11037757603E+03  0.14463196573E+03  0.92519011882E+02 0.  0.
          5    1    1    2  502    0 -0.94270919103E+01  0.93167179907E+01 -0.19415742064E+02  0.23877075530E+02  0.41800000000E+01 0.  1.
         -5    1    1    2    0  502  0.22581347916E+02 -0.77693945997E+01  0.17279967599E+03  0.17449206626E+03  0.41800000000E+01 0.  1.
        -11    1    3    3    0    0  0.36919714126E+02  0.15593937416E+02  0.54719790974E+02  0.67826924591E+02  0.00000000000E+00 0.  1.
         11    1    3    3    0    0 -0.50073970132E+02 -0.17141260807E+02  0.55657785061E+02  0.76805041142E+02  0.00000000000E+00 0. -1.
</event>
<event>
 7    1  0.4274778E-006  0.5525035E+02  0.7561462E-02  0.1418919E+00
         -2   -1    0    0    0  501 -0.00000000000E+00  0.00000000000E+00  0.90551505045E+02  0.90551505045E+02  0.00000000000E+00 0.  1.
          2   -1    0    0  501    0  0.00000000000E+00 -0.00000000000E+00 -0.15010238764E+03  0.15010238764E+03  0.00000000000E+00 0. -1.
         23    2    1    2    0    0  0.40692990691E+01  0.19458721723E+02 -0.42957734865E+02  0.10212792986E+03  0.90496110558E+02 0.  0.
          5    1    1    2  502    0 -0.32589314135E+01 -0.26746127870E+02 -0.74849633308E+02  0.79661257813E+02  0.41800000000E+01 0. -1.
         -5    1    1    2    0  502 -0.81036765565E+00  0.72874061478E+01  0.58256485580E+02  0.58864705013E+02  0.41800000000E+01 0.  1.
        -11    1    3    3    0    0  0.96147126794E+01  0.46350270805E+02 -0.54635958868E+02  0.72290236581E+02  0.00000000000E+00 0. -1.
         11    1    3    3    0    0 -0.55454136103E+01 -0.26891549082E+02  0.11678224003E+02  0.29837693276E+02  0.00000000000E+00 0.  1.
</event>
<event>
 7    1  0.4274778E-006  0.1792784E+03  0.7561462E-02  0.1168503E+00
          1   -1    0    0  501    0  0.00000000000E+00  0.00000000000E+00  0.11505133584E+04  0.11505133584E+04  0.00000000000E+00 0.  1.
         -1   -1    0    0    0  501 -0.00000000000E+00 -0.00000000000E+00 -0.34150888449E+02  0.34150888449E+02  0.00000000000E+00 0. -1.
         23    2    1    2    0    0 -0.10926776601E+03 -0.11042904262E+03  0.70354435629E+03  0.72618782106E+03  0.90774842589E+02 0.  0.
          5    1    1    2  502    0  0.58563416001E+02 -0.50625381748E+01  0.61489265945E+02  0.85168686810E+02  0.41800000000E+01 0. -1.
         -5    1    1    2    0  502  0.50704350013E+02  0.11549158079E+03  0.35132884776E+03  0.37330773902E+03  0.41800000000E+01 0. -1.
        -11    1    3    3    0    0 -0.98885553886E+02 -0.47602371557E+02  0.53209051768E+03  0.54329058297E+03  0.00000000000E+00 0.  1.
         11    1    3    3    0    0 -0.10382212128E+02 -0.62826671061E+02  0.17145383861E+03  0.18289723809E+03  0.00000000000E+00 0. -1.
</event>
<event>
 7    1  0.4274778E-006  0.1143651E+03  0.7561462E-02  0.1252693E+00
          3   -1    0    0  501    0  0.00000000000E+00  0.00000000000E+00  0.59271581245E+02  0.59271581245E+02  0.00000000000E+00 0. -1.
         -3   -1    0    0    0  501 -0.00000000000E+00 -0.00000000000E+00 -0.27811721786E+03  0.27811721786E+03  0.00000000000E+00 0.  1.
         23    2    1    2    0    0 -0.16444799479E+02  0.45864114272E+02 -0.44631780069E+02  0.11745116162E+03  0.97102168693E+02 0.  0.
          5    1    1    2  502    0  0.22013137666E+02 -0.86165141075E+02 -0.91508100571E+02  0.12767229393E+03  0.41800000000E+01 0. -1.
         -5    1    1    2    0  502 -0.55683381862E+01  0.40301026804E+02 -0.82705755975E+02  0.92265343564E+02  0.41800000000E+01 0. -1.
        -11    1    3    3    0    0 -0.49146704243E+02  0.97926218413E+01 -0.47001002159E+02  0.68705081212E+02  0.00000000000E+00 0.  1.
         11    1    3    3    0    0  0.32701904764E+02  0.36071492430E+02  0.23692220898E+01  0.48746080403E+02  0.00000000000E+00 0. -1.
</event>
<event>
 7    1  0.4274778E-006  0.1106952E+03  0.7561462E-02  0.1259288E+00
         -2   -1    0    0    0  501 -0.00000000000E+00  0.00000000000E+00  0.35705222926E+02  0.35705222926E+02  0.00000000000E+00 0.  1.
          2   -1    0    0  501    0  0.00000000000E+00 -0.00000000000E+00 -0.38170900997E+03  0.38170900997E+03  0.00000000000E+00 0. -1.
         23    2    1    2    0    0 -0.33197363832E+02 -0.12103793679E+02 -0.19295321414E+03  0.21661357318E+03  0.91879978504E+02 0.  0.
          5    1    1    2  502    0  0.48748002262E+02 -0.44590034557E+02 -0.10777443863E+03  0.12648099039E+03  0.41800000000E+01 0. -1.
         -5    1    1    2    0  502 -0.15550638430E+02  0.56693828237E+02 -0.45276134275E+02  0.74319669339E+02  0.41800000000E+01 0. -1.
        -11    1    3    3    0    0 -0.59413088346E+02  0.12035654914E+02 -0.14236146650E+03  0.15473060202E+03  0.00000000000E+00 0. -1.
         11    1    3    3    0    0  0.26215724514E+02 -0.24139448593E+02 -0.50591747636E+02  0.61882971155E+02  0.00000000000E+00 0.  1.
</event>
<event>
 7    1  0.4274778E-006  0.1893374E+03  0.7561462E-02  0.1159060E+00
         -2   -1    0    0    0  501 -0.00000000000E+00  0.00000000000E+00  0.63910623411E+02  0.63910623411E+02  0.00000000000E+00 0.  1.
          2   -1    0    0  501    0  0.00000000000E+00 -0.00000000000E+00 -0.71536733089E+03  0.71536733089E+03  0.00000000000E+00 0. -1.
         23    2    1    2    0    0  0.13991676680E+03  0.10671607834E+03 -0.20944531982E+03  0.28735750368E+03  0.87988464702E+02 0.  0.
          5    1    1    2  502    0 -0.40157075947E+02  0.13578587980E+02 -0.19496627149E+03  0.19956524803E+03  0.41800000000E+01 0.  1.
         -5    1    1    2    0  502 -0.99759690850E+02 -0.12029466632E+03 -0.24704511618E+03  0.29235520260E+03  0.41800000000E+01 0.  1.
        -11    1    3    3    0    0  0.71661724848E+02  0.77339967067E+02 -0.62178253731E+02  0.12240510018E+03  0.00000000000E+00 0.  1.
         11    1    3    3    0    0  0.68255041948E+02  0.29376111268E+02 -0.14726706608E+03  0.16495240349E+03  0.00000000000E+00 0. -1.
</event>
<event>
 7    1  0.4274778E-006  0.1626349E+03  0.7561462E-02  0.1185754E+00
         -2   -1    0    0    0  501 -0.00000000000E+00  0.00000000000E+00  0.82079629713E+02  0.82079629713E+02  0.00000000000E+00 0.  1.
          2   -1    0    0  501    0  0.00000000000E+00 -0.00000000000E+00 -0.56882251932E+03  0.56882251932E+03  0.00000000000E+00 0. -1.
         23    2    1    2    0    0  0.13006429662E+02 -0.41030461868E+02 -0.35066847842E+03  0.36530600140E+03  0.92883943103E+02 0.  0.
          5    1    1    2  502    0  0.10683761088E+03 -0.39516464960E+01 -0.11271155457E+03  0.15540674870E+03  0.41800000000E+01 0. -1.
         -5    1    1    2    0  502 -0.11984404054E+03  0.44982108364E+02 -0.23362856617E+02  0.13018939893E+03  0.41800000000E+01 0.  1.
        -11    1    3    3    0    0  0.35825479155E+02  0.74745568791E+01 -0.64490473347E+02  0.74150894194E+02  0.00000000000E+00 0.  1.
         11    1    3    3    0    0 -0.22819049493E+02 -0.48505018748E+02 -0.28617800508E+03  0.29115510721E+03  0.00000000000E+00 0. -1.
</event>
<event>
 7    1  0.4274778E-006  0.1168139E+03  0.7561462E-02  0.1248448E+00
         -1   -1    0    0    0  501 -0.00000000000E+00  0.00000000000E+00  0.84151136831E+02  0.84151136831E+02  0.00000000000E+00 0.  1.
          1   -1    0    0  501    0  0.00000000000E+00 -0.00000000000E+00 -0.36128073128E+03  0.36128073128E+03  0.00000000000E+00 0. -1.
         23    2    1    2    0    0  0.95244959396E+02 -0.20374476221E+02 -0.26202596309E+03  0.28617507566E+03  0.61252322611E+02 0.  0.
          5    1    1    2  502    0  0.10180039517E+02  0.83367124570E+01 -0.46511412310E+02  0.48517191326E+02  0.41800000000E+01 0.  1.
         -5    1    1    2    0  502 -0.10542499891E+03  0.12037763764E+02  0.31407780952E+02  0.11073960112E+03  0.41800000000E+01 0.  1.
        -11    1    3    3    0    0  0.53528919768E+02  0.18472609132E+02 -0.15307456128E+03  0.16321275640E+03  0.00000000000E+00 0.  1.
         11    1    3    3    0    0  0.41716039629E+02 -0.38847085353E+02 -0.10895140181E+03  0.12296231927E+03  0.00000000000E+00 0. -1.
</event>
<event>
 7    1  0.1000969E-005  0.8727397E+02  0.7561462E-02  0.1309591E+00
         -1   -1    0    0    0  501 -0.00000000000E+00  0.00000000000E+00  0.14118401111E+03  0.14118401111E+03  0.00000000000E+00 0.  1.
          1   -1    0    0  501    0  0.00000000000E+00 -0.00000000000E+00 -0.75244254150E+02  0.75244254150E+02  0.00000000000E+00 0. -1.
         23    2    1    2    0    0 -0.22258849121E+02 -0.11581218785E+02  0.12230718602E+02  0.78001485772E+02  0.72835844969E+02 0.  0.
          5    1    1    2  502    0  0.35497470984E+02  0.64015460281E+02  0.32186772599E+02  0.80071907256E+02  0.41800000000E+01 0. -1.
         -5    1    1    2    0  502 -0.13238621863E+02 -0.52434241495E+02  0.21522265760E+02  0.58354872234E+02  0.41800000000E+01 0. -1.
        -11    1    3    3    0    0 -0.33390001989E+02 -0.42473721503E+01  0.36909724047E+02  0.49952578835E+02  0.00000000000E+00 0.  1.
         11    1    3    3    0    0  0.11131152868E+02 -0.73338466351E+01 -0.24679005445E+02  0.28048906937E+02  0.00000000000E+00 0. -1.
</event>
<event>
 7    1  0.4274778E-006  0.6864998E+02  0.7561462E-02  0.1364745E+00
         -2   -1    0    0    0  501 -0.00000000000E+00  0.00000000000E+00  0.11899901184E+03  0.11899901184E+03  0.00000000000E+00 0.  1.
          2   -1    0    0  501    0  0.00000000000E+00 -0.00000000000E+00 -0.16795505152E+03  0.16795505152E+03  0.00000000000E+00 0. -1.
         23    2    1    2    0    0  0.24092558513E+02  0.22488020307E+02 -0.10910388789E+03  0.14429062425E+03  0.88487080754E+02 0.  0.
          5    1    1    2  502    0  0.11009908134E+01  0.66510766204E+01 -0.37122263165E+02  0.37960292721E+02  0.41800000000E+01 0. -1.
         -5    1    1    2    0  502 -0.25193549326E+02 -0.29139096928E+02  0.97270111371E+02  0.10470314639E+03  0.41800000000E+01 0. -1.
        -11    1    3    3    0    0 -0.18460218202E+02  0.40426643901E+02 -0.33321206667E+02  0.55546341076E+02  0.00000000000E+00 0. -1.
         11    1    3    3    0    0  0.42552776715E+02 -0.17938623594E+02 -0.75782681218E+02  0.88744283169E+02  0.00000000000E+00 0.  1.
</event>
<event>
 7    1  0.4274778E-006  0.1531915E+03  0.7561462E-02  0.1196605E+00
          2   -1    0    0  501    0  0.00000000000E+00  0.00000000000E+00  0.19840819831E+03  0.19840819831E+03  0.00000000000E+00 0. -1.
         -2   -1    0    0    0  501 -0.00000000000E+00 -0.00000000000E+00 -0.26082401900E+03  0.26082401900E+03  0.00000000000E+00 0.  1.
         23    2    1    2    0    0 -0.93536195534E+02  0.60392260026E+02  0.13650174900E+03  0.19920972296E+03  0.93035161607E+02 0.  0.
          5    1    1    2  502    0  0.23155202199E+02  0.37745856293E+02 -0.36231918088E+02  0.57368435089E+02  0.41800000000E+01 0. -1.
         -5    1    1    2    0  502  0.70380993335E+02 -0.98138116319E+02 -0.16268565161E+03  0.20265405926E+03  0.41800000000E+01 0. -1.
        -11    1    3    3    0    0 -0.42195988335E+02  0.76407674164E+02  0.60898763067E+02  0.10642975827E+03  0.00000000000E+00 0.  1.
         11    1    3    3    0    0 -0.51340207199E+02 -0.16015414138E+02  0.75602985936E+02  0.92779964689E+02  0.00000000000E+00 0. -1.
</event>
<event>
 7    1  0.4274778E-006  0.1037446E+03  0.7561462E-02  0.1272613E+00
          1   -1    0    0  501    0  0.00000000000E+00  0.00000000000E+00  0.11931391417E+03  0.11931391417E+03  0.00000000000E+00 0. -1.
         -1   -1    0    0    0  501 -0.00000000000E+00 -0.00000000000E+00 -0.66232825851E+03  0.66232825851E+03  0.00000000000E+00 0.  1.
         23    2    1    2    0    0 -0.17822924638E+02 -0.31680739759E+02  0.84754789556E+02  0.14050112086E+03  0.10599936177E+03 0.  0.
          5    1    1    2  502    0  0.29451384024E+02 -0.34258144695E+02 -0.10919670919E+03  0.11824719107E+03  0.41800000000E+01 0.  1.
         -5    1    1    2    0  502 -0.11628459386E+02  0.65938884453E+02 -0.51857242471E+03  0.52289386076E+03  0.41800000000E+01 0.  1.
        -11    1    3    3    0    0 -0.53638141244E+02 -0.21610747729E+02  0.85582289968E+02  0.10328796140E+03  0.00000000000E+00 0. -1.
         11    1    3    3    0    0  0.35815216606E+02 -0.10069992030E+02 -0.82750041201E+00  0.37213159459E+02  0.00000000000E+00 0.  1.
</event>
<event>
 7    1  0.4274778E-006  0.2356203E+03  0.7561462E-02  0.1122745E+00
          3   -1    0    0  501    0  0.00000000000E+00  0.00000000000E+00  0.69834871991E+03  0.69834871991E+03  0.00000000000E+00 0. -1.
         -3   -1    0    0    0  501 -0.00000000000E+00 -0.00000000000E+00 -0.11845885631E+03  0.11845885631E+03  0.00000000000E+00 0.  1.
         23    2    1    2    0    0  0.21200657567E+03  0.80208626291E+02  0.48125691341E+03  0.53974651858E+03  0.91311969420E+02 0.  0.
          5    1    1    2  502    0 -0.40304310677E+01 -0.23515088960E+02  0.50704424327E+02  0.56192658148E+02  0.41800000000E+01 0.  1.
         -5    1    1    2    0  502 -0.20797614460E+03 -0.56693537331E+02  0.47928525863E+02  0.22086839948E+03  0.41800000000E+01 0.  1.
        -11    1    3    3    0    0  0.36921190544E+02  0.34334265606E+02  0.19216911185E+03  0.19867305719E+03  0.00000000000E+00 0.  1.
         11    1    3    3    0    0  0.17508538513E+03  0.45874360684E+02  0.28908780156E+03  0.34107346139E+03  0.00000000000E+00 0. -1.
</event>
<event>
 7    1  0.4274778E-006  0.1170459E+03  0.7561462E-02  0.1248051E+00
         -1   -1    0    0    0  501 -0.00000000000E+00  0.00000000000E+00  0.16805320601E+02  0.16805320601E+02  0.00000000000E+00 0.  1.
          1   -1    0    0  501    0  0.00000000000E+00 -0.00000000000E+00 -0.90841135556E+03  0.90841135556E+03  0.00000000000E+00 0. -1.
         23    2    1    2    0    0  0.50808981539E+02  0.21861187398E+02 -0.51083074530E+03  0.52062171516E+03  0.83901465024E+02 0.  0.
          5    1    1    2  502    0 -0.17812480733E+02 -0.72966746504E+02 -0.19173916505E+03  0.20596798387E+03  0.41800000000E+01 0. -1.
         -5    1    1    2    0  502 -0.32996500806E+02  0.51105559106E+02 -0.18903612461E+03  0.19862697713E+03  0.41800000000E+01 0. -1.
        -11    1    3    3    0    0 -0.78137309535E+01 -0.22859160129E+02 -0.81477550372E+02  0.84983450200E+02  0.00000000000E+00 0.  1.
         11    1    3    3    0    0  0.58622712492E+02  0.44720347527E+02 -0.42935319493E+03  0.43563826496E+03  0.00000000000E+00 0. -1.
</event>
<event>
 7    1  0.4274778E-006  0.7813203E+02  0.7561462E-02  0.1334438E+00
          1   -1    0    0  501    0  0.00000000000E+00  0.00000000000E+00  0.13360336586E+03  0.13360336586E+03  0.00000000000E+00 0. -1.
         -1   -1    0    0    0  501 -0.00000000000E+00 -0.00000000000E+00 -0.11339258375E+03  0.11339258375E+03  0.00000000000E+00 0.  1.
         23    2    1    2    0    0  0.34970795990E+00 -0.28155035372E+02 -0.40561065739E+01  0.92226253890E+02  0.87729137654E+02 0.  0.
          5    1    1    2  502    0 -0.49517748622E+02  0.21617819862E+01  0.67750168092E+02  0.84049023828E+02  0.41800000000E+01 0. -1.
         -5    1    1    2    0  502  0.49168040662E+02  0.25993253385E+02 -0.43483279408E+02  0.70720671888E+02  0.41800000000E+01 0.  1.
        -11    1    3    3    0    0 -0.12297509606E+02  0.64643729810E+01 -0.39022378757E+02  0.41421768485E+02  0.00000000000E+00 0.  1.
         11    1    3    3    0    0  0.12647217566E+02 -0.34619408353E+02  0.34966272183E+02  0.50804485405E+02  0.00000000000E+00 0. -1.
</event>
<event>
 7    1  0.4274778E-006  0.1396807E+03  0.7561462E-02  0.1213759E+00
          2   -1    0    0  501    0  0.00000000000E+00  0.00000000000E+00  0.22174246949E+03  0.22174246949E+03  0.00000000000E+00 0. -1.
         -2   -1    0    0    0  501 -0.00000000000E+00 -0.00000000000E+00 -0.11870850589E+03  0.11870850589E+03  0.00000000000E+00 0.  1.
         23    2    1    2    0    0 -0.80174920725E+02 -0.73188630305E+02  0.11152202148E+03  0.17460926255E+03  0.79162110733E+02 0.  0.
          5    1    1    2  502    0  0.24080122497E+02 -0.31263761070E+02  0.19100350024E+02  0.44040558883E+02  0.41800000000E+01 0. -1.
         -5    1    1    2    0  502  0.56094798227E+02  0.10445239137E+03 -0.27588407901E+02  0.12180115395E+03  0.41800000000E+01 0. -1.
        -11    1    3    3    0    0  0.75777969706E+01 -0.11516599382E+02  0.48029041713E+02  0.49968429194E+02  0.00000000000E+00 0. -1.
         11    1    3    3    0    0 -0.87752717695E+02 -0.61672030923E+02  0.63492979766E+02  0.12464083336E+03  0.00000000000E+00 0.  1.
</event>
<event>
 7    1  0.4274778E-006  0.6401407E+02  0.7561462E-02  0.1381719E+00
          1   -1    0    0  501    0  0.00000000000E+00  0.00000000000E+00  0.10143095341E+03  0.10143095341E+03  0.00000000000E+00 0. -1.
         -1   -1    0    0    0  501 -0.00000000000E+00 -0.00000000000E+00 -0.16160048329E+03  0.16160048329E+03  0.00000000000E+00 0.  1.
         23    2    1    2    0    0  0.11383147143E+02 -0.10312248290E+02  0.42515310566E+02  0.10046649805E+03  0.89722054666E+02 0.  0.
          5    1    1    2  502    0  0.16537459522E+02 -0.55296141906E+00 -0.12424876742E+03  0.12541539753E+03  0.41800000000E+01 0.  1.
         -5    1    1    2    0  502 -0.27920606665E+02  0.10865209709E+02  0.21563926976E+02  0.37149541117E+02  0.41800000000E+01 0.  1.
        -11    1    3    3    0    0 -0.31209095426E+02 -0.19952041782E+02 -0.32809608047E+01  0.37186776042E+02  0.00000000000E+00 0.  1.
         11    1    3    3    0    0  0.42592242568E+02  0.96397934921E+01  0.45796271370E+02  0.63279722005E+02  0.00000000000E+00 0. -1.
</event>
<event>
 7    1  0.4274778E-006  0.1068263E+03  0.7561462E-02  0.1266563E+00
          4   -1    0    0  501    0  0.00000000000E+00  0.00000000000E+00  0.19517417668E+03  0.19517417668E+03  0.00000000000E+00 0. -1.
         -4   -1    0    0    0  501 -0.00000000000E+00 -0.00000000000E+00 -0.83349208541E+02  0.83349208541E+02  0.00000000000E+00 0.  1.
         23    2    1    2    0    0  0.48251385859E+02  0.24864579814E+02  0.89345026098E+02  0.14032397588E+03  0.93604705825E+02 0.  0.
          5    1    1    2  502    0 -0.62119319693E+02  0.33447761635E+02 -0.74610850082E+01  0.71068296919E+02  0.41800000000E+01 0. -1.
         -5    1    1    2    0  502  0.13867933834E+02 -0.58312341449E+02  0.29941027052E+02  0.67131112422E+02  0.41800000000E+01 0. -1.
        -11    1    3    3    0    0  0.43374648128E+02 -0.12556226748E+02  0.20279073101E+01  0.45201010370E+02  0.00000000000E+00 0.  1.
         11    1    3    3    0    0  0.48767377312E+01  0.37420806562E+02  0.87317118788E+02  0.95122965514E+02  0.00000000000E+00 0. -1.
</event>
<event>
 7    1  0.4274778E-006  0.1116784E+03  0.7561462E-02  0.1257493E+00
          2   -1    0    0  501    0  0.00000000000E+00  0.00000000000E+00  0.89760743895E+02  0.89760743895E+02  0.00000000000E+00 0.  1.
         -2   -1    0    0    0  501 -0.00000000000E+00 -0.00000000000E+00 -0.18060524590E+03  0.18060524590E+03  0.00000000000E+00 0. -1.
         23    2    1    2    0    0  0.35502939027E+02  0.51550068896E+02 -0.87448235147E+01  0.10817580974E+03  0.87793311768E+02 0.  0.
          5    1    1    2  502    0  0.31383545850E+02 -0.54517359690E+02 -0.69680531356E+02  0.93967645004E+02  0.41800000000E+01 0.  1.
         -5    1    1    2    0  502 -0.66886484877E+02  0.29672907937E+01 -0.12419147135E+02  0.68222535056E+02  0.41800000000E+01 0.  1.
        -11    1    3    3    0    0  0.16750462706E+02  0.66919487788E+02 -0.30662461411E+02  0.75491604741E+02  0.00000000000E+00 0. -1.
         11    1    3    3    0    0  0.18752476321E+02 -0.15369418892E+02  0.21917637896E+02  0.32684204995E+02  0.00000000000E+00 0.  1.
</event>
<event>
 7    1  0.4274778E-006  0.1412479E+03  0.7561462E-02  0.1211660E+00
         -2   -1    0    0    0  501 -0.00000000000E+00  0.00000000000E+00  0.11722602955E+03  0.11722602955E+03  0.00000000000E+00 0.  1.
          2   -1    0    0  501    0  0.00000000000E+00 -0.00000000000E+00 -0.20762912793E+03  0.20762912793E+03  0.00000000000E+00 0. -1.
         23    2    1    2    0    0  0.97117351690E+02  0.22656207272E+02 -0.86573478350E+02  0.16483326931E+03  0.98640538264E+02 0.  0.
          5    1    1    2  502    0  0.10108028426E+02 -0.36802705769E+02  0.27635838882E+02  0.47305637944E+02  0.41800000000E+01 0. -1.
         -5    1    1    2    0  502 -0.10722538012E+03  0.14146498497E+02 -0.31465458915E+02  0.11271625023E+03  0.41800000000E+01 0. -1.
        -11    1    3    3    0    0  0.60180585873E+02 -0.33329950839E+02 -0.23319655555E+02  0.72638797306E+02  0.00000000000E+00 0.  1.
         11    1    3    3    0    0  0.36936765818E+02  0.55986158110E+02 -0.63253822795E+02  0.92194471999E+02  0.00000000000E+00 0. -1.
</event>
<event>
 7    1  0.4274778E-006  0.1515587E+03  0.7561462E-02  0.1198571E+00
          2   -1    0    0  501    0  0.00000000000E+00  0.00000000000E+00  0.23189107711E+03  0.23189107711E+03  0.00000000000E+00 0. -1.
         -2   -1    0    0    0  501 -0.00000000000E+00 -0.00000000000E+00 -0.10839132217E+03  0.10839132217E+03  0.00000000000E+00 0.  1.
         23    2    1    2    0    0 -0.10618464320E+03  0.45735154191E+02  0.43892946828E+02  0.15226295817E+03  0.88828682692E+02 0.  0.
          5    1    1    2  502    0  0.15792301421E+01  0.36705817816E+02  0.14588535580E+02  0.39750582383E+02  0.41800000000E+01 0.  1.
         -5    1    1    2    0  502  0.10460541306E+03 -0.82440972008E+02  0.65018272529E+02  0.14826885873E+03  0.41800000000E+01 0.  1.
        -11    1    3    3    0    0 -0.99703164779E+01 -0.15796972978E+02 -0.14822031439E+02  0.23846261383E+02  0.00000000000E+00 0.  1.
         11    1    3    3    0    0 -0.96214326723E+02  0.61532127169E+02  0.58714978267E+02  0.12841669679E+03  0.00000000000E+00 0. -1.
</event>
<event>
 7    1  0.4274778E-006  0.4830223E+02  0.7561462E-02  0.1454720E+00
         -1   -1    0    0    0  501 -0.00000000000E+00  0.00000000000E+00  0.54547642660E+02  0.54547642660E+02  0.00000000000E+00 0.  1.
          1   -1    0    0  501    0  0.00000000000E+00 -0.00000000000E+00 -0.22545619358E+03  0.22545619358E+03  0.00000000000E+00 0. -1.
         23    2    1    2    0    0  0.23158170644E+02  0.45561468978E+01 -0.62655769804E+02  0.11289887295E+03  0.90902973999E+02 0.  0.
          5    1    1    2  502    0 -0.19039892895E+02 -0.24158115230E+02  0.20198048218E+02  0.37034654106E+02  0.41800000000E+01 0. -1.
         -5    1    1    2    0  502 -0.41182777491E+01  0.19601968333E+02 -0.12845082933E+03  0.13007030918E+03  0.41800000000E+01 0. -1.
        -11    1    3    3    0    0  0.15995556450E+02 -0.16427521442E+02  0.18063824229E+02  0.29189433579E+02  0.00000000000E+00 0.  1.
         11    1    3    3    0    0  0.71626141942E+01  0.20983668340E+02 -0.80719594034E+02  0.83709439372E+02  0.00000000000E+00 0. -1.
</event>
<event>
 7    1  0.4274778E-006  0.1484538E+03  0.7561462E-02  0.1202386E+00
          1   -1    0    0  501    0  0.00000000000E+00  0.00000000000E+00  0.82320500386E+03  0.82320500386E+03  0.00000000000E+00 0. -1.
         -1   -1    0    0    0  501 -0.00000000000E+00 -0.00000000000E+00 -0.35854261622E+02  0.35854261622E+02  0.00000000000E+00 0.  1.
         23    2    1    2    0    0 -0.72413978139E+02 -0.11088301664E+03  0.40571777922E+03  0.43617849429E+03  0.90032965638E+02 0.  0.
          5    1    1    2  502    0  0.10356080577E+01  0.87426118317E+02  0.10761774171E+03  0.13872076045E+03  0.41800000000E+01 0. -1.
         -5    1    1    2    0  502  0.71378370082E+02  0.23456898327E+02  0.27401522131E+03  0.28416001074E+03  0.41800000000E+01 0. -1.
        -11    1    3    3    0    0 -0.55434610131E+02 -0.66318266710E+02  0.12835268269E+03  0.15474339939E+03  0.00000000000E+00 0.  1.
         11    1    3    3    0    0 -0.16979368008E+02 -0.44564749934E+02  0.27736509652E+03  0.28143509490E+03  0.00000000000E+00 0. -1.
</event>
<event>
 7    1  0.4274778E-006  0.1870771E+03  0.7561462E-02  0.1161124E+00
         -2   -1    0    0    0  501 -0.00000000000E+00  0.00000000000E+00  0.65805784860E+03  0.65805784860E+03  0.00000000000E+00 0.  1.
          2   -1    0    0  501    0  0.00000000000E+00 -0.00000000000E+00 -0.74636105615E+02  0.74636105615E+02  0.00000000000E+00 0. -1.
         23    2    1    2    0    0  0.95356238981E+02 -0.13616209998E+03  0.12206114302E+03  0.22659723320E+03  0.93885321945E+02 0.  0.
          5    1    1    2  502    0 -0.50220991605E+02 -0.12983799619E+02  0.12295200064E+03  0.13351177443E+03  0.41800000000E+01 0. -1.
         -5    1    1    2    0  502 -0.45135247376E+02  0.14914589959E+03  0.33840859932E+03  0.37258494658E+03  0.41800000000E+01 0. -1.
        -11    1    3    3    0    0  0.19855549391E+02 -0.28099650954E+02  0.81830906285E+02  0.88770098844E+02  0.00000000000E+00 0.  1.
         11    1    3    3    0    0  0.75500689590E+02 -0.10806244902E+03  0.40230236731E+02  0.13782713436E+03  0.00000000000E+00 0. -1.
</event>
<event>
 7    1  0.4274778E-006  0.6863715E+02  0.7561462E-02  0.1364790E+00
         -2   -1    0    0    0  501 -0.00000000000E+00  0.00000000000E+00  0.10283053353E+03  0.10283053353E+03  0.00000000000E+00 0.  1.
          2   -1    0    0  501    0  0.00000000000E+00 -0.00000000000E+00 -0.13911941256E+03  0.13911941256E+03  0.00000000000E+00 0. -1.
         23    2    1    2    0    0  0.34784336483E+02 -0.19493112120E+02 -0.50990851277E+02  0.10984676257E+03  0.88748593501E+02 0.  0.
          5    1    1    2  502    0 -0.18250986601E+02  0.41979141693E+02  0.61906770281E+02  0.77105560473E+02  0.41800000000E+01 0. -1.
         -5    1    1    2    0  502 -0.16533349882E+02 -0.22486029573E+02 -0.47204798029E+02  0.54997623051E+02  0.41800000000E+01 0. -1.
        -11    1    3    3    0    0 -0.10603310365E+02  0.47641135530E+01 -0.56872788624E+02  0.58048609410E+02  0.00000000000E+00 0. -1.
         11    1    3    3    0    0  0.45387646848E+02 -0.24257225673E+02  0.58819373465E+01  0.51798153159E+02  0.00000000000E+00 0.  1.
</event>
<event>
 7    1  0.4274778E-006  0.1316486E+03  0.7561462E-02  0.1225030E+00
         -2   -1    0    0    0  501 -0.00000000000E+00  0.00000000000E+00  0.13325386020E+03  0.13325386020E+03  0.00000000000E+00 0.  1.
          2   -1    0    0  501    0  0.00000000000E+00 -0.00000000000E+00 -0.19324110276E+03  0.19324110276E+03  0.00000000000E+00 0. -1.
         23    2    1    2    0    0 -0.48680063271E+02  0.10488781764E+03 -0.53900521935E+02  0.15603686699E+03  0.89838937792E+02 0.  0.
          5    1    1    2  502    0  0.26269968756E+01 -0.16520451768E+02  0.52176449329E+02  0.54951621485E+02  0.41800000000E+01 0. -1.
         -5    1    1    2    0  502  0.46053066396E+02 -0.88367365876E+02 -0.58263169952E+02  0.11550647449E+03  0.41800000000E+01 0. -1.
        -11    1    3    3    0    0 -0.65664228277E+02  0.35024141520E+02 -0.30467312658E+02  0.80416033880E+02  0.00000000000E+00 0. -1.
         11    1    3    3    0    0  0.16984165006E+02  0.69863676125E+02 -0.23433209277E+02  0.75620833106E+02  0.00000000000E+00 0.  1.
</event>
<event>
 7    1  0.4274778E-006  0.1406455E+03  0.7561462E-02  0.1212463E+00
         -1   -1    0    0    0  501 -0.00000000000E+00  0.00000000000E+00  0.66088988662E+02  0.66088988662E+02  0.00000000000E+00 0.  1.
          1   -1    0    0  501    0  0.00000000000E+00 -0.00000000000E+00 -0.33597923376E+03  0.33597923376E+03  0.00000000000E+00 0. -1.
         23    2    1    2    0    0  0.49386628216E+02  0.75852383778E+02 -0.18892887493E+03  0.22773429460E+03  0.89309383512E+02 0.  0.
          5    1    1    2  502    0 -0.47382899375E+01  0.34583862099E+02 -0.20204940212E+02  0.40548821416E+02  0.41800000000E+01 0.  1.
         -5    1    1    2    0  502 -0.44648338278E+02 -0.11043624588E+03 -0.60756429951E+02  0.13378510640E+03  0.41800000000E+01 0.  1.
        -11    1    3    3    0    0 -0.26152735053E+02  0.17152824893E+02 -0.52423390199E+02  0.61044219976E+02  0.00000000000E+00 0. -1.
         11    1    3    3    0    0  0.75539363269E+02  0.58699558886E+02 -0.13650548473E+03  0.16669007463E+03  0.00000000000E+00 0.  1.
</event>
<event>
 7    1  0.4274778E-006  0.1678095E+03  0.7561462E-02  0.1180152E+00
         -1   -1    0    0    0  501 -0.00000000000E+00  0.00000000000E+00  0.75668490525E+02  0.75668490525E+02  0.00000000000E+00 0.  1.
          1   -1    0    0  501    0  0.00000000000E+00 -0.00000000000E+00 -0.57090545341E+03  0.57090545341E+03  0.00000000000E+00 0. -1.
         23    2    1    2    0    0 -0.13612365260E+03 -0.78716496922E+02 -0.36630925292E+03  0.40782939934E+03  0.86118607202E+02 0.  0.
          5    1    1    2  502    0  0.12458005430E+03  0.90805346119E+02 -0.14750766109E+03  0.21340520915E+03  0.41800000000E+01 0. -1.
         -5    1    1    2    0  502  0.11543598303E+02 -0.12088849197E+02  0.18579951125E+02  0.25339335439E+02  0.41800000000E+01 0. -1.
        -11    1    3    3    0    0 -0.26182843363E+02  0.41345567082E+01 -0.14346073362E+03  0.14588906038E+03  0.00000000000E+00 0. -1.
         11    1    3    3    0    0 -0.10994080924E+03 -0.82851053631E+02 -0.22284851929E+03  0.26194033896E+03  0.00000000000E+00 0.  1.
</event>
<event>
 7    1  0.4274778E-006  0.1554511E+03  0.7561462E-02  0.1193930E+00
          2   -1    0    0  501    0  0.00000000000E+00  0.00000000000E+00  0.38030339235E+03  0.38030339235E+03  0.00000000000E+00 0. -1.
         -2   -1    0    0    0  501 -0.00000000000E+00 -0.00000000000E+00 -0.78446492525E+02  0.78446492525E+02  0.00000000000E+00 0.  1.
         23    2    1    2    0    0 -0.38563550520E+02  0.73961251208E+02  0.95871510524E+02  0.15625364793E+03  0.90919974998E+02 0.  0.
          5    1    1    2  502    0 -0.67579722633E+02 -0.41187423713E+02  0.16672158037E+03  0.18459951393E+03  0.41800000000E+01 0. -1.
         -5    1    1    2    0  502  0.10614327315E+03 -0.32773827495E+02  0.39263808934E+02  0.11789672301E+03  0.41800000000E+01 0.  1.
        -11    1    3    3    0    0 -0.41802809196E+02  0.92582670390E+02  0.91804417794E+02  0.13691996509E+03  0.00000000000E+00 0.  1.
         11    1    3    3    0    0  0.32392586764E+01 -0.18621419182E+02  0.40670927305E+01  0.19333682846E+02  0.00000000000E+00 0. -1.
</event>
<event>
 7    1  0.4274778E-006  0.6491184E+02  0.7561462E-02  0.1378303E+00
         -1   -1    0    0    0  501 -0.00000000000E+00  0.00000000000E+00  0.17400525217E+03  0.17400525217E+03  0.00000000000E+00 0.  1.
          1   -1    0    0  501    0  0.00000000000E+00 -0.00000000000E+00 -0.84950112923E+02  0.84950112923E+02  0.00000000000E+00 0. -1.
         23    2    1    2    0    0 -0.28076338427E+02 -0.29162093989E+02 -0.11303487817E+01  0.99521493009E+02  0.90909523028E+02 0.  0.
          5    1    1    2  502    0  0.18465116591E+02 -0.13623747482E+02  0.10904789490E+03  0.11151449596E+03  0.41800000000E+01 0.  1.
         -5    1    1    2    0  502  0.96112218354E+01  0.42785841471E+02 -0.18862406871E+02  0.47919376128E+02  0.41800000000E+01 0.  1.
        -11    1    3    3    0    0 -0.36080981749E+02 -0.43084433192E+01 -0.39140049354E+02  0.53407334620E+02  0.00000000000E+00 0. -1.
         11    1    3    3    0    0  0.80046433227E+01 -0.24853650670E+02  0.38009700572E+02  0.46114158389E+02  0.00000000000E+00 0.  1.
</event>
<event>
 7    1  0.4274778E-006  0.1631250E+03  0.7561462E-02  0.1185213E+00
         -2   -1    0    0    0  501 -0.00000000000E+00  0.00000000000E+00  0.26455844575E+02  0.26455844575E+02  0.00000000000E+00 0.  1.
          2   -1    0    0  501    0  0.00000000000E+00 -0.00000000000E+00 -0.17679435512E+04  0.17679435512E+04  0.00000000000E+00 0. -1.
         23    2    1    2    0    0 -0.32006112992E+02 -0.14716695323E+03 -0.36396309306E+03  0.40422021767E+03  0.90787377300E+02 0.  0.
          5    1    1    2  502    0  0.30755237484E+02  0.11122757547E+03 -0.12940462162E+04  0.12991884160E+04  0.41800000000E+01 0. -1.
         -5    1    1    2    0  502  0.12508755074E+01  0.35939377756E+02 -0.83478397394E+02  0.90990762138E+02  0.41800000000E+01 0.  1.
        -11    1    3    3    0    0 -0.24929585237E+02  0.22080686566E+01 -0.71290716851E+02  0.75556112237E+02  0.00000000000E+00 0. -1.
         11    1    3    3    0    0 -0.70765277549E+01 -0.14937502188E+03 -0.29267237621E+03  0.32866410544E+03  0.00000000000E+00 0.  1.
</event>
<event>
 7    1  0.4274778E-006  0.1927270E+03  0.7561462E-02  0.1156025E+00
         -2   -1    0    0    0  501 -0.00000000000E+00  0.00000000000E+00  0.14185748636E+03  0.14185748636E+03  0.00000000000E+00 0.  1.
          2   -1    0    0  501    0  0.00000000000E+00 -0.00000000000E+00 -0.27879723725E+03  0.27879723725E+03  0.00000000000E+00 0. -1.
         23    2    1    2    0    0  0.35446615542E+02  0.15770794993E+03 -0.20367475096E+02  0.18648996754E+03  0.90749181416E+02 0.  0.
          5    1    1    2  502    0  0.38526444879E+01  0.19110001274E+02 -0.22342694548E+02  0.29945006560E+02  0.41800000000E+01 0. -1.
         -5    1    1    2    0  502 -0.39299260030E+02 -0.17681795120E+03 -0.94229581249E+02  0.20421974950E+03  0.41800000000E+01 0.  1.
        -11    1    3    3    0    0 -0.25596200119E+02  0.16381477896E+02 -0.10783062063E+02  0.32245816877E+02  0.00000000000E+00 0.  1.
         11    1    3    3    0    0  0.61042815661E+02  0.14132647203E+03 -0.95844130329E+01  0.15424415066E+03  0.00000000000E+00 0. -1.
</event>
<event>
 7    1  0.4274778E-006  0.1342076E+03  0.7561462E-02  0.1221343E+00
          1   -1    0    0  501    0  0.00000000000E+00  0.00000000000E+00  0.18757059250E+03  0.18757059250E+03  0.00000000000E+00 0. -1.
         -1   -1    0    0    0  501 -0.00000000000E+00 -0.00000000000E+00 -0.12102050851E+03  0.12102050851E+03  0.00000000000E+00 0.  1.
         23    2    1    2    0    0  0.10370453649E+03 -0.13916526709E+02  0.36162194501E+02  0.14270141793E+03  0.90042710771E+02 0.  0.
          5    1    1    2  502    0 -0.11930874738E+03 -0.18655347521E+01 -0.97924471604E+01  0.11979742002E+03  0.41800000000E+01 0. -1.
         -5    1    1    2    0  502  0.15604210890E+02  0.15782061461E+02  0.40180336650E+02  0.46092263068E+02  0.41800000000E+01 0. -1.
        -11    1    3    3    0    0  0.79467587856E+02  0.22589217460E+02  0.50220808079E+02  0.96682469089E+02  0.00000000000E+00 0. -1.
         11    1    3    3    0    0  0.24236948633E+02 -0.36505744169E+02 -0.14058613577E+02  0.46018948837E+02  0.00000000000E+00 0.  1.
</event>
<event>
 7    1  0.4274778E-006  0.2004080E+03  0.7561462E-02  0.1149395E+00
         -2   -1    0    0    0  501 -0.00000000000E+00  0.00000000000E+00  0.59770487655E+02  0.59770487655E+02  0.00000000000E+00 0.  1.
          2   -1    0    0  501    0  0.00000000000E+00 -0.00000000000E+00 -0.75818708542E+03  0.75818708542E+03  0.00000000000E+00 0. -1.
         23    2    1    2    0    0 -0.18200945796E+03 -0.44207416864E+01 -0.36161172523E+03  0.41517731628E+03  0.91990099392E+02 0.  0.
          5    1    1    2  502    0  0.30520688747E+01  0.28414296917E+02 -0.12280435063E+02  0.31384213851E+02  0.41800000000E+01 0. -1.
         -5    1    1    2    0  502  0.17895738908E+03 -0.23993555230E+02 -0.32452443748E+03  0.37139604295E+03  0.41800000000E+01 0. -1.
        -11    1    3    3    0    0 -0.97677146151E+02  0.26985971393E+02 -0.26210995637E+03  0.28101725349E+03  0.00000000000E+00 0. -1.
         11    1    3    3    0    0 -0.84332311804E+02 -0.31406713079E+02 -0.99501768863E+02  0.13416006279E+03  0.00000000000E+00 0.  1.
</event>
<event>
 7    1  0.4274778E-006  0.9687443E+02  0.7561462E-02  0.1287009E+00
         -4   -1    0    0    0  501 -0.00000000000E+00  0.00000000000E+00  0.65290752254E+02  0.65290752254E+02  0.00000000000E+00 0.  1.
          4   -1    0    0  501    0  0.00000000000E+00 -0.00000000000E+00 -0.24712643604E+03  0.24712643604E+03  0.00000000000E+00 0. -1.
         23    2    1    2    0    0 -0.18278179451E+02  0.45922617727E+02 -0.13411111163E+03  0.16970026741E+03  0.91484489579E+02 0.  0.
          5    1    1    2  502    0  0.56621456794E+02 -0.29214095483E+01  0.13616239382E+02  0.58458518440E+02  0.41800000000E+01 0. -1.
         -5    1    1    2    0  502 -0.38343277343E+02 -0.43001208179E+02 -0.61340811542E+02  0.84258402447E+02  0.41800000000E+01 0. -1.
        -11    1    3    3    0    0 -0.33790713624E+02  0.35096313915E+01 -0.68400144872E+01  0.34654229726E+02  0.00000000000E+00 0.  1.
         11    1    3    3    0    0  0.15512534173E+02  0.42412986335E+02 -0.12727109714E+03  0.13504603768E+03  0.00000000000E+00 0. -1.
</event>
<event>
 7    1  0.4274778E-006  0.1447764E+03  0.7561462E-02  0.1207043E+00
         -2   -1    0    0    0  501 -0.00000000000E+00  0.00000000000E+00  0.38425987132E+02  0.38425987132E+02  0.00000000000E+00 0.  1.
          2   -1    0    0  501    0  0.00000000000E+00 -0.00000000000E+00 -0.65514311493E+03  0.65514311493E+03  0.00000000000E+00 0. -1.
         23    2    1    2    0    0  0.11412038986E+03  0.21536216101E+02 -0.27404754410E+03  0.31074262137E+03  0.89284087731E+02 0.  0.
          5    1    1    2  502    0  0.18930427392E+02 -0.31712454329E+02 -0.72741837178E+02  0.81687747655E+02  0.41800000000E+01 0.  1.
         -5    1    1    2    0  502 -0.13305081725E+03  0.10176238228E+02 -0.26992774651E+03  0.30113873303E+03  0.41800000000E+01 0.  1.
        -11    1    3    3    0    0  0.92929018324E+02  0.27413338049E+02 -0.27190010895E+03  0.28864677860E+03  0.00000000000E+00 0.  1.
         11    1    3    3    0    0  0.21191371533E+02 -0.58771219482E+01 -0.21474351504E+01  0.22095842767E+02  0.00000000000E+00 0. -1.
</event>
<event>
 7    1  0.4274778E-006  0.7209500E+02  0.7561462E-02  0.1353110E+00
         -1   -1    0    0    0  501 -0.00000000000E+00  0.00000000000E+00  0.23931538552E+03  0.23931538552E+03  0.00000000000E+00 0.  1.
          1   -1    0    0  501    0  0.00000000000E+00 -0.00000000000E+00 -0.60486191060E+02  0.60486191060E+02  0.00000000000E+00 0. -1.
         23    2    1    2    0    0  0.19108230336E+02  0.20503680173E+02  0.23530864877E+02  0.98431811298E+02  0.91376115623E+02 0.  0.
          5    1    1    2  502    0  0.15070015854E+02 -0.39118640467E+02  0.95435202201E+00  0.42139727070E+02  0.41800000000E+01 0.  1.
         -5    1    1    2    0  502 -0.34178246189E+02  0.18614960294E+02  0.15434397756E+03  0.15923003821E+03  0.41800000000E+01 0.  1.
        -11    1    3    3    0    0  0.24838439592E+02  0.37501263352E+02  0.49490678793E+02  0.66877650390E+02  0.00000000000E+00 0.  1.
         11    1    3    3    0    0 -0.57302092560E+01 -0.16997583179E+02 -0.25959813916E+02  0.31554160908E+02  0.00000000000E+00 0. -1.
</event>
<event>
 7    1  0.4274778E-006  0.1331337E+03  0.7561462E-02  0.1222879E+00
         -1   -1    0    0    0  501 -0.00000000000E+00  0.00000000000E+00  0.99207274985E+02  0.99207274985E+02  0.00000000000E+00 0.  1.
          1   -1    0    0  501    0  0.00000000000E+00 -0.00000000000E+00 -0.20305066510E+03  0.20305066510E+03  0.00000000000E+00 0. -1.
         23    2    1    2    0    0  0.84245617569E+02  0.35237100512E+02 -0.50883632224E+02  0.13874703861E+03  0.91228391202E+02 0.  0.
          5    1    1    2  502    0 -0.45492183468E+02  0.34545426816E+02  0.14315486922E+02  0.59036690595E+02  0.41800000000E+01 0.  1.
         -5    1    1    2    0  502 -0.38753434101E+02 -0.69782527328E+02 -0.67275244808E+02  0.10447421088E+03  0.41800000000E+01 0.  1.
        -11    1    3    3    0    0  0.21463641010E+02 -0.31060592056E+02 -0.13841650816E+02  0.40212430436E+02  0.00000000000E+00 0.  1.
         11    1    3    3    0    0  0.62781976559E+02  0.66297692568E+02 -0.37041981408E+02  0.98534608170E+02  0.00000000000E+00 0. -1.
</event>
<event>
 7    1  0.4274778E-006  0.8736276E+02  0.7561462E-02  0.1309367E+00
         -2   -1    0    0    0  501 -0.00000000000E+00  0.00000000000E+00  0.82078160334E+02  0.82078160334E+02  0.00000000000E+00 0.  1.
          2   -1    0    0  501    0  0.00000000000E+00 -0.00000000000E+00 -0.19434855430E+03  0.19434855430E+03  0.00000000000E+00 0. -1.
         23    2    1    2    0    0 -0.10421030360E+02  0.51188588175E+02 -0.90300977990E+02  0.13909927513E+03  0.92008001186E+02 0.  0.
          5    1    1    2  502    0 -0.73795859875E+01 -0.72804186461E+02  0.29158966871E+02  0.78883620635E+02  0.41800000000E+01 0.  1.
         -5    1    1    2    0  502  0.17800616347E+02  0.21615598286E+02 -0.51128382842E+02  0.58443818866E+02  0.41800000000E+01 0.  1.
        -11    1    3    3    0    0 -0.30722834546E+02  0.22998623261E+02  0.40168844248E+01  0.38587103998E+02  0.00000000000E+00 0.  1.
         11    1    3    3    0    0  0.20301804186E+02  0.28189964913E+02 -0.94317862415E+02  0.10051217113E+03  0.00000000000E+00 0. -1.
</event>
<event>
 7    1  0.4274778E-006  0.7383489E+02  0.7561462E-02  0.1347517E+00
          1   -1    0    0  501    0  0.00000000000E+00  0.00000000000E+00  0.28588202938E+02  0.28588202938E+02  0.00000000000E+00 0. -1.
         -1   -1    0    0    0  501 -0.00000000000E+00 -0.00000000000E+00 -0.50551845430E+03  0.50551845430E+03  0.00000000000E+00 0.  1.
         23    2    1    2    0    0 -0.29635790822E+02  0.37577195177E+02 -0.16174525766E+03  0.19164752752E+03  0.90977583695E+02 0.  0.
          5    1    1    2  502    0  0.40352594462E+02 -0.42772057984E+02 -0.50934831809E+02  0.77907703826E+02  0.41800000000E+01 0. -1.
         -5    1    1    2    0  502 -0.10716803640E+02  0.51948628063E+01 -0.26425016189E+03  0.26455142588E+03  0.41800000000E+01 0. -1.
        -11    1    3    3    0    0  0.18256431494E+02  0.11270934556E+02 -0.12252040184E+03  0.12438480664E+03  0.00000000000E+00 0.  1.
         11    1    3    3    0    0 -0.47892222316E+02  0.26306260621E+02 -0.39224855825E+02  0.67262720883E+02  0.00000000000E+00 0. -1.
</event>
<event>
 7    1  0.4274778E-006  0.1157201E+03  0.7561462E-02  0.1250329E+00
         -2   -1    0    0    0  501 -0.00000000000E+00  0.00000000000E+00  0.20300980787E+02  0.20300980787E+02  0.00000000000E+00 0. -1.
          2   -1    0    0  501    0  0.00000000000E+00 -0.00000000000E+00 -0.78358492186E+03  0.78358492186E+03  0.00000000000E+00 0.  1.
         23    2    1    2    0    0  0.44095546947E+02  0.31670046667E+01 -0.48670259560E+03  0.49712992495E+03  0.91127924008E+02 0.  0.
          5    1    1    2  502    0 -0.86818717668E+02 -0.68041086801E+01 -0.21085438668E+03  0.22816842554E+03  0.41800000000E+01 0.  1.
         -5    1    1    2    0  502  0.42723170721E+02  0.36371040133E+01 -0.65726958793E+02  0.78587552158E+02  0.41800000000E+01 0.  1.
        -11    1    3    3    0    0  0.16958547482E+02  0.46807145312E+02 -0.25115486132E+03  0.25604153091E+03  0.00000000000E+00 0. -1.
         11    1    3    3    0    0  0.27136999465E+02 -0.43640140645E+02 -0.23554773428E+03  0.24108839404E+03  0.00000000000E+00 0.  1.
</event>
<event>
 7    1  0.4274778E-006  0.1469563E+03  0.7561462E-02  0.1204264E+00
          3   -1    0    0  501    0  0.00000000000E+00  0.00000000000E+00  0.28753218305E+03  0.28753218305E+03  0.00000000000E+00 0. -1.
         -3   -1    0    0    0  501 -0.00000000000E+00 -0.00000000000E+00 -0.19923564322E+03  0.19923564322E+03  0.00000000000E+00 0.  1.
         23    2    1    2    0    0  0.30973729707E+02  0.80287484429E+02  0.21504123374E+03  0.25060044287E+03  0.95668164354E+02 0.  0.
          5    1    1    2  502    0 -0.85748740461E+02 -0.88150472003E+02 -0.33279560719E+02  0.12746903062E+03  0.41800000000E+01 0. -1.
         -5    1    1    2    0  502  0.54775010754E+02  0.78629875742E+01 -0.93465133188E+02  0.10869835279E+03  0.41800000000E+01 0.  1.
        -11    1    3    3    0    0 -0.19607087836E+02 -0.99799408640E+00  0.95249775645E+02  0.97252011013E+02  0.00000000000E+00 0.  1.
         11    1    3    3    0    0  0.50580817543E+02  0.81285478515E+02  0.11979145809E+03  0.15334843185E+03  0.00000000000E+00 0. -1.
</event>
<event>
 7    1  0.4274778E-006  0.1147623E+03  0.7561462E-02  0.1251997E+00
         -1   -1    0    0    0  501 -0.00000000000E+00  0.00000000000E+00  0.11402666467E+03  0.11402666467E+03  0.00000000000E+00 0.  1.
          1   -1    0    0  501    0  0.00000000000E+00 -0.00000000000E+00 -0.13088939338E+03  0.13088939338E+03  0.00000000000E+00 0. -1.
         23    2    1    2    0    0  0.37893300852E+02 -0.19856554599E+02 -0.42352597108E+02  0.11028028788E+03  0.92400294385E+02 0.  0.
          5    1    1    2  502    0  0.17131300509E+02 -0.43448526785E+02  0.63604577637E-01  0.46890642803E+02  0.41800000000E+01 0.  1.
         -5    1    1    2    0  502 -0.55024601361E+02  0.63305081385E+02  0.25426263821E+02  0.87745127363E+02  0.41800000000E+01 0.  1.
        -11    1    3    3    0    0  0.55709075153E+02  0.16555240654E+02 -0.11272563533E+02  0.59200065339E+02  0.00000000000E+00 0.  1.
         11    1    3    3    0    0 -0.17815774301E+02 -0.36411795254E+02 -0.31080033575E+02  0.51080222539E+02  0.00000000000E+00 0. -1.
</event>
<event>
 7    1  0.4274778E-006  0.5133139E+02  0.7561462E-02  0.1438290E+00
          2   -1    0    0  501    0  0.00000000000E+00  0.00000000000E+00  0.11191956253E+03  0.11191956253E+03  0.00000000000E+00 0. -1.
         -2   -1    0    0    0  501 -0.00000000000E+00 -0.00000000000E+00 -0.93844244167E+02  0.93844244167E+02  0.00000000000E+00 0.  1.
         23    2    1    2    0    0  0.45820171899E+01  0.11245803458E+02  0.25282997157E+02  0.83982349186E+02  0.79160230246E+02 0.  0.
          5    1    1    2  502    0  0.67270446957E+01 -0.37085223834E+01  0.56160647470E+02  0.56837461175E+02  0.41800000000E+01 0. -1.
         -5    1    1    2    0  502 -0.11309061886E+02 -0.75372810745E+01 -0.63368326263E+02  0.64943996336E+02  0.41800000000E+01 0.  1.
        -11    1    3    3    0    0 -0.32879537249E+02 -0.12689670738E+02  0.15293333188E+02  0.38418455892E+02  0.00000000000E+00 0. -1.
         11    1    3    3    0    0  0.37461554439E+02  0.23935474195E+02  0.99896639685E+01  0.45563893294E+02  0.00000000000E+00 0.  1.
</event>
<event>
 7    1  0.4274778E-006  0.8399391E+02  0.7561462E-02  0.1318085E+00
         -1   -1    0    0    0  501 -0.00000000000E+00  0.00000000000E+00  0.84948327700E+02  0.84948327700E+02  0.00000000000E+00 0.  1.
          1   -1    0    0  501    0  0.00000000000E+00 -0.00000000000E+00 -0.17409376743E+03  0.17409376743E+03  0.00000000000E+00 0. -1.
         23    2    1    2    0    0 -0.37791721449E+02  0.24271205336E+02 -0.84365153345E+02  0.12612908342E+03  0.82302861232E+02 0.  0.
          5    1    1    2  502    0 -0.81555826693E+01 -0.33100726005E+02 -0.54558970246E+02  0.64469568209E+02  0.41800000000E+01 0.  1.
         -5    1    1    2    0  502  0.45947304119E+02  0.88295206688E+01  0.49778683862E+02  0.68443443499E+02  0.41800000000E+01 0.  1.
        -11    1    3    3    0    0  0.75452505346E+00 -0.24495113770E+02 -0.44871325458E+01  0.24914137857E+02  0.00000000000E+00 0.  1.
         11    1    3    3    0    0 -0.38546246503E+02  0.48766319106E+02 -0.79878020800E+02  0.10121494556E+03  0.00000000000E+00 0. -1.
</event>
<event>
 7    1  0.4274778E-006  0.1286960E+03  0.7561462E-02  0.1229404E+00
          1   -1    0    0  501    0  0.00000000000E+00  0.00000000000E+00  0.30207649919E+03  0.30207649919E+03  0.00000000000E+00 0. -1.
         -1   -1    0    0    0  501 -0.00000000000E+00 -0.00000000000E+00 -0.57571196160E+02  0.57571196160E+02  0.00000000000E+00 0.  1.
         23    2    1    2    0    0  0.19725511199E+02 -0.69000552903E+02  0.12709189497E+03  0.17367978756E+03  0.94138975706E+02 0.  0.
          5    1    1    2  502    0  0.50810392380E+02  0.41102707275E+02  0.72580730556E+02  0.97757676769E+02  0.41800000000E+01 0.  1.
         -5    1    1    2    0  502 -0.70535903580E+02  0.27897845628E+02  0.44832677502E+02  0.88210231019E+02  0.41800000000E+01 0.  1.
        -11    1    3    3    0    0  0.73739745855E+01 -0.90683465835E+02  0.83713282095E+02  0.12363567477E+03  0.00000000000E+00 0.  1.
         11    1    3    3    0    0  0.12351536614E+02  0.21682912932E+02  0.43378612873E+02  0.50044112788E+02  0.00000000000E+00 0. -1.
</event>
<event>
 7    1  0.4274778E-006  0.2061725E+03  0.7561462E-02  0.1144633E+00
         -1   -1    0    0    0  501 -0.00000000000E+00  0.00000000000E+00  0.37020053008E+02  0.37020053008E+02  0.00000000000E+00 0.  1.
          1   -1    0    0  501    0  0.00000000000E+00 -0.00000000000E+00 -0.11517728506E+04  0.11517728506E+04  0.00000000000E+00 0. -1.
         23    2    1    2    0    0 -0.17537539495E+03  0.30990938505E+02 -0.50569329546E+03  0.54201739517E+03  0.79625248332E+02 0.  0.
          5    1    1    2  502    0  0.10073593563E+03 -0.79337938910E+02 -0.37642201510E+03  0.39768485403E+03  0.41800000000E+01 0. -1.
         -5    1    1    2    0  502  0.74639459326E+02  0.48347000405E+02 -0.23263748702E+03  0.24909065439E+03  0.41800000000E+01 0. -1.
        -11    1    3    3    0    0 -0.73256662699E+02 -0.26415196683E+02 -0.19534283605E+03  0.21029295005E+03  0.00000000000E+00 0.  1.
         11    1    3    3    0    0 -0.10211873225E+03  0.57406135188E+02 -0.31035045941E+03  0.33172444512E+03  0.00000000000E+00 0. -1.
</event>
<event>
 7    1  0.4274778E-006  0.1275182E+03  0.7561462E-02  0.1231185E+00
         -2   -1    0    0    0  501 -0.00000000000E+00  0.00000000000E+00  0.30936272767E+02  0.30936272767E+02  0.00000000000E+00 0.  1.
          2   -1    0    0  501    0  0.00000000000E+00 -0.00000000000E+00 -0.62759855604E+03  0.62759855604E+03  0.00000000000E+00 0. -1.
         23    2    1    2    0    0 -0.73989651157E+02 -0.35474290658E+02 -0.33433180936E+03  0.35653911830E+03  0.92787339403E+02 0.  0.
          5    1    1    2  502    0  0.59007878919E+02  0.80708502106E+02 -0.19778537481E+03  0.22165811281E+03  0.41800000000E+01 0. -1.
         -5    1    1    2    0  502  0.14981772238E+02 -0.45234211449E+02 -0.64545099103E+02  0.80337597692E+02  0.41800000000E+01 0. -1.
        -11    1    3    3    0    0 -0.13042141560E+02  0.20558126982E+02 -0.20061605217E+02  0.31546823063E+02  0.00000000000E+00 0.  1.
         11    1    3    3    0    0 -0.60947509596E+02 -0.56032417640E+02 -0.31427020415E+03  0.32499229524E+03  0.00000000000E+00 0. -1.
</event>
<event>
 7    1  0.4274778E-006  0.1044985E+03  0.7561462E-02  0.1271111E+00
         -2   -1    0    0    0  501 -0.00000000000E+00  0.00000000000E+00  0.29310085169E+03  0.29310085169E+03  0.00000000000E+00 0.  1.
          2   -1    0    0  501    0  0.00000000000E+00 -0.00000000000E+00 -0.44593163226E+02  0.44593163226E+02  0.00000000000E+00 0. -1.
         23    2    1    2    0    0 -0.21447628697E+02 -0.26931253924E+02  0.78710822386E+02  0.12400139395E+03  0.89418448465E+02 0.  0.
          5    1    1    2  502    0 -0.12604478428E+02  0.63159342596E+02  0.43322577776E+02  0.77732191393E+02  0.41800000000E+01 0.  1.
         -5    1    1    2    0  502  0.34052107125E+02 -0.36228088672E+02  0.12647428831E+03  0.13596042958E+03  0.41800000000E+01 0.  1.
        -11    1    3    3    0    0  0.33926456570E+02 -0.24419407442E+01  0.38212471846E+02  0.51158191276E+02  0.00000000000E+00 0.  1.
         11    1    3    3    0    0 -0.55374085267E+02 -0.24489313180E+02  0.40498350540E+02  0.72843202673E+02  0.00000000000E+00 0. -1.
</event>
<event>
 7    1  0.4274778E-006  0.9284018E+02  0.7561462E-02  0.1296116E+00
          3   -1    0    0  501    0  0.00000000000E+00  0.00000000000E+00  0.50871586412E+02  0.50871586412E+02  0.00000000000E+00 0. -1.
         -3   -1    0    0    0  501 -0.00000000000E+00 -0.00000000000E+00 -0.38108551419E+03  0.38108551419E+03  0.00000000000E+00 0.  1.
         23    2    1    2    0    0  0.70520232138E+02  0.28992508151E+02 -0.77528337058E+02  0.13987634624E+03  0.87983410492E+02 0.  0.
          5    1    1    2  502    0 -0.70114839496E+02 -0.29529981689E+01 -0.25601824356E+03  0.26549505523E+03  0.41800000000E+01 0.  1.
         -5    1    1    2    0  502 -0.40539264227E+00 -0.26039509982E+02  0.33326528385E+01  0.26585699130E+02  0.41800000000E+01 0.  1.
        -11    1    3    3    0    0  0.18669466948E+02  0.32018604031E+02 -0.79695013722E+02  0.87892179472E+02  0.00000000000E+00 0.  1.
         11    1    3    3    0    0  0.51850765191E+02 -0.30260958802E+01  0.21666766647E+01  0.51984166771E+02  0.00000000000E+00 0. -1.
</event>
<event>
 7    1  0.4274778E-006  0.1097690E+03  0.7561462E-02  0.1260998E+00
          1   -1    0    0  501    0  0.00000000000E+00  0.00000000000E+00  0.55713607743E+03  0.55713607743E+03  0.00000000000E+00 0. -1.
         -1   -1    0    0    0  501 -0.00000000000E+00 -0.00000000000E+00 -0.25322211842E+02  0.25322211842E+02  0.00000000000E+00 0.  1.
         23    2    1    2    0    0 -0.14710725385E+01 -0.25265725396E+02  0.33556876245E+03  0.34836468583E+03  0.90061307303E+02 0.  0.
          5    1    1    2  502    0 -0.60522810387E+02  0.55981997144E+01  0.76862649024E+02  0.98080016477E+02  0.41800000000E+01 0. -1.
         -5    1    1    2    0  502  0.61993882926E+02  0.19667525681E+02  0.11938245412E+03  0.13601358696E+03  0.41800000000E+01 0. -1.
        -11    1    3    3    0    0 -0.10724267684E+02  0.32868721630E+02  0.13240275872E+03  0.13684243968E+03  0.00000000000E+00 0. -1.
         11    1    3    3    0    0  0.92531951458E+01 -0.58134447026E+02  0.20316600372E+03  0.21152224616E+03  0.00000000000E+00 0.  1.
</event>
<event>
 7    1  0.4274778E-006  0.1250497E+03  0.7561462E-02  0.1234992E+00
          2   -1    0    0  501    0  0.00000000000E+00  0.00000000000E+00  0.29287849523E+03  0.29287849523E+03  0.00000000000E+00 0. -1.
         -2   -1    0    0    0  501 -0.00000000000E+00 -0.00000000000E+00 -0.80007320283E+02  0.80007320283E+02  0.00000000000E+00 0.  1.
         23    2    1    2    0    0 -0.42016129238E+02  0.86137551071E+02  0.15963058771E+03  0.20655645119E+03  0.89434949404E+02 0.  0.
          5    1    1    2  502    0  0.26356660006E+02 -0.96512526516E+02  0.83559660259E+02  0.13041867398E+03  0.41800000000E+01 0. -1.
         -5    1    1    2    0  502  0.15659469231E+02  0.10374975445E+02 -0.30319073019E+02  0.35910690341E+02  0.41800000000E+01 0. -1.
        -11    1    3    3    0    0 -0.64899241417E+02  0.32874084174E+02  0.81135915788E+02  0.10897547328E+03  0.00000000000E+00 0.  1.
         11    1    3    3    0    0  0.22883112179E+02  0.53263466896E+02  0.78494671919E+02  0.97580977903E+02  0.00000000000E+00 0. -1.
</event>
<event>
 7    1  0.4274778E-006  0.7472228E+02  0.7561462E-02  0.1344733E+00
          2   -1    0    0  501    0  0.00000000000E+00  0.00000000000E+00  0.24824541451E+03  0.24824541451E+03  0.00000000000E+00 0.  1.
         -2   -1    0    0    0  501 -0.00000000000E+00 -0.00000000000E+00 -0.55675523829E+02  0.55675523829E+02  0.00000000000E+00 0. -1.
         23    2    1    2    0    0  0.41828651450E+02  0.89484377960E+01  0.11310375619E+03  0.14967708090E+03  0.88210307005E+02 0.  0.
          5    1    1    2  502    0  0.38662699049E+01  0.14152643437E+01  0.10194063904E+03  0.10210933995E+03  0.41800000000E+01 0. -1.
         -5    1    1    2    0  502 -0.45694921355E+02 -0.10363702140E+02 -0.22474504546E+02  0.52134517493E+02  0.41800000000E+01 0. -1.
        -11    1    3    3    0    0  0.17031931615E+02 -0.38999004209E+02  0.63009433977E+02  0.76034188323E+02  0.00000000000E+00 0.  1.
         11    1    3    3    0    0  0.24796719835E+02  0.47947442005E+02  0.50094322208E+02  0.73642892576E+02  0.00000000000E+00 0. -1.
</event>
<event>
 7    1  0.4274778E-006  0.2245744E+03  0.7561462E-02  0.1130518E+00
          1   -1    0    0  501    0  0.00000000000E+00  0.00000000000E+00  0.65436872130E+03  0.65436872130E+03  0.00000000000E+00 0. -1.
         -1   -1    0    0    0  501 -0.00000000000E+00 -0.00000000000E+00 -0.14670272135E+03  0.14670272135E+03  0.00000000000E+00 0.  1.
         23    2    1    2    0    0  0.16717093925E+03 -0.12186282662E+03  0.51157367225E+03  0.55930065280E+03  0.91175252345E+02 0.  0.
          5    1    1    2  502    0 -0.14316428440E+03  0.30500725087E+02 -0.11642390399E+02  0.14689902727E+03  0.41800000000E+01 0.  1.
         -5    1    1    2    0  502 -0.24006654852E+02  0.91362101529E+02  0.77347181011E+01  0.94871762591E+02  0.41800000000E+01 0.  1.
        -11    1    3    3    0    0  0.74611882459E+02 -0.68659208117E+02  0.35927944190E+03  0.37331318921E+03  0.00000000000E+00 0. -1.
         11    1    3    3    0    0  0.92559056789E+02 -0.53203618500E+02  0.15229423035E+03  0.18598746359E+03  0.00000000000E+00 0.  1.
</event>
<event>
 7    1  0.4274778E-006  0.1307367E+03  0.7561462E-02  0.1226367E+00
         -2   -1    0    0    0  501 -0.00000000000E+00  0.00000000000E+00  0.17610879315E+03  0.17610879315E+03  0.00000000000E+00 0.  1.
          2   -1    0    0  501    0  0.00000000000E+00 -0.00000000000E+00 -0.10765407497E+03  0.10765407497E+03  0.00000000000E+00 0. -1.
         23    2    1    2    0    0  0.80761255236E+02 -0.23967287517E+02  0.29583527270E+02  0.12802497366E+03  0.91751826015E+02 0.  0.
          5    1    1    2  502    0  0.23369315998E+02  0.22512806899E+02  0.39784235628E+02  0.51509311869E+02  0.41800000000E+01 0.  1.
         -5    1    1    2    0  502 -0.10413057123E+03  0.14544806187E+01 -0.91304472207E+00  0.10422858260E+03  0.41800000000E+01 0.  1.
        -11    1    3    3    0    0  0.97472099704E+02 -0.27332149992E+01  0.24291079154E+02  0.10049048319E+03  0.00000000000E+00 0.  1.
         11    1    3    3    0    0 -0.16710844469E+02 -0.21234072518E+02  0.52924481167E+01  0.27534490473E+02  0.00000000000E+00 0. -1.
</event>
<event>
 7    1  0.4274778E-006  0.1091963E+03  0.7561462E-02  0.1262066E+00
          3   -1    0    0  501    0  0.00000000000E+00  0.00000000000E+00  0.12012616668E+03  0.12012616668E+03  0.00000000000E+00 0. -1.
         -3   -1    0    0    0  501 -0.00000000000E+00 -0.00000000000E+00 -0.10251494942E+03  0.10251494942E+03  0.00000000000E+00 0.  1.
         23    2    1    2    0    0 -0.66991838169E+01  0.13586359733E+02  0.17766029657E+02  0.96633625151E+02  0.93770770848E+02 0.  0.
          5    1    1    2  502    0 -0.54079400920E+02  0.16673272588E+02  0.87065531600E+01  0.57409547033E+02  0.41800000000E+01 0.  1.
         -5    1    1    2    0  502  0.60778584737E+02 -0.30259632320E+02 -0.88613655586E+01  0.68597943922E+02  0.41800000000E+01 0.  1.
        -11    1    3    3    0    0  0.15924527222E+02 -0.35865916478E+02  0.15537829571E+02  0.42206381980E+02  0.00000000000E+00 0. -1.
         11    1    3    3    0    0 -0.22623711039E+02  0.49452276211E+02  0.22282000863E+01  0.54427243171E+02  0.00000000000E+00 0.  1.
</event>
<event>
 7    1  0.4274778E-006  0.2420840E+03  0.7561462E-02  0.1118412E+00
          1   -1    0    0  501    0  0.00000000000E+00  0.00000000000E+00  0.30437412499E+03  0.30437412499E+03  0.00000000000E+00 0. -1.
         -1   -1    0    0    0  501 -0.00000000000E+00 -0.00000000000E+00 -0.20419397510E+03  0.20419397510E+03  0.00000000000E+00 0.  1.
         23    2    1    2    0    0  0.69848375503E+02 -0.21197930834E+03  0.29911343970E+02  0.24323904374E+03  0.91959345260E+02 0.  0.
          5    1    1    2  502    0 -0.69705019483E+02  0.36845078319E+02  0.77944222323E+01  0.79338357403E+02  0.41800000000E+01 0.  1.
         -5    1    1    2    0  502 -0.14335602067E+00  0.17513423002E+03  0.62474383694E+02  0.18599069894E+03  0.41800000000E+01 0.  1.
        -11    1    3    3    0    0  0.26459356862E+02 -0.16066804799E+03 -0.13256537978E+02  0.16337091237E+03  0.00000000000E+00 0.  1.
         11    1    3    3    0    0  0.43389018641E+02 -0.51311260346E+02  0.43167881948E+02  0.79868131372E+02  0.00000000000E+00 0. -1.
</event>
<event>
 7    1  0.4274778E-006  0.1064608E+03  0.7561462E-02  0.1267268E+00
          2   -1    0    0  501    0  0.00000000000E+00  0.00000000000E+00  0.47130263326E+02  0.47130263326E+02  0.00000000000E+00 0. -1.
         -2   -1    0    0    0  501 -0.00000000000E+00 -0.00000000000E+00 -0.35278429549E+03  0.35278429549E+03  0.00000000000E+00 0.  1.
         23    2    1    2    0    0  0.64622008819E+02 -0.28856876719E+02 -0.11215010093E+03  0.15887543390E+03  0.87493056870E+02 0.  0.
          5    1    1    2  502    0 -0.48170772568E+02 -0.17781071024E+02 -0.12033598338E+02  0.52904344864E+02  0.41800000000E+01 0.  1.
         -5    1    1    2    0  502 -0.16451236251E+02  0.46637947743E+02 -0.18147033289E+03  0.18813478005E+03  0.41800000000E+01 0.  1.
        -11    1    3    3    0    0  0.24829472928E+02 -0.57574610479E+02 -0.53670684393E+02  0.82534119374E+02  0.00000000000E+00 0.  1.
         11    1    3    3    0    0  0.39792535890E+02  0.28717733760E+02 -0.58479416537E+02  0.76341314525E+02  0.00000000000E+00 0. -1.
</event>
<event>
 7    1  0.4274778E-006  0.8201678E+02  0.7561462E-02  0.1323424E+00
          1   -1    0    0  501    0  0.00000000000E+00  0.00000000000E+00  0.32480949044E+02  0.32480949044E+02  0.00000000000E+00 0. -1.
         -1   -1    0    0    0  501 -0.00000000000E+00 -0.00000000000E+00 -0.46261907511E+03  0.46261907511E+03  0.00000000000E+00 0.  1.
         23    2    1    2    0    0  0.67709169429E+00 -0.23748297681E+02 -0.82601358588E+02  0.12497405940E+03  0.90725360212E+02 0.  0.
          5    1    1    2  502    0  0.49042623318E+02 -0.51702947611E+01 -0.64639278853E+02  0.81410193590E+02  0.41800000000E+01 0.  1.
         -5    1    1    2    0  502 -0.49719715012E+02  0.28918592442E+02 -0.28289748863E+03  0.28871577117E+03  0.41800000000E+01 0.  1.
        -11    1    3    3    0    0  0.44902363038E+01 -0.39963510946E+02 -0.95685115489E+02  0.10379251300E+03  0.00000000000E+00 0.  1.
         11    1    3    3    0    0 -0.38131446095E+01  0.16215213265E+02  0.13083756901E+02  0.21181546395E+02  0.00000000000E+00 0. -1.
</event>
<event>
 7    1  0.4274778E-006  0.1020888E+03  0.7561462E-02  0.1275964E+00
         -1   -1    0    0    0  501 -0.00000000000E+00  0.00000000000E+00  0.26086142138E+03  0.26086142138E+03  0.00000000000E+00 0.  1.
          1   -1    0    0  501    0  0.00000000000E+00 -0.00000000000E+00 -0.43075627905E+02  0.43075627905E+02  0.00000000000E+00 0. -1.
         23    2    1    2    0    0 -0.18014487045E+02 -0.10100542469E+02  0.72802193300E+02  0.11134114852E+03  0.81670982005E+02 0.  0.
          5    1    1    2  502    0  0.14748968536E+02 -0.54434786103E+02  0.95937527472E+02  0.11136498367E+03  0.41800000000E+01 0.  1.
         -5    1    1    2    0  502  0.32655185091E+01  0.64535328572E+02  0.49046072703E+02  0.81230917099E+02  0.41800000000E+01 0.  1.
        -11    1    3    3    0    0 -0.77818689671E+01  0.35395055065E+02  0.22063431885E+02  0.42428321134E+02  0.00000000000E+00 0.  1.
         11    1    3    3    0    0 -0.10232618078E+02 -0.45495597534E+02  0.50738761415E+02  0.68912827381E+02  0.00000000000E+00 0. -1.
</event>
<event>
 7    1  0.4274778E-006  0.6200965E+02  0.7561462E-02  0.1389587E+00
          4   -1    0    0  501    0  0.00000000000E+00  0.00000000000E+00  0.43735243755E+03  0.43735243755E+03  0.00000000000E+00 0. -1.
         -4   -1    0    0    0  501 -0.00000000000E+00 -0.00000000000E+00 -0.27787406966E+02  0.27787406966E+02  0.00000000000E+00 0.  1.
         23    2    1    2    0    0  0.77821825412E+01  0.22206069331E+02  0.18495615470E+03  0.20650606342E+03  0.88782336009E+02 0.  0.
          5    1    1    2  502    0 -0.20631368016E+01 -0.24338076549E+02 -0.78984684469E+01  0.26008781351E+02  0.41800000000E+01 0.  1.
         -5    1    1    2    0  502 -0.57190457396E+01  0.21320072181E+01  0.23250734434E+03  0.23262499975E+03  0.41800000000E+01 0.  1.
        -11    1    3    3    0    0  0.47774642537E+02  0.19987559099E+02  0.10549720279E+03  0.11752267349E+03  0.00000000000E+00 0.  1.
         11    1    3    3    0    0 -0.39992459996E+02  0.22185102318E+01  0.79458951906E+02  0.88983389923E+02  0.00000000000E+00 0. -1.
</event>
<event>
 7    1  0.4274778E-006  0.8378057E+02  0.7561462E-02  0.1318653E+00
         -1   -1    0    0    0  501 -0.00000000000E+00  0.00000000000E+00  0.11945607794E+03  0.11945607794E+03  0.00000000000E+00 0.  1.
          1   -1    0    0  501    0  0.00000000000E+00 -0.00000000000E+00 -0.12377051400E+03  0.12377051400E+03  0.00000000000E+00 0. -1.
         23    2    1    2    0    0 -0.58440332871E+02 -0.15394572266E+02 -0.43691941672E+01  0.10430078555E+03  0.84895810543E+02 0.  0.
          5    1    1    2  502    0  0.36731882796E+01  0.40193673010E+02 -0.47271863215E+02  0.62298676664E+02  0.41800000000E+01 0.  1.
         -5    1    1    2    0  502  0.54767144592E+02 -0.24799100744E+02  0.47326621321E+02  0.76627129726E+02  0.41800000000E+01 0.  1.
        -11    1    3    3    0    0 -0.24486910692E+02  0.76842992329E+01 -0.41599428318E+02  0.48879133445E+02  0.00000000000E+00 0. -1.
         11    1    3    3    0    0 -0.33953422179E+02 -0.23078871499E+02  0.37230234151E+02  0.55421652107E+02  0.00000000000E+00 0.  1.
</event>
<event>
 7    1  0.4274778E-006  0.1295532E+03  0.7561462E-02  0.1228120E+00
          2   -1    0    0  501    0  0.00000000000E+00  0.00000000000E+00  0.15700188621E+03  0.15700188621E+03  0.00000000000E+00 0.  1.
         -2   -1    0    0    0  501 -0.00000000000E+00 -0.00000000000E+00 -0.12573736331E+03  0.12573736331E+03  0.00000000000E+00 0. -1.
         23    2    1    2    0    0  0.65556846249E+02  0.58266783705E+02  0.33296385050E+02  0.12995042775E+03  0.89920777582E+02 0.  0.
          5    1    1    2  502    0 -0.17382199775E+02 -0.78927586704E+02  0.35309408072E+02  0.88294572372E+02  0.41800000000E+01 0.  1.
         -5    1    1    2    0  502 -0.48174646473E+02  0.20660802999E+02 -0.37341270228E+02  0.64494249400E+02  0.41800000000E+01 0.  1.
        -11    1    3    3    0    0 -0.22340394829E+01  0.57758829579E+02  0.14241559473E+02  0.59530625252E+02  0.00000000000E+00 0. -1.
         11    1    3    3    0    0  0.67790885732E+02  0.50795412617E+00  0.19054825577E+02  0.70419802495E+02  0.00000000000E+00 0.  1.
</event>
<event>
 7    1  0.4274778E-006  0.2112876E+03  0.7561462E-02  0.1140550E+00
         -2   -1    0    0    0  501 -0.00000000000E+00  0.00000000000E+00  0.60419178303E+02  0.60419178303E+02  0.00000000000E+00 0.  1.
          2   -1    0    0  501    0  0.00000000000E+00 -0.00000000000E+00 -0.10224758194E+04  0.10224758194E+04  0.00000000000E+00 0. -1.
         23    2    1    2    0    0  0.18786473052E+03  0.29939590523E+02 -0.72169535323E+03  0.75182948885E+03  0.90630355717E+02 0.  0.
          5    1    1    2  502    0 -0.13160124806E+03 -0.71367398738E+02 -0.20132444152E+03  0.25092069912E+03  0.41800000000E+01 0. -1.
         -5    1    1    2    0  502 -0.56263482461E+02  0.41427808215E+02 -0.39036846320E+02  0.80144809706E+02  0.41800000000E+01 0. -1.
        -11    1    3    3    0    0  0.61755124050E+02 -0.23196275940E+02 -0.34008855981E+03  0.34642746871E+03  0.00000000000E+00 0. -1.
         11    1    3    3    0    0  0.12610960647E+03  0.53135866463E+02 -0.38160679342E+03  0.40540202014E+03  0.00000000000E+00 0.  1.
</event>
<event>
 7    1  0.4274778E-006  0.1496084E+03  0.7561462E-02  0.1200955E+00
         -4   -1    0    0    0  501 -0.00000000000E+00  0.00000000000E+00  0.15366356606E+03  0.15366356606E+03  0.00000000000E+00 0.  1.
          4   -1    0    0  501    0  0.00000000000E+00 -0.00000000000E+00 -0.23920204245E+03  0.23920204245E+03  0.00000000000E+00 0. -1.
         23    2    1    2    0    0 -0.21010387567E+02 -0.10801425271E+03 -0.15674332445E+03  0.21167461109E+03  0.90161832547E+02 0.  0.
          5    1    1    2  502    0  0.37970538599E+02 -0.10853314950E+02  0.41478849700E+02  0.57424068293E+02  0.41800000000E+01 0.  1.
         -5    1    1    2    0  502 -0.16960151032E+02  0.11886756766E+03  0.29725998359E+02  0.12376692912E+03  0.41800000000E+01 0.  1.
        -11    1    3    3    0    0 -0.47782931531E+02 -0.28908153322E+02 -0.42590797861E+02  0.70234364356E+02  0.00000000000E+00 0.  1.
         11    1    3    3    0    0  0.26772543964E+02 -0.79106099389E+02 -0.11415252659E+03  0.14144024674E+03  0.00000000000E+00 0. -1.
</event>
<event>
 7    1  0.4274778E-006  0.8920174E+02  0.7561462E-02  0.1304796E+00
          1   -1    0    0  501    0  0.00000000000E+00  0.00000000000E+00  0.20593460105E+03  0.20593460105E+03  0.00000000000E+00 0. -1.
         -1   -1    0    0    0  501 -0.00000000000E+00 -0.00000000000E+00 -0.62345080576E+02  0.62345080576E+02  0.00000000000E+00 0.  1.
         23    2    1    2    0    0  0.22141284072E+02  0.21672010356E+02  0.60506781104E+02  0.11495416990E+03  0.92701014696E+02 0.  0.
          5    1    1    2  502    0 -0.39989337840E+02  0.30246531676E+02 -0.38092610390E+01  0.50457731707E+02  0.41800000000E+01 0.  1.
         -5    1    1    2    0  502  0.17848053768E+02 -0.51918542032E+02  0.86892000410E+02  0.10286778002E+03  0.41800000000E+01 0.  1.
        -11    1    3    3    0    0  0.36281408222E+02  0.37244921167E+02  0.73647261942E+02  0.90152337335E+02  0.00000000000E+00 0. -1.
         11    1    3    3    0    0 -0.14140124151E+02 -0.15572910812E+02 -0.13140480838E+02  0.24801832569E+02  0.00000000000E+00 0.  1.
</event>
<event>
 7    1  0.4274778E-006  0.1158861E+03  0.7561462E-02  0.1250042E+00
         -1   -1    0    0    0  501 -0.00000000000E+00  0.00000000000E+00  0.33890648870E+02  0.33890648870E+02  0.00000000000E+00 0.  1.
          1   -1    0    0  501    0  0.00000000000E+00 -0.00000000000E+00 -0.43874415805E+03  0.43874415805E+03  0.00000000000E+00 0. -1.
         23    2    1    2    0    0 -0.92830025264E+01 -0.44807299942E+02 -0.22972810514E+03  0.25260600523E+03  0.94556455720E+02 0.  0.
          5    1    1    2  502    0 -0.30425052462E+02  0.74903095872E+02 -0.12715786677E+03  0.15074068154E+03  0.41800000000E+01 0.  1.
         -5    1    1    2    0  502  0.39708054989E+02 -0.30095795930E+02 -0.47967537257E+02  0.69288120152E+02  0.41800000000E+01 0.  1.
        -11    1    3    3    0    0 -0.10135799789E+02 -0.72453377631E+02 -0.19458737923E+03  0.20788572467E+03  0.00000000000E+00 0. -1.
         11    1    3    3    0    0  0.85279726277E+00  0.27646077689E+02 -0.35140725916E+02  0.44720280552E+02  0.00000000000E+00 0.  1.
</event>
<event>
 7    1  0.4274778E-006  0.1594910E+03  0.7561462E-02  0.1189273E+00
         -3   -1    0    0    0  501 -0.00000000000E+00  0.00000000000E+00  0.79622578198E+02  0.79622578198E+02  0.00000000000E+00 0.  1.
          3   -1    0    0  501    0  0.00000000000E+00 -0.00000000000E+00 -0.49699651415E+03  0.49699651415E+03  0.00000000000E+00 0. -1.
         23    2    1    2    0    0 -0.47690888315E+02  0.13375234316E+03 -0.32433400639E+03  0.36574427871E+03  0.91718152964E+02 0.  0.
          5    1    1    2  502    0  0.74650026560E+02 -0.67366376333E+02 -0.95941045286E+02  0.13904320083E+03  0.41800000000E+01 0. -1.
         -5    1    1    2    0  502 -0.26959138244E+02 -0.66385966825E+02  0.29011157220E+01  0.71831612808E+02  0.41800000000E+01 0. -1.
        -11    1    3    3    0    0 -0.18258049132E+02  0.10057201348E+03 -0.12468503085E+03  0.16122792305E+03  0.00000000000E+00 0.  1.
         11    1    3    3    0    0 -0.29432839183E+02  0.33180329679E+02 -0.19964897554E+03  0.20451635566E+03  0.00000000000E+00 0. -1.
</event>
<event>
 7    1  0.4274778E-006  0.1121070E+03  0.7561462E-02  0.1256717E+00
         -1   -1    0    0    0  501 -0.00000000000E+00  0.00000000000E+00  0.66336901409E+03  0.66336901409E+03  0.00000000000E+00 0.  1.
          1   -1    0    0  501    0  0.00000000000E+00 -0.00000000000E+00 -0.19746435328E+02  0.19746435328E+02  0.00000000000E+00 0. -1.
         23    2    1    2    0    0  0.36876103815E+02 -0.31966530076E+02  0.29505634640E+03  0.30958176492E+03  0.80005721928E+02 0.  0.
          5    1    1    2  502    0 -0.82822197846E+02  0.19581932539E+02  0.24725728976E+03  0.26152745225E+03  0.41800000000E+01 0. -1.
         -5    1    1    2    0  502  0.45946094032E+02  0.12384597537E+02  0.10130894260E+03  0.11200623225E+03  0.41800000000E+01 0. -1.
        -11    1    3    3    0    0  0.11539344864E+02 -0.55481707454E+02  0.21577046128E+03  0.22308802815E+03  0.00000000000E+00 0.  1.
         11    1    3    3    0    0  0.25336758951E+02  0.23515177377E+02  0.79285885118E+02  0.86493736769E+02  0.00000000000E+00 0. -1.
</event>
<event>
 7    1  0.4274778E-006  0.1123139E+03  0.7561462E-02  0.1256344E+00
          1   -1    0    0  501    0  0.00000000000E+00  0.00000000000E+00  0.57429948034E+03  0.57429948034E+03  0.00000000000E+00 0. -1.
         -1   -1    0    0    0  501 -0.00000000000E+00 -0.00000000000E+00 -0.24456648346E+02  0.24456648346E+02  0.00000000000E+00 0.  1.
         23    2    1    2    0    0  0.46187719002E+02  0.12373852456E+02  0.23772728801E+03  0.25912691172E+03  0.91356856898E+02 0.  0.
          5    1    1    2  502    0 -0.78045050297E+02 -0.42888257713E+02  0.22121235955E+03  0.23850118017E+03  0.41800000000E+01 0. -1.
         -5    1    1    2    0  502  0.31857331295E+02  0.30514405257E+02  0.90903184431E+02  0.10112803679E+03  0.41800000000E+01 0. -1.
        -11    1    3    3    0    0  0.84442519614E+01  0.42214471919E+02  0.53236743894E+02  0.68465450638E+02  0.00000000000E+00 0.  1.
         11    1    3    3    0    0  0.37743467041E+02 -0.29840619463E+02  0.18449054412E+03  0.19066146109E+03  0.00000000000E+00 0. -1.
</event>
<event>
 7    1  0.4274778E-006  0.1128015E+03  0.7561462E-02  0.1255468E+00
         -3   -1    0    0    0  501 -0.00000000000E+00  0.00000000000E+00  0.39884064384E+02  0.39884064384E+02  0.00000000000E+00 0.  1.
          3   -1    0    0  501    0  0.00000000000E+00 -0.00000000000E+00 -0.33629191965E+03  0.33629191965E+03  0.00000000000E+00 0. -1.
         23    2    1    2    0    0  0.22052852911E+02 -0.26376638534E+02 -0.15515269889E+03  0.18439152054E+03  0.93519075552E+02 0.  0.
          5    1    1    2  502    0 -0.30828427743E+02  0.72631299955E+02 -0.10873901078E+03  0.13441481524E+03  0.41800000000E+01 0. -1.
         -5    1    1    2    0  502  0.87755748325E+01 -0.46254661420E+02 -0.32516145600E+02  0.57369648259E+02  0.41800000000E+01 0. -1.
        -11    1    3    3    0    0  0.49069159515E+02 -0.44945260437E+02 -0.96893519711E+02  0.11754238815E+03  0.00000000000E+00 0. -1.
         11    1    3    3    0    0 -0.27016306604E+02  0.18568621902E+02 -0.58259179180E+02  0.66849132385E+02  0.00000000000E+00 0.  1.
</event>
<event>
 7    1  0.4274778E-006  0.8895044E+02  0.7561462E-02  0.1305413E+00
         -2   -1    0    0    0  501 -0.00000000000E+00  0.00000000000E+00  0.39680791364E+02  0.39680791364E+02  0.00000000000E+00 0.  1.
          2   -1    0    0  501    0  0.00000000000E+00 -0.00000000000E+00 -0.34904069592E+03  0.34904069592E+03  0.00000000000E+00 0. -1.
         23    2    1    2    0    0 -0.40674212800E+02 -0.20671430390E+02 -0.14068413917E+03  0.17382604053E+03  0.91333267376E+02 0.  0.
          5    1    1    2  502    0  0.11283608537E+02 -0.33124423528E+02  0.14329403930E+00  0.35242590553E+02  0.41800000000E+01 0. -1.
         -5    1    1    2    0  502  0.29390604263E+02  0.53795853919E+02 -0.16881905943E+03  0.17965285621E+03  0.41800000000E+01 0. -1.
        -11    1    3    3    0    0 -0.23874753271E+02 -0.45414739006E+02 -0.13356813495E+03  0.14308371339E+03  0.00000000000E+00 0. -1.
         11    1    3    3    0    0 -0.16799459529E+02  0.24743308616E+02 -0.71160042184E+01  0.30742327136E+02  0.00000000000E+00 0.  1.
</event>
<event>
 7    1  0.4274778E-006  0.1041041E+03  0.7561462E-02  0.1271895E+00
          2   -1    0    0  501    0  0.00000000000E+00  0.00000000000E+00  0.34821576028E+03  0.34821576028E+03  0.00000000000E+00 0. -1.
         -2   -1    0    0    0  501 -0.00000000000E+00 -0.00000000000E+00 -0.50289906202E+02  0.50289906202E+02  0.00000000000E+00 0.  1.
         23    2    1    2    0    0  0.38750252368E+02 -0.85092058205E+01  0.22912798705E+03  0.25033398237E+03  0.92701022866E+02 0.  0.
          5    1    1    2  502    0 -0.68960758474E+02  0.45916319775E+02  0.42477252086E+02  0.93197016990E+02  0.41800000000E+01 0. -1.
         -5    1    1    2    0  502  0.30210506107E+02 -0.37407113955E+02  0.26320614943E+02  0.54974667117E+02  0.41800000000E+01 0. -1.
        -11    1    3    3    0    0  0.41377594383E+02  0.21661708274E+02  0.49057764258E+02  0.67734770659E+02  0.00000000000E+00 0.  1.
         11    1    3    3    0    0 -0.26273420152E+01 -0.30170914094E+02  0.18007022279E+03  0.18259921172E+03  0.00000000000E+00 0. -1.
</event>
<event>
 7    1  0.4274778E-006  0.9026647E+02  0.7561462E-02  0.1302208E+00
         -1   -1    0    0    0  501 -0.00000000000E+00  0.00000000000E+00  0.37183264629E+03  0.37183264629E+03  0.00000000000E+00 0.  1.
          1   -1    0    0  501    0  0.00000000000E+00 -0.00000000000E+00 -0.21179144378E+03  0.21179144378E+03  0.00000000000E+00 0. -1.
         23    2    1    2    0    0 -0.55847520448E+02  0.32025605086E+02 -0.18161780799E+03  0.21413420510E+03  0.93401524048E+02 0.  0.
          5    1    1    2  502    0  0.43746409082E+02  0.22919866578E+02  0.43207468712E+02  0.65752766816E+02  0.41800000000E+01 0.  1.
         -5    1    1    2    0  502  0.12101111367E+02 -0.54945471664E+02  0.29845154178E+03  0.30373711815E+03  0.41800000000E+01 0.  1.
        -11    1    3    3    0    0 -0.36242439746E+02 -0.87518774398E+00 -0.17041760630E+03  0.17423099876E+03  0.00000000000E+00 0. -1.
         11    1    3    3    0    0 -0.19605080703E+02  0.32900792830E+02 -0.11200201686E+02  0.39903206337E+02  0.00000000000E+00 0.  1.
</event>
<event>
 7    1  0.4274778E-006  0.1757389E+03  0.7561462E-02  0.1171992E+00
          1   -1    0    0  501    0  0.00000000000E+00  0.00000000000E+00  0.80420134187E+03  0.80420134187E+03  0.00000000000E+00 0. -1.
         -1   -1    0    0    0  501 -0.00000000000E+00 -0.00000000000E+00 -0.43254627715E+02  0.43254627715E+02  0.00000000000E+00 0.  1.
         23    2    1    2    0    0 -0.14367818129E+03  0.47364533976E+02  0.38036083930E+03  0.41923113522E+03  0.90518273348E+02 0.  0.
          5    1    1    2  502    0  0.14219241915E+03 -0.73348344157E+02  0.36249019859E+03  0.39625153644E+03  0.41800000000E+01 0.  1.
         -5    1    1    2    0  502  0.14857621385E+01  0.25983810182E+02  0.18095676267E+02  0.31973297926E+02  0.41800000000E+01 0.  1.
        -11    1    3    3    0    0 -0.14473255663E+03  0.30173661079E+02  0.37155194147E+03  0.39988599373E+03  0.00000000000E+00 0. -1.
         11    1    3    3    0    0  0.10543753408E+01  0.17190872897E+02  0.88088978268E+01  0.19345141490E+02  0.00000000000E+00 0.  1.
</event>
<event>
 7    1  0.4274778E-006  0.1541186E+03  0.7561462E-02  0.1195502E+00
         -1   -1    0    0    0  501 -0.00000000000E+00  0.00000000000E+00  0.27321592896E+03  0.27321592896E+03  0.00000000000E+00 0.  1.
          1   -1    0    0  501    0  0.00000000000E+00 -0.00000000000E+00 -0.12630804143E+03  0.12630804143E+03  0.00000000000E+00 0. -1.
         23    2    1    2    0    0  0.13799775112E+03 -0.51197745283E+02  0.36217273988E+02  0.17691314014E+03  0.91224885771E+02 0.  0.
          5    1    1    2  502    0 -0.62159493600E+02 -0.93426246833E+01  0.10849371694E+03  0.12545694997E+03  0.41800000000E+01 0. -1.
         -5    1    1    2    0  502 -0.75838257520E+02  0.60540369967E+02  0.21968966009E+01  0.97153880283E+02  0.41800000000E+01 0. -1.
        -11    1    3    3    0    0  0.12857613746E+03 -0.42863085986E+02 -0.31662541114E+01  0.13556951143E+03  0.00000000000E+00 0. -1.
         11    1    3    3    0    0  0.94216136595E+01 -0.83346592972E+01  0.39383528099E+02  0.41343628712E+02  0.00000000000E+00 0.  1.
</event>
<event>
 7    1  0.4274778E-006  0.9126805E+02  0.7561462E-02  0.1299810E+00
          1   -1    0    0  501    0  0.00000000000E+00  0.00000000000E+00  0.42766518207E+02  0.42766518207E+02  0.00000000000E+00 0. -1.
         -1   -1    0    0    0  501 -0.00000000000E+00 -0.00000000000E+00 -0.31554319889E+03  0.31554319889E+03  0.00000000000E+00 0.  1.
         23    2    1    2    0    0 -0.19842395018E+02  0.23704174623E+02 -0.85066415917E+02  0.13062965988E+03  0.94192379669E+02 0.  0.
          5    1    1    2  502    0  0.49929886640E+02 -0.38536358390E+02 -0.37037577459E+02  0.73261852569E+02  0.41800000000E+01 0.  1.
         -5    1    1    2    0  502 -0.30087491621E+02  0.14832183768E+02 -0.15067268731E+03  0.15441820465E+03  0.41800000000E+01 0.  1.
        -11    1    3    3    0    0  0.25307458148E+02 -0.11954387900E+02 -0.63130447290E+02  0.69056702810E+02  0.00000000000E+00 0.  1.
         11    1    3    3    0    0 -0.45149853167E+02  0.35658562522E+02 -0.21935968626E+02  0.61572957065E+02  0.00000000000E+00 0. -1.
</event>
<event>
 7    1  0.4274778E-006  0.1388099E+03  0.7561462E-02  0.1214939E+00
          1   -1    0    0  501    0  0.00000000000E+00  0.00000000000E+00  0.19555701658E+03  0.19555701658E+03  0.00000000000E+00 0. -1.
         -1   -1    0    0    0  501 -0.00000000000E+00 -0.00000000000E+00 -0.11645662939E+03  0.11645662939E+03  0.00000000000E+00 0.  1.
         23    2    1    2    0    0 -0.62602998988E+02  0.82799311595E+02  0.26210839407E+02  0.14107649532E+03  0.91873325546E+02 0.  0.
          5    1    1    2  502    0  0.14640855804E+01  0.27969340122E+02  0.31836122468E+02  0.42607964364E+02  0.41800000000E+01 0.  1.
         -5    1    1    2    0  502  0.61138913408E+02 -0.11076865172E+03  0.21053425312E+02  0.12832918629E+03  0.41800000000E+01 0.  1.
        -11    1    3    3    0    0  0.11171031794E+02  0.29937229725E+02  0.37895863762E+02  0.49569407554E+02  0.00000000000E+00 0.  1.
         11    1    3    3    0    0 -0.73774030783E+02  0.52862081870E+02 -0.11685024355E+02  0.91507087768E+02  0.00000000000E+00 0. -1.
</event>
<event>
 7    1  0.4274778E-006  0.5672862E+02  0.7561462E-02  0.1412097E+00
          1   -1    0    0  501    0  0.00000000000E+00  0.00000000000E+00  0.77759543749E+02  0.77759543749E+02  0.00000000000E+00 0. -1.
         -1   -1    0    0    0  501 -0.00000000000E+00 -0.00000000000E+00 -0.25944921863E+03  0.25944921863E+03  0.00000000000E+00 0.  1.
         23    2    1    2    0    0  0.17647301445E+02  0.79710212869E+01  0.22885515747E+02  0.96637573541E+02  0.91870067814E+02 0.  0.
          5    1    1    2  502    0  0.60975841412E+01  0.28193339731E+02  0.22453694260E+01  0.29232841487E+02  0.41800000000E+01 0.  1.
         -5    1    1    2    0  502 -0.23744885586E+02 -0.36164361018E+02 -0.20682056006E+03  0.21133834735E+03  0.41800000000E+01 0.  1.
        -11    1    3    3    0    0  0.18071699307E+02  0.21059811461E+02 -0.30753441041E+02  0.41423134967E+02  0.00000000000E+00 0.  1.
         11    1    3    3    0    0 -0.42439786208E+00 -0.13088790174E+02  0.53638956788E+02  0.55214438574E+02  0.00000000000E+00 0. -1.
</event>
<event>
 7    1  0.4274778E-006  0.8410049E+02  0.7561462E-02  0.1317802E+00
          1   -1    0    0  501    0  0.00000000000E+00  0.00000000000E+00  0.23868551255E+03  0.23868551255E+03  0.00000000000E+00 0. -1.
         -1   -1    0    0    0  501 -0.00000000000E+00 -0.00000000000E+00 -0.64834877748E+02  0.64834877748E+02  0.00000000000E+00 0.  1.
         23    2    1    2    0    0 -0.20157267514E+02  0.30443142094E+02  0.13798764101E+03  0.16836494367E+03  0.89292020092E+02 0.  0.
          5    1    1    2  502    0 -0.33107711050E+02  0.24398213824E+02  0.41252912720E+02  0.58400929587E+02  0.41800000000E+01 0.  1.
         -5    1    1    2    0  502  0.53264978563E+02 -0.54841355918E+02 -0.53899189250E+01  0.76754517041E+02  0.41800000000E+01 0.  1.
        -11    1    3    3    0    0 -0.21199883439E+02  0.14111368786E+01 -0.55153401171E+01  0.21950975872E+02  0.00000000000E+00 0.  1.
         11    1    3    3    0    0  0.10426159256E+01  0.29032005215E+02  0.14350298112E+03  0.14641396780E+03  0.00000000000E+00 0. -1.
</event>
<event>
 7    1  0.4274778E-006  0.9272566E+02  0.7561462E-02  0.1296382E+00
         -2   -1    0    0    0  501 -0.00000000000E+00  0.00000000000E+00  0.47870277116E+02  0.47870277116E+02  0.00000000000E+00 0.  1.
          2   -1    0    0  501    0  0.00000000000E+00 -0.00000000000E+00 -0.30037272249E+03  0.30037272249E+03  0.00000000000E+00 0. -1.
         23    2    1    2    0    0 -0.35399999797E+02  0.27496712989E+02 -0.15110620151E+03  0.18109952876E+03  0.89189270497E+02 0.  0.
          5    1    1    2  502    0 -0.18330965663E+02 -0.54196263061E+02 -0.88763326326E+02  0.10568661094E+03  0.41800000000E+01 0. -1.
         -5    1    1    2    0  502  0.53730965461E+02  0.26699550071E+02 -0.12632917534E+02  0.61456859900E+02  0.41800000000E+01 0. -1.
        -11    1    3    3    0    0 -0.11765825797E+02 -0.15151214679E+02  0.30427112769E+01  0.19422977498E+02  0.00000000000E+00 0.  1.
         11    1    3    3    0    0 -0.23634174000E+02  0.42647927669E+02 -0.15414891279E+03  0.16167655126E+03  0.00000000000E+00 0. -1.
</event>
<event>
 7    1  0.4274778E-006  0.1124073E+03  0.7561462E-02  0.1256176E+00
         -3   -1    0    0    0  501 -0.00000000000E+00  0.00000000000E+00  0.12110639294E+03  0.12110639294E+03  0.00000000000E+00 0.  1.
          3   -1    0    0  501    0  0.00000000000E+00 -0.00000000000E+00 -0.28331407332E+03  0.28331407332E+03  0.00000000000E+00 0. -1.
         23    2    1    2    0    0 -0.23238398538E+01 -0.43965475849E+02 -0.23268323104E+03  0.25424473863E+03  0.92523174489E+02 0.  0.
          5    1    1    2  502    0  0.57902322158E+02  0.17036132059E+02  0.63786353287E+02  0.87915186244E+02  0.41800000000E+01 0. -1.
         -5    1    1    2    0  502 -0.55578482304E+02  0.26929343790E+02  0.66891973722E+01  0.62260541386E+02  0.41800000000E+01 0. -1.
        -11    1    3    3    0    0  0.12537452540E+02  0.27073993564E+02 -0.71473809649E+02  0.77451238269E+02  0.00000000000E+00 0.  1.
         11    1    3    3    0    0 -0.14861292394E+02 -0.71039469413E+02 -0.16120942139E+03  0.17679350036E+03  0.00000000000E+00 0. -1.
</event>
<event>
 7    1  0.4274778E-006  0.7679627E+02  0.7561462E-02  0.1338397E+00
          1   -1    0    0  501    0  0.00000000000E+00  0.00000000000E+00  0.63554494757E+02  0.63554494757E+02  0.00000000000E+00 0. -1.
         -1   -1    0    0    0  501 -0.00000000000E+00 -0.00000000000E+00 -0.21342725085E+03  0.21342725085E+03  0.00000000000E+00 0.  1.
         23    2    1    2    0    0 -0.18053962641E+02 -0.62300688127E+01 -0.19400711511E+02  0.95225349000E+02  0.91250863890E+02 0.  0.
          5    1    1    2  502    0 -0.23705696311E+02  0.23767165136E+02 -0.13198012589E+03  0.13624633648E+03  0.41800000000E+01 0. -1.
         -5    1    1    2    0  502  0.41759658951E+02 -0.17537096323E+02  0.15080813038E+01  0.45510060123E+02  0.41800000000E+01 0. -1.
        -11    1    3    3    0    0 -0.10064738551E+02  0.32867675574E+02  0.19480077088E+02  0.39510207075E+02  0.00000000000E+00 0. -1.
         11    1    3    3    0    0 -0.79892240896E+01 -0.39097744387E+02 -0.38880788600E+02  0.55715141926E+02  0.00000000000E+00 0.  1.
</event>
<event>
 7    1  0.4274778E-006  0.1321194E+03  0.7561462E-02  0.1224344E+00
          2   -1    0    0  501    0  0.00000000000E+00  0.00000000000E+00  0.13139800606E+03  0.13139800606E+03  0.00000000000E+00 0. -1.
         -2   -1    0    0    0  501 -0.00000000000E+00 -0.00000000000E+00 -0.20611599223E+03  0.20611599223E+03  0.00000000000E+00 0.  1.
         23    2    1    2    0    0 -0.91506135760E+02  0.78326567540E+02 -0.62600895426E+02  0.16343397259E+03  0.91013005804E+02 0.  0.
          5    1    1    2  502    0  0.10020974670E+03 -0.83632806883E+02  0.27075891704E+02  0.13336797229E+03  0.41800000000E+01 0.  1.
         -5    1    1    2    0  502 -0.87036109424E+01  0.53062393424E+01 -0.39192982443E+02  0.40712053401E+02  0.41800000000E+01 0.  1.
        -11    1    3    3    0    0 -0.62233581926E+02  0.66446883415E+02  0.24988284355E+01  0.91073877586E+02  0.00000000000E+00 0. -1.
         11    1    3    3    0    0 -0.29272553834E+02  0.11879684125E+02 -0.65099723861E+02  0.72360095009E+02  0.00000000000E+00 0.  1.
</event>
<event>
 7    1  0.4274778E-006  0.1086569E+03  0.7561462E-02  0.1263078E+00
         -4   -1    0    0    0  501 -0.00000000000E+00  0.00000000000E+00  0.49904021849E+02  0.49904021849E+02  0.00000000000E+00 0.  1.
          4   -1    0    0  501    0  0.00000000000E+00 -0.00000000000E+00 -0.32596164528E+03  0.32596164528E+03  0.00000000000E+00 0. -1.
         23    2    1    2    0    0  0.90193763193E+01 -0.56350314618E+02 -0.16522283715E+03  0.19925542908E+03  0.95642213465E+02 0.  0.
          5    1    1    2  502    0  0.40030154098E+02  0.62954021925E+02 -0.10155681439E+03  0.12608283413E+03  0.41800000000E+01 0. -1.
         -5    1    1    2    0  502 -0.49049530418E+02 -0.66037073066E+01 -0.92779718997E+01  0.50527403921E+02  0.41800000000E+01 0. -1.
        -11    1    3    3    0    0  0.39322382661E+02 -0.15975459227E+02 -0.13241114100E+03  0.13904738522E+03  0.00000000000E+00 0. -1.
         11    1    3    3    0    0 -0.30303006342E+02 -0.40374855392E+02 -0.32811696142E+02  0.60208043856E+02  0.00000000000E+00 0.  1.
</event>
<event>
 7    1  0.4274778E-006  0.1045596E+03  0.7561462E-02  0.1270990E+00
          2   -1    0    0  501    0  0.00000000000E+00  0.00000000000E+00  0.10809267706E+03  0.10809267706E+03  0.00000000000E+00 0. -1.
         -2   -1    0    0    0  501 -0.00000000000E+00 -0.00000000000E+00 -0.14904696914E+03  0.14904696914E+03  0.00000000000E+00 0.  1.
         23    2    1    2    0    0  0.81770032829E+01 -0.47635635711E+02  0.27308723918E+02  0.10665950868E+03  0.91073965644E+02 0.  0.
          5    1    1    2  502    0  0.38317967425E+02  0.65905406740E+02 -0.15896836328E+02  0.77986992956E+02  0.41800000000E+01 0.  1.
         -5    1    1    2    0  502 -0.46494970708E+02 -0.18269771029E+02 -0.52366179669E+02  0.72493144557E+02  0.41800000000E+01 0.  1.
        -11    1    3    3    0    0  0.10087219711E+02 -0.64693323199E+02 -0.93902602719E+01  0.66144954880E+02  0.00000000000E+00 0.  1.
         11    1    3    3    0    0 -0.19102164285E+01  0.17057687489E+02  0.36698984189E+02  0.40514553802E+02  0.00000000000E+00 0. -1.
</event>
<event>
 7    1  0.4274778E-006  0.1355727E+03  0.7561462E-02  0.1219413E+00
         -4   -1    0    0    0  501 -0.00000000000E+00  0.00000000000E+00  0.17344620150E+03  0.17344620150E+03  0.00000000000E+00 0.  1.
          4   -1    0    0  501    0  0.00000000000E+00 -0.00000000000E+00 -0.11186938762E+03  0.11186938762E+03  0.00000000000E+00 0. -1.
         23    2    1    2    0    0  0.68896597224E+02 -0.44841877946E+02 -0.22227184797E+01  0.12260410187E+03  0.90935637630E+02 0.  0.
          5    1    1    2  502    0 -0.38158879228E+02 -0.42289834020E+02  0.21798671878E+02  0.61132516888E+02  0.41800000000E+01 0. -1.
         -5    1    1    2    0  502 -0.30737717996E+02  0.87131711966E+02  0.42000860485E+02  0.10157897036E+03  0.41800000000E+01 0. -1.
        -11    1    3    3    0    0  0.75687802083E+02  0.50543909406E+00  0.63544540823E+01  0.75955763043E+02  0.00000000000E+00 0.  1.
         11    1    3    3    0    0 -0.67912048588E+01 -0.45347317040E+02 -0.85771725619E+01  0.46648338827E+02  0.00000000000E+00 0. -1.
</event>
<event>
 7    1  0.4274778E-006  0.1004251E+03  0.7561462E-02  0.1279405E+00
          1   -1    0    0  501    0  0.00000000000E+00  0.00000000000E+00  0.44443410021E+02  0.44443410021E+02  0.00000000000E+00 0. -1.
         -1   -1    0    0    0  501 -0.00000000000E+00 -0.00000000000E+00 -0.35585162332E+03  0.35585162332E+03  0.00000000000E+00 0.  1.
         23    2    1    2    0    0  0.35098081063E+02 -0.68100130743E+01 -0.50682675944E+02  0.11333461781E+03  0.94856472536E+02 0.  0.
          5    1    1    2  502    0 -0.59126229845E+02 -0.36757604552E+02 -0.15990617352E+03  0.17445483449E+03  0.41800000000E+01 0. -1.
         -5    1    1    2    0  502  0.24028148782E+02  0.43567617627E+02 -0.10081936384E+03  0.11250558104E+03  0.41800000000E+01 0.  1.
        -11    1    3    3    0    0  0.24042233370E+02  0.32450892301E+02 -0.59202850758E+02  0.71666358456E+02  0.00000000000E+00 0.  1.
         11    1    3    3    0    0  0.11055847694E+02 -0.39260905375E+02  0.85201748142E+01  0.41668259358E+02  0.00000000000E+00 0. -1.
</event>
<event>
 7    1  0.4274778E-006  0.1143772E+03  0.7561462E-02  0.1252672E+00
          2   -1    0    0  501    0  0.00000000000E+00  0.00000000000E+00  0.16407815548E+04  0.16407815548E+04  0.00000000000E+00 0. -1.
         -2   -1    0    0    0  501 -0.00000000000E+00 -0.00000000000E+00 -0.12039628338E+02  0.12039628338E+02  0.00000000000E+00 0.  1.
         23    2    1    2    0    0 -0.61457904888E+02  0.58163429902E+02  0.56491405540E+03  0.57832747213E+03  0.90414138184E+02 0.  0.
          5    1    1    2  502    0  0.18960050772E+02  0.12002374386E+02  0.74194187831E+03  0.74229290965E+03  0.41800000000E+01 0. -1.
         -5    1    1    2    0  502  0.42497854116E+02 -0.70165804288E+02  0.32188599273E+03  0.33220080134E+03  0.41800000000E+01 0. -1.
        -11    1    3    3    0    0 -0.22973591322E+02  0.77419984305E+02  0.37579426846E+03  0.38437347994E+03  0.00000000000E+00 0. -1.
         11    1    3    3    0    0 -0.38484313567E+02 -0.19256554403E+02  0.18911978693E+03  0.19395399219E+03  0.00000000000E+00 0.  1.
</event>
<event>
 7    1  0.4274778E-006  0.1593823E+03  0.7561462E-02  0.1189396E+00
         -4   -1    0    0    0  501 -0.00000000000E+00  0.00000000000E+00  0.20437204070E+03  0.20437204070E+03  0.00000000000E+00 0.  1.
          4   -1    0    0  501    0  0.00000000000E+00 -0.00000000000E+00 -0.16002867167E+03  0.16002867167E+03  0.00000000000E+00 0. -1.
         23    2    1    2    0    0 -0.89023244514E+02 -0.97115835622E+02 -0.36228125004E+02  0.16566413930E+03  0.93677672984E+02 0.  0.
          5    1    1    2  502    0  0.52742207607E+01  0.69308620079E+02 -0.12127787707E+02  0.70682797458E+02  0.41800000000E+01 0.  1.
         -5    1    1    2    0  502  0.83749023753E+02  0.27807215543E+02  0.92699281742E+02  0.12805377562E+03  0.41800000000E+01 0.  1.
        -11    1    3    3    0    0 -0.28448013948E+02 -0.96079101378E+02 -0.14218567948E+02  0.10120598250E+03  0.00000000000E+00 0.  1.
         11    1    3    3    0    0 -0.60575230566E+02 -0.10367342438E+01 -0.22009557056E+02  0.64458156798E+02  0.00000000000E+00 0. -1.
</event>
<event>
 7    1  0.4274778E-006  0.9711408E+02  0.7561462E-02  0.1286484E+00
         -4   -1    0    0    0  501 -0.00000000000E+00  0.00000000000E+00  0.10475692525E+03  0.10475692525E+03  0.00000000000E+00 0.  1.
          4   -1    0    0  501    0  0.00000000000E+00 -0.00000000000E+00 -0.20165015165E+03  0.20165015165E+03  0.00000000000E+00 0. -1.
         23    2    1    2    0    0 -0.25426689541E+02  0.69959240500E+01 -0.14257714848E+03  0.17082299319E+03  0.90314961312E+02 0.  0.
          5    1    1    2  502    0  0.12815351681E+02 -0.62368321714E+02  0.45963458863E+02  0.78639384171E+02  0.41800000000E+01 0. -1.
         -5    1    1    2    0  502  0.12611337861E+02  0.55372397664E+02 -0.27953678286E+00  0.56944699547E+02  0.41800000000E+01 0. -1.
        -11    1    3    3    0    0 -0.42248022056E+02 -0.15834190932E+02 -0.28710173321E+02  0.53477948934E+02  0.00000000000E+00 0.  1.
         11    1    3    3    0    0  0.16821332514E+02  0.22830114982E+02 -0.11386697516E+03  0.11734504425E+03  0.00000000000E+00 0. -1.
</event>
<event>
 7    1  0.4274778E-006  0.9896608E+02  0.7561462E-02  0.1282485E+00
          2   -1    0    0  501    0  0.00000000000E+00  0.00000000000E+00  0.27938203385E+03  0.27938203385E+03  0.00000000000E+00 0. -1.
         -2   -1    0    0    0  501 -0.00000000000E+00 -0.00000000000E+00 -0.87723683463E+02  0.87723683463E+02  0.00000000000E+00 0.  1.
         23    2    1    2    0    0 -0.44435438998E+02  0.75629682463E+01  0.21732382057E+03  0.24098140757E+03  0.93865270874E+02 0.  0.
          5    1    1    2  502    0 -0.32027393132E+02 -0.31073795110E+01 -0.36295017291E+02  0.48684806649E+02  0.41800000000E+01 0. -1.
         -5    1    1    2    0  502  0.76462832130E+02 -0.44555887353E+01  0.10629547105E+02  0.77439503097E+02  0.41800000000E+01 0.  1.
        -11    1    3    3    0    0 -0.34211637399E+02  0.41239671781E+02  0.18699917624E+03  0.19452464773E+03  0.00000000000E+00 0. -1.
         11    1    3    3    0    0 -0.10223801600E+02 -0.33676703535E+02  0.30324644337E+02  0.46456759834E+02  0.00000000000E+00 0.  1.
</event>
<event>
 7    1  0.4274778E-006  0.8445192E+02  0.7561462E-02  0.1316872E+00
         -1   -1    0    0    0  501 -0.00000000000E+00  0.00000000000E+00  0.81710673176E+03  0.81710673176E+03  0.00000000000E+00 0.  1.
          1   -1    0    0  501    0  0.00000000000E+00 -0.00000000000E+00 -0.20167302691E+02  0.20167302691E+02  0.00000000000E+00 0. -1.
         23    2    1    2    0    0 -0.52940402167E+02  0.37076761356E+02  0.25922580731E+03  0.28143182005E+03  0.88478685274E+02 0.  0.
          5    1    1    2  502    0  0.26501096520E+02 -0.84725797890E+01  0.15423679110E+02  0.32085121199E+02  0.41800000000E+01 0. -1.
         -5    1    1    2    0  502  0.26439305647E+02 -0.28604181567E+02  0.52228994265E+03  0.52375709320E+03  0.41800000000E+01 0. -1.
        -11    1    3    3    0    0 -0.10663307483E+02 -0.24603746937E+02  0.29615719556E+02  0.39951737568E+02  0.00000000000E+00 0. -1.
         11    1    3    3    0    0 -0.42277094684E+02  0.61680508293E+02  0.22961008775E+03  0.24148008248E+03  0.00000000000E+00 0.  1.
</event>
<event>
 7    1  0.4274778E-006  0.9659889E+02  0.7561462E-02  0.1287615E+00
         -1   -1    0    0    0  501 -0.00000000000E+00  0.00000000000E+00  0.56197927514E+02  0.56197927514E+02  0.00000000000E+00 0.  1.
          1   -1    0    0  501    0  0.00000000000E+00 -0.00000000000E+00 -0.25864538972E+03  0.25864538972E+03  0.00000000000E+00 0. -1.
         23    2    1    2    0    0  0.20508172007E+02 -0.11956977028E+02 -0.14856358756E+03  0.17658475983E+03  0.92452601040E+02 0.  0.
          5    1    1    2  502    0  0.18889488121E+02  0.43362251900E+02 -0.70537431983E+02  0.85029990957E+02  0.41800000000E+01 0. -1.
         -5    1    1    2    0  502 -0.39397660129E+02 -0.31405274872E+02  0.16653557336E+02  0.53228566441E+02  0.41800000000E+01 0. -1.
        -11    1    3    3    0    0 -0.36514258885E+02 -0.10976161033E+02 -0.66387727727E+02  0.76557805649E+02  0.00000000000E+00 0.  1.
         11    1    3    3    0    0  0.57022430892E+02 -0.98081599506E+00 -0.82175859828E+02  0.10002695418E+03  0.00000000000E+00 0. -1.
</event>
<event>
 7    1  0.4274778E-006  0.8053189E+02  0.7561462E-02  0.1327549E+00
         -1   -1    0    0    0  501 -0.00000000000E+00  0.00000000000E+00  0.11544434437E+03  0.11544434437E+03  0.00000000000E+00 0.  1.
          1   -1    0    0  501    0  0.00000000000E+00 -0.00000000000E+00 -0.10904293598E+03  0.10904293598E+03  0.00000000000E+00 0. -1.
         23    2    1    2    0    0 -0.20430690540E+02  0.36197276823E+00 -0.24236216960E+02  0.94083731950E+02  0.88582223187E+02 0.  0.
          5    1    1    2  502    0  0.13169499769E+01 -0.35450566638E+02 -0.37193070909E+02  0.51568148656E+02  0.41800000000E+01 0. -1.
         -5    1    1    2    0  502  0.19113740563E+02  0.35088593870E+02  0.67830696256E+02  0.78835399743E+02  0.41800000000E+01 0. -1.
        -11    1    3    3    0    0  0.12735374193E+01  0.39977100938E+02  0.49521200283E+01  0.40302778933E+02  0.00000000000E+00 0. -1.
         11    1    3    3    0    0 -0.21704227959E+02 -0.39615128170E+02 -0.29188336988E+02  0.53780953016E+02  0.00000000000E+00 0.  1.
</event>
<event>
 7    1  0.4274778E-006  0.7041860E+02  0.7561462E-02  0.1358675E+00
          2   -1    0    0  501    0  0.00000000000E+00  0.00000000000E+00  0.31711369947E+03  0.31711369947E+03  0.00000000000E+00 0. -1.
         -2   -1    0    0    0  501 -0.00000000000E+00 -0.00000000000E+00 -0.40361865443E+02  0.40361865443E+02  0.00000000000E+00 0.  1.
         23    2    1    2    0    0 -0.49451934702E+01 -0.27321834908E+02  0.11283321928E+03  0.14941736343E+03  0.93932292211E+02 0.  0.
          5    1    1    2  502    0 -0.63302505243E+01 -0.24760620502E+02 -0.87267414438E+01  0.27327437047E+02  0.41800000000E+01 0. -1.
         -5    1    1    2    0  502  0.11275443995E+02  0.52082455410E+02  0.17264535619E+03  0.18073076443E+03  0.41800000000E+01 0. -1.
        -11    1    3    3    0    0  0.24698835218E+02 -0.17458036658E+02 -0.20950320061E+01  0.30318388219E+02  0.00000000000E+00 0.  1.
         11    1    3    3    0    0 -0.29644028688E+02 -0.98637982501E+01  0.11492825128E+03  0.11909897521E+03  0.00000000000E+00 0. -1.
</event>
<event>
 7    1  0.4274778E-006  0.7700515E+02  0.7561462E-02  0.1337772E+00
          3   -1    0    0  501    0  0.00000000000E+00  0.00000000000E+00  0.12525739260E+03  0.12525739260E+03  0.00000000000E+00 0. -1.
         -3   -1    0    0    0  501 -0.00000000000E+00 -0.00000000000E+00 -0.12184207801E+03  0.12184207801E+03  0.00000000000E+00 0.  1.
         23    2    1    2    0    0 -0.36648719346E+02  0.22509076287E+02  0.40565219661E+02  0.10970522308E+03  0.92411643092E+02 0.  0.
          5    1    1    2  502    0  0.21833502842E+02  0.18000656232E+02  0.39840409957E+02  0.49045449704E+02  0.41800000000E+01 0. -1.
         -5    1    1    2    0  502  0.14815216505E+02 -0.40509732519E+02 -0.76990315034E+02  0.88348797829E+02  0.41800000000E+01 0. -1.
        -11    1    3    3    0    0 -0.20897604171E+02  0.47860597637E+02  0.55604742978E+02  0.76283904645E+02  0.00000000000E+00 0. -1.
         11    1    3    3    0    0 -0.15751115176E+02 -0.25351521350E+02 -0.15039523317E+02  0.33421318431E+02  0.00000000000E+00 0.  1.
</event>
<event>
 6    1  0.4274778E-006  0.1940069E+03  0.7561462E-02  0.1154896E+00
         -2   -1    0    0    0  501 -0.00000000000E+00  0.00000000000E+00  0.65286140525E+02  0.65286140525E+02  0.00000000000E+00 0.  1.
          2   -1    0    0  501    0  0.00000000000E+00 -0.00000000000E+00 -0.83575427358E+03  0.83575427358E+03  0.00000000000E+00 0. -1.
          5    1    1    2  502    0 -0.23070830802E+02  0.51919917607E+02 -0.24065672079E+03  0.24730764392E+03  0.41800000000E+01 0. -1.
         -5    1    1    2    0  502 -0.99799726412E+02 -0.10111815070E+03 -0.83496510470E+02  0.16484539864E+03  0.41800000000E+01 0.  1.
        -11    1    1    2    0    0  0.49103932339E+02 -0.46806537680E+02 -0.90945506573E+02  0.11345983125E+03  0.00000000000E+00 0.  1.
         11    1    1    2    0    0  0.73766624875E+02  0.96004770770E+02 -0.35536939522E+03  0.37542754030E+03  0.00000000000E+00 0. -1.
</event>
<event>
 7    1  0.4274778E-006  0.1274176E+03  0.7561462E-02  0.1231339E+00
          2   -1    0    0  501    0  0.00000000000E+00  0.00000000000E+00  0.37956914618E+03  0.37956914618E+03  0.00000000000E+00 0.  1.
         -2   -1    0    0    0  501 -0.00000000000E+00 -0.00000000000E+00 -0.53472411157E+02  0.53472411157E+02  0.00000000000E+00 0. -1.
         23    2    1    2    0    0 -0.83927095442E+02 -0.14945064840E+02  0.20125521900E+03  0.23682881359E+03  0.91198198768E+02 0.  0.
          5    1    1    2  502    0  0.95889618696E+02 -0.23805553738E+02  0.11947498919E+03  0.15509116288E+03  0.41800000000E+01 0. -1.
         -5    1    1    2    0  502 -0.11962523254E+02  0.38750618578E+02  0.53665268347E+01  0.41121580868E+02  0.41800000000E+01 0. -1.
        -11    1    3    3    0    0  0.56721431858E+01  0.18644312730E+02  0.80136335857E+02  0.82471909946E+02  0.00000000000E+00 0.  1.
         11    1    3    3    0    0 -0.89599238628E+02 -0.33589377570E+02  0.12111888314E+03  0.15435690364E+03  0.00000000000E+00 0. -1.
</event>
<event>
 7    1  0.4274778E-006  0.1073021E+03  0.7561462E-02  0.1265649E+00
         -4   -1    0    0    0  501 -0.00000000000E+00  0.00000000000E+00  0.15205196197E+03  0.15205196197E+03  0.00000000000E+00 0.  1.
          4   -1    0    0  501    0  0.00000000000E+00 -0.00000000000E+00 -0.84774591962E+02  0.84774591962E+02  0.00000000000E+00 0. -1.
         23    2    1    2    0    0 -0.29552316596E+02  0.23156028730E+02  0.31186095538E+02  0.10132604924E+03  0.88796703865E+02 0.  0.
          5    1    1    2  502    0  0.53487910972E+02  0.35041424141E+02  0.26938977553E+01  0.64137255251E+02  0.41800000000E+01 0. -1.
         -5    1    1    2    0  502 -0.23935594377E+02 -0.58197452871E+02  0.33397376710E+02  0.71363249436E+02  0.41800000000E+01 0. -1.
        -11    1    3    3    0    0 -0.48196976468E+02  0.39768326265E+02  0.40734847688E+02  0.74590858225E+02  0.00000000000E+00 0.  1.
         11    1    3    3    0    0  0.18644659872E+02 -0.16612297534E+02 -0.95487521494E+01  0.26735191017E+02  0.00000000000E+00 0. -1.
</event>
<event>
 7    1  0.4274778E-006  0.9474084E+02  0.7561462E-02  0.1291761E+00
          1   -1    0    0  501    0  0.00000000000E+00  0.00000000000E+00  0.26380765557E+03  0.26380765557E+03  0.00000000000E+00 0. -1.
         -1   -1    0    0    0  501 -0.00000000000E+00 -0.00000000000E+00 -0.65279309115E+02  0.65279309115E+02  0.00000000000E+00 0.  1.
         23    2    1    2    0    0 -0.48751470069E+02  0.40985412642E+02  0.13799088440E+03  0.17621587391E+03  0.89185425697E+02 0.  0.
          5    1    1    2  502    0 -0.21307566683E+01 -0.58999823945E+02  0.76225240465E+02  0.96505331632E+02  0.41800000000E+01 0. -1.
         -5    1    1    2    0  502  0.50882226737E+02  0.18014411303E+02 -0.15687778410E+02  0.56365759143E+02  0.41800000000E+01 0. -1.
        -11    1    3    3    0    0 -0.38568584807E+02  0.51596949421E+01  0.63740654403E+01  0.39430786147E+02  0.00000000000E+00 0.  1.
         11    1    3    3    0    0 -0.10182885261E+02  0.35825717700E+02  0.13161681896E+03  0.13678508776E+03  0.00000000000E+00 0. -1.
</event>
<event>
 7    1  0.6670435E-006  0.2020216E+03  0.7561462E-02  0.1148044E+00
         -1   -1    0    0    0  501 -0.00000000000E+00  0.00000000000E+00  0.12854681581E+03  0.12854681581E+03  0.00000000000E+00 0.  1.
          1   -1    0    0  501    0  0.00000000000E+00 -0.00000000000E+00 -0.40407776438E+03  0.40407776438E+03  0.00000000000E+00 0. -1.
         23    2    1    2    0    0 -0.16316901814E+03 -0.10023711243E+03 -0.19767702858E+03  0.29100434484E+03  0.94528905107E+02 0.  0.
          5    1    1    2  502    0  0.11426314537E+03  0.62298936011E+02  0.13805981188E+02  0.13094006772E+03  0.41800000000E+01 0. -1.
         -5    1    1    2    0  502  0.48905872762E+02  0.37938176418E+02 -0.91659901184E+02  0.11068016763E+03  0.41800000000E+01 0. -1.
        -11    1    3    3    0    0 -0.30371462507E+02 -0.68979349084E+02 -0.88689335494E+02  0.11638889365E+03  0.00000000000E+00 0. -1.
         11    1    3    3    0    0 -0.13279755563E+03 -0.31257763345E+02 -0.10898769309E+03  0.17461545119E+03  0.00000000000E+00 0.  1.
</event>
<event>
 7    1  0.4274778E-006  0.1239589E+03  0.7561462E-02  0.1236705E+00
         -1   -1    0    0    0  501 -0.00000000000E+00  0.00000000000E+00  0.21846566172E+03  0.21846566172E+03  0.00000000000E+00 0.  1.
          1   -1    0    0  501    0  0.00000000000E+00 -0.00000000000E+00 -0.23854636432E+03  0.23854636432E+03  0.00000000000E+00 0. -1.
         23    2    1    2    0    0  0.90919595190E+02 -0.45630952351E+02 -0.18267947915E+03  0.22802858974E+03  0.90976310297E+02 0.  0.
          5    1    1    2  502    0 -0.16087538289E+02  0.66264457644E+02  0.12540565489E+03  0.14280699533E+03  0.41800000000E+01 0. -1.
         -5    1    1    2    0  502 -0.74832056900E+02 -0.20633505293E+02  0.37193121656E+02  0.86176440975E+02  0.41800000000E+01 0. -1.
        -11    1    3    3    0    0  0.42258986898E+02 -0.18282967842E+02 -0.10774572946E+02  0.47288268195E+02  0.00000000000E+00 0.  1.
         11    1    3    3    0    0  0.48660608292E+02 -0.27347984509E+02 -0.17190490620E+03  0.18074032154E+03  0.00000000000E+00 0. -1.
</event>
<event>
 7    1  0.4274778E-006  0.1267470E+03  0.7561462E-02  0.1232364E+00
         -1   -1    0    0    0  501 -0.00000000000E+00  0.00000000000E+00  0.68783162928E+02  0.68783162928E+02  0.00000000000E+00 0.  1.
          1   -1    0    0  501    0  0.00000000000E+00 -0.00000000000E+00 -0.32938883372E+03  0.32938883372E+03  0.00000000000E+00 0. -1.
         23    2    1    2    0    0 -0.60127406747E+02  0.31864671100E+02 -0.22336750141E+03  0.25098165756E+03  0.92022222523E+02 0.  0.
          5    1    1    2  502    0  0.55828561327E+02  0.40894498579E+02 -0.20379152939E+02  0.72263203281E+02  0.41800000000E+01 0. -1.
         -5    1    1    2    0  502  0.42988454204E+01 -0.72759169679E+02 -0.16859016436E+02  0.74927135802E+02  0.41800000000E+01 0. -1.
        -11    1    3    3    0    0 -0.51078681683E+02 -0.22665958856E+02 -0.14213731767E+03  0.15272784451E+03  0.00000000000E+00 0.  1.
         11    1    3    3    0    0 -0.90487250648E+01  0.54530629956E+02 -0.81230183742E+02  0.98253813053E+02  0.00000000000E+00 0. -1.
</event>
<event>
 7    1  0.4274778E-006  0.1068235E+03  0.7561462E-02  0.1266568E+00
          2   -1    0    0  501    0  0.00000000000E+00  0.00000000000E+00  0.17965848393E+03  0.17965848393E+03  0.00000000000E+00 0. -1.
         -2   -1    0    0    0  501 -0.00000000000E+00 -0.00000000000E+00 -0.80565108984E+02  0.80565108984E+02  0.00000000000E+00 0.  1.
         23    2    1    2    0    0  0.12143050814E+02  0.25802570871E+02  0.92188635598E+02  0.13174195370E+03  0.89688190323E+02 0.  0.
          5    1    1    2  502    0  0.49563004446E+02 -0.35041663075E+02  0.21025230018E+02  0.64373459267E+02  0.41800000000E+01 0. -1.
         -5    1    1    2    0  502 -0.61706055260E+02  0.92390922037E+01 -0.14120490666E+02  0.64108179955E+02  0.41800000000E+01 0. -1.
        -11    1    3    3    0    0 -0.28875089528E+02  0.37768923517E+02  0.66961515410E+02  0.82122511682E+02  0.00000000000E+00 0.  1.
         11    1    3    3    0    0  0.41018140342E+02 -0.11966352645E+02  0.25227120188E+02  0.49619442014E+02  0.00000000000E+00 0. -1.
</event>
<event>
 7    1  0.4274778E-006  0.1046237E+03  0.7561462E-02  0.1270863E+00
         -2   -1    0    0    0  501 -0.00000000000E+00  0.00000000000E+00  0.84681418027E+02  0.84681418027E+02  0.00000000000E+00 0.  1.
          2   -1    0    0  501    0  0.00000000000E+00 -0.00000000000E+00 -0.16081084558E+03  0.16081084558E+03  0.00000000000E+00 0. -1.
         23    2    1    2    0    0  0.27993476562E+02 -0.94619010673E+01 -0.66234258958E+02  0.11658066371E+03  0.91273828615E+02 0.  0.
          5    1    1    2  502    0 -0.51582396517E+02  0.54673388392E+02 -0.17212409516E+02  0.77224752962E+02  0.41800000000E+01 0.  1.
         -5    1    1    2    0  502  0.23588919956E+02 -0.45211487325E+02  0.73172409244E+01  0.51686846930E+02  0.41800000000E+01 0.  1.
        -11    1    3    3    0    0 -0.25127826338E+02  0.88031826153E+01 -0.52326515067E+02  0.58710883656E+02  0.00000000000E+00 0.  1.
         11    1    3    3    0    0  0.53121302899E+02 -0.18265083683E+02 -0.13907743891E+02  0.57869780057E+02  0.00000000000E+00 0. -1.
</event>
<event>
 7    1  0.4274778E-006  0.1293031E+03  0.7561462E-02  0.1228493E+00
          1   -1    0    0  501    0  0.00000000000E+00  0.00000000000E+00  0.77400083337E+03  0.77400083337E+03  0.00000000000E+00 0. -1.
         -1   -1    0    0    0  501 -0.00000000000E+00 -0.00000000000E+00 -0.31245339662E+02  0.31245339662E+02  0.00000000000E+00 0.  1.
         23    2    1    2    0    0 -0.72160311190E+02 -0.52116224395E+02  0.51824961993E+03  0.53326503956E+03  0.88688908602E+02 0.  0.
          5    1    1    2  502    0  0.98303149412E+02  0.19174234028E+02  0.19845384989E+03  0.22233435041E+03  0.41800000000E+01 0.  1.
         -5    1    1    2    0  502 -0.26142838222E+02  0.32941990367E+02  0.26052023893E+02  0.49646783064E+02  0.41800000000E+01 0.  1.
        -11    1    3    3    0    0 -0.70843873375E+01 -0.50511023426E+02  0.13094528881E+03  0.14052836260E+03  0.00000000000E+00 0.  1.
         11    1    3    3    0    0 -0.65075923852E+02 -0.16052009683E+01  0.38730433111E+03  0.39273667696E+03  0.00000000000E+00 0. -1.
</event>
<event>
 7    1  0.4274778E-006  0.1984963E+03  0.7561462E-02  0.1151014E+00
         -3   -1    0    0    0  501 -0.00000000000E+00  0.00000000000E+00  0.75393506116E+02  0.75393506116E+02  0.00000000000E+00 0.  1.
          3   -1    0    0  501    0  0.00000000000E+00 -0.00000000000E+00 -0.55379377217E+03  0.55379377217E+03  0.00000000000E+00 0. -1.
         23    2    1    2    0    0 -0.55797919988E+02  0.16282542619E+03 -0.26237991881E+03  0.32597177629E+03  0.88254460821E+02 0.  0.
          5    1    1    2  502    0  0.35834813479E+02  0.47786929243E+01 -0.74479692742E+02  0.82895517334E+02  0.41800000000E+01 0. -1.
         -5    1    1    2    0  502  0.19963106509E+02 -0.16760411911E+03 -0.14154065451E+03  0.22031998466E+03  0.41800000000E+01 0. -1.
        -11    1    3    3    0    0 -0.78208318843E+02  0.13515462235E+03 -0.19553439049E+03  0.25023391246E+03  0.00000000000E+00 0. -1.
         11    1    3    3    0    0  0.22410398854E+02  0.27670803839E+02 -0.66845528320E+02  0.75737863835E+02  0.00000000000E+00 0.  1.
</event>
<event>
 7    1  0.4274778E-006  0.2052655E+03  0.7561462E-02  0.1145371E+00
         -3   -1    0    0    0  501 -0.00000000000E+00  0.00000000000E+00  0.85746875211E+02  0.85746875211E+02  0.00000000000E+00 0.  1.
          3   -1    0    0  501    0  0.00000000000E+00 -0.00000000000E+00 -0.49777356447E+03  0.49777356447E+03  0.00000000000E+00 0. -1.
         23    2    1    2    0    0  0.13988420728E+02 -0.17384429243E+03 -0.21209442477E+03  0.29019878843E+03  0.93881722724E+02 0.  0.
          5    1    1    2  502    0  0.10555559942E+02  0.18608899088E+03 -0.18008997195E+03  0.25921111621E+03  0.41800000000E+01 0. -1.
         -5    1    1    2    0  502 -0.24543980670E+02 -0.12244698446E+02 -0.19842292534E+02  0.34110535032E+02  0.41800000000E+01 0. -1.
        -11    1    3    3    0    0 -0.37055118493E+02 -0.99447014362E+02 -0.95476934273E+02  0.14275375809E+03  0.00000000000E+00 0.  1.
         11    1    3    3    0    0  0.51043539221E+02 -0.74397278072E+02 -0.11661749050E+03  0.14744503034E+03  0.00000000000E+00 0. -1.
</event>
<event>
 7    1  0.4274778E-006  0.1593686E+03  0.7561462E-02  0.1189411E+00
          1   -1    0    0  501    0  0.00000000000E+00  0.00000000000E+00  0.35197045202E+03  0.35197045202E+03  0.00000000000E+00 0. -1.
         -1   -1    0    0    0  501 -0.00000000000E+00 -0.00000000000E+00 -0.92014782491E+02  0.92014782491E+02  0.00000000000E+00 0.  1.
         23    2    1    2    0    0  0.44328959986E+02  0.13569898470E+03  0.13332518064E+03  0.21581545877E+03  0.91768389493E+02 0.  0.
          5    1    1    2  502    0 -0.21347932937E+02 -0.14616969382E+03  0.13607444442E+03  0.20088564024E+03  0.41800000000E+01 0. -1.
         -5    1    1    2    0  502 -0.22981027049E+02  0.10470709122E+02 -0.94439555259E+01  0.27284135495E+02  0.41800000000E+01 0. -1.
        -11    1    3    3    0    0  0.29881404627E+02  0.48454704507E+02  0.13402237681E+01  0.56943418681E+02  0.00000000000E+00 0.  1.
         11    1    3    3    0    0  0.14447555359E+02  0.87244280192E+02  0.13198495687E+03  0.15887204009E+03  0.00000000000E+00 0. -1.
</event>
<event>
 7    1  0.4274778E-006  0.1781081E+03  0.7561462E-02  0.1169647E+00
         -1   -1    0    0    0  501 -0.00000000000E+00  0.00000000000E+00  0.27746244402E+03  0.27746244402E+03  0.00000000000E+00 0.  1.
          1   -1    0    0  501    0  0.00000000000E+00 -0.00000000000E+00 -0.15996087330E+03  0.15996087330E+03  0.00000000000E+00 0. -1.
         23    2    1    2    0    0 -0.10185465552E+03 -0.11436564630E+03 -0.41075907028E+02  0.18394824527E+03  0.93251567785E+02 0.  0.
          5    1    1    2  502    0  0.78754093480E+02  0.13016018531E+03  0.16499143553E+03  0.22446275254E+03  0.41800000000E+01 0.  1.
         -5    1    1    2    0  502  0.23100562041E+02 -0.15794539015E+02 -0.64139577858E+01  0.29012319518E+02  0.41800000000E+01 0.  1.
        -11    1    3    3    0    0  0.77313478170E+01  0.82345008763E+01 -0.12844264315E+02  0.17104264660E+02  0.00000000000E+00 0. -1.
         11    1    3    3    0    0 -0.10958600334E+03 -0.12260014717E+03 -0.28231642712E+02  0.16684398061E+03  0.00000000000E+00 0.  1.
</event>
<event>
 7    1  0.4274778E-006  0.1020701E+03  0.7561462E-02  0.1276002E+00
          2   -1    0    0  501    0  0.00000000000E+00  0.00000000000E+00  0.27203860269E+03  0.27203860269E+03  0.00000000000E+00 0. -1.
         -2   -1    0    0    0  501 -0.00000000000E+00 -0.00000000000E+00 -0.53648616784E+02  0.53648616784E+02  0.00000000000E+00 0.  1.
         23    2    1    2    0    0 -0.23761807331E+02  0.48376735446E+02  0.99171303857E+02  0.14467347631E+03  0.90501575777E+02 0.  0.
          5    1    1    2  502    0  0.66555344021E+02 -0.21720429657E+02  0.10866854296E+03  0.12933566991E+03  0.41800000000E+01 0. -1.
         -5    1    1    2    0  502 -0.42793536690E+02 -0.26656305788E+02  0.10550139090E+02  0.51678073257E+02  0.41800000000E+01 0. -1.
        -11    1    3    3    0    0 -0.32258364711E+02 -0.20070156908E+01  0.86051069898E+02  0.91920709508E+02  0.00000000000E+00 0. -1.
         11    1    3    3    0    0  0.84965573796E+01  0.50383751137E+02  0.13120233959E+02  0.52752766800E+02  0.00000000000E+00 0.  1.
</event>
<event>
 7    1  0.4274778E-006  0.1251441E+03  0.7561462E-02  0.1234844E+00
          2   -1    0    0  501    0  0.00000000000E+00  0.00000000000E+00  0.15423059741E+03  0.15423059741E+03  0.00000000000E+00 0. -1.
         -2   -1    0    0    0  501 -0.00000000000E+00 -0.00000000000E+00 -0.17686914078E+03  0.17686914078E+03  0.00000000000E+00 0.  1.
         23    2    1    2    0    0 -0.86632695438E+02  0.43693500014E+02  0.70173925065E+02  0.15215637165E+03  0.93876705382E+02 0.  0.
          5    1    1    2  502    0  0.14938829313E+01 -0.35685553390E+02  0.16936297756E+02  0.39749226264E+02  0.41800000000E+01 0. -1.
         -5    1    1    2    0  502  0.85138812506E+02 -0.80079466240E+01 -0.10974876620E+03  0.13919414027E+03  0.41800000000E+01 0.  1.
        -11    1    3    3    0    0 -0.89998445744E+02  0.52830460908E+01  0.26650114528E+02  0.94009889994E+02  0.00000000000E+00 0. -1.
         11    1    3    3    0    0  0.33657503061E+01  0.38410453923E+02  0.43523810537E+02  0.58146481660E+02  0.00000000000E+00 0.  1.
</event>
<event>
 7    1  0.4274778E-006  0.1254776E+03  0.7561462E-02  0.1234325E+00
         -1   -1    0    0    0  501 -0.00000000000E+00  0.00000000000E+00  0.10676777415E+03  0.10676777415E+03  0.00000000000E+00 0.  1.
          1   -1    0    0  501    0  0.00000000000E+00 -0.00000000000E+00 -0.18939738430E+03  0.18939738430E+03  0.00000000000E+00 0. -1.
         23    2    1    2    0    0  0.65110502741E+02  0.39403915684E+02 -0.88919788197E+02  0.14960552820E+03  0.93182826730E+02 0.  0.
          5    1    1    2  502    0 -0.35551264574E+02  0.37582918396E+02  0.30892320615E+02  0.60400132790E+02  0.41800000000E+01 0. -1.
         -5    1    1    2    0  502 -0.29559238167E+02 -0.76986834081E+02 -0.24602142570E+02  0.86159497456E+02  0.41800000000E+01 0. -1.
        -11    1    3    3    0    0  0.53531583438E+02 -0.19103747712E+02 -0.24733643765E+02  0.61986585128E+02  0.00000000000E+00 0.  1.
         11    1    3    3    0    0  0.11578919303E+02  0.58507663397E+02 -0.64186144432E+02  0.87618943074E+02  0.00000000000E+00 0. -1.
</event>
<event>
 7    1  0.4274778E-006  0.8487091E+02  0.7561462E-02  0.1315770E+00
          2   -1    0    0  501    0  0.00000000000E+00  0.00000000000E+00  0.77465824428E+02  0.77465824428E+02  0.00000000000E+00 0.  1.
         -2   -1    0    0    0  501 -0.00000000000E+00 -0.00000000000E+00 -0.18994645371E+03  0.18994645371E+03  0.00000000000E+00 0. -1.
         23    2    1    2    0    0 -0.19341650376E+01  0.51691250341E+02 -0.17201980367E+02  0.10187883794E+03  0.86067782209E+02 0.  0.
          5    1    1    2  502    0  0.45792094255E+02 -0.57282871008E+02 -0.16787160404E+02  0.75349348780E+02  0.41800000000E+01 0. -1.
         -5    1    1    2    0  502 -0.43857929218E+02  0.55916206670E+01 -0.78491488513E+02  0.90184091423E+02  0.41800000000E+01 0. -1.
        -11    1    3    3    0    0  0.12014240291E+01  0.17645542083E+02 -0.50892959848E+02  0.53878585145E+02  0.00000000000E+00 0. -1.
         11    1    3    3    0    0 -0.31355890668E+01  0.34045708258E+02  0.33690979481E+02  0.48000252791E+02  0.00000000000E+00 0.  1.
</event>
<event>
 7    1  0.4274778E-006  0.2003094E+03  0.7561462E-02  0.1149478E+00
          2   -1    0    0  501    0  0.00000000000E+00  0.00000000000E+00  0.46934706707E+03  0.46934706707E+03  0.00000000000E+00 0. -1.
         -2   -1    0    0    0  501 -0.00000000000E+00 -0.00000000000E+00 -0.94157690267E+02  0.94157690267E+02  0.00000000000E+00 0.  1.
         23    2    1    2    0    0  0.13281351073E+03  0.11503052917E+03  0.23118066586E+03  0.30417834059E+03  0.90600835232E+02 0.  0.
          5    1    1    2  502    0 -0.14973853075E+03 -0.10328754327E+03  0.93400136708E+02  0.20452628712E+03  0.41800000000E+01 0.  1.
         -5    1    1    2    0  502  0.16925020027E+02 -0.11742985898E+02  0.50608574236E+02  0.54800129625E+02  0.41800000000E+01 0.  1.
        -11    1    3    3    0    0  0.55567841498E+02  0.10624754224E+03  0.14329189064E+03  0.18683921207E+03  0.00000000000E+00 0.  1.
         11    1    3    3    0    0  0.77245669228E+02  0.87829869267E+01  0.87888775220E+02  0.11733912853E+03  0.00000000000E+00 0. -1.
</event>
<event>
 6    1  0.4274778E-006  0.9015827E+02  0.7561462E-02  0.1302469E+00
          2   -1    0    0  501    0  0.00000000000E+00  0.00000000000E+00  0.26493148963E+03  0.26493148963E+03  0.00000000000E+00 0. -1.
         -2   -1    0    0    0  501 -0.00000000000E+00 -0.00000000000E+00 -0.45291212213E+02  0.45291212213E+02  0.00000000000E+00 0.  1.
          5    1    1    2  502    0 -0.55297433826E+02  0.33000971121E+02  0.11104230995E+03  0.12843183905E+03  0.41800000000E+01 0. -1.
         -5    1    1    2    0  502  0.37035315031E+02  0.18820664794E+02 -0.82310467557E+01  0.42556486150E+02  0.41800000000E+01 0. -1.
        -11    1    1    2    0    0  0.33884592228E+02 -0.22100054541E+02  0.48940127408E+02  0.63495779953E+02  0.00000000000E+00 0.  1.
         11    1    1    2    0    0 -0.15622473433E+02 -0.29721581374E+02  0.67888886813E+02  0.75738596688E+02  0.00000000000E+00 0. -1.
</event>
<event>
 7    1  0.4274778E-006  0.1614202E+03  0.7561462E-02  0.1187103E+00
         -3   -1    0    0    0  501 -0.00000000000E+00  0.00000000000E+00  0.44902957942E+03  0.44902957942E+03  0.00000000000E+00 0.  1.
          3   -1    0    0  501    0  0.00000000000E+00 -0.00000000000E+00 -0.76775098689E+02  0.76775098689E+02  0.00000000000E+00 0. -1.
         23    2    1    2    0    0  0.34051083899E+02 -0.14705834878E+03  0.16644843523E+03  0.24157118287E+03  0.88690025046E+02 0.  0.
          5    1    1    2  502    0 -0.10113098299E+02  0.43848764881E+02 -0.77031381728E+01  0.45845388825E+02  0.41800000000E+01 0.  1.
         -5    1    1    2    0  502 -0.23937985600E+02  0.10320958390E+03  0.21350918368E+03  0.23838810641E+03  0.41800000000E+01 0.  1.
        -11    1    3    3    0    0  0.32661138341E+02 -0.15761699234E+03  0.14101431098E+03  0.21399743488E+03  0.00000000000E+00 0. -1.
         11    1    3    3    0    0  0.13899455577E+01  0.10558643556E+02  0.25434124245E+02  0.27573747995E+02  0.00000000000E+00 0.  1.
</event>
<event>
 7    1  0.4274778E-006  0.1274574E+03  0.7561462E-02  0.1231278E+00
          2   -1    0    0  501    0  0.00000000000E+00  0.00000000000E+00  0.16737682210E+03  0.16737682210E+03  0.00000000000E+00 0.  1.
         -2   -1    0    0    0  501 -0.00000000000E+00 -0.00000000000E+00 -0.17729102617E+03  0.17729102617E+03  0.00000000000E+00 0. -1.
         23    2    1    2    0    0  0.65185650392E+02 -0.89794703044E+02  0.65778115482E+02  0.16112092344E+03  0.96544983211E+02 0.  0.
          5    1    1    2  502    0  0.34522417096E+01  0.35592048360E+02 -0.88044472149E+02  0.95121045806E+02  0.41800000000E+01 0. -1.
         -5    1    1    2    0  502 -0.68637892102E+02  0.54202654684E+02  0.12352152593E+02  0.88425879021E+02  0.41800000000E+01 0. -1.
        -11    1    3    3    0    0 -0.87813098658E+01 -0.42863804405E+02 -0.10465913657E+02  0.44988359380E+02  0.00000000000E+00 0.  1.
         11    1    3    3    0    0  0.73966960258E+02 -0.46930898640E+02  0.76244029138E+02  0.11613256406E+03  0.00000000000E+00 0. -1.
</event>
<event>
 7    1  0.4274778E-006  0.1409568E+03  0.7561462E-02  0.1212047E+00
         -1   -1    0    0    0  501 -0.00000000000E+00  0.00000000000E+00  0.10691170084E+03  0.10691170084E+03  0.00000000000E+00 0.  1.
          1   -1    0    0  501    0  0.00000000000E+00 -0.00000000000E+00 -0.23227919220E+03  0.23227919220E+03  0.00000000000E+00 0. -1.
         23    2    1    2    0    0  0.71771171267E+02 -0.88279129830E+02 -0.57573697834E+02  0.15701720270E+03  0.91626226987E+02 0.  0.
          5    1    1    2  502    0 -0.95526837854E+02  0.42605819976E+02 -0.76683335979E+02  0.12976301115E+03  0.41800000000E+01 0. -1.
         -5    1    1    2    0  502  0.23755666587E+02  0.45673309853E+02  0.88895424520E+01  0.52410679188E+02  0.41800000000E+01 0. -1.
        -11    1    3    3    0    0  0.39504910565E+02 -0.84265875112E+02 -0.75543203858E+02  0.11986722369E+03  0.00000000000E+00 0.  1.
         11    1    3    3    0    0  0.32266260702E+02 -0.40132547181E+01  0.17969506024E+02  0.37149979002E+02  0.00000000000E+00 0. -1.
</event>
<event>
 7    1  0.4274778E-006  0.1249029E+03  0.7561462E-02  0.1235221E+00
          2   -1    0    0  501    0  0.00000000000E+00  0.00000000000E+00  0.18219578729E+03  0.18219578729E+03  0.00000000000E+00 0. -1.
         -2   -1    0    0    0  501 -0.00000000000E+00 -0.00000000000E+00 -0.10585158997E+03  0.10585158997E+03  0.00000000000E+00 0.  1.
         23    2    1    2    0    0 -0.51278642893E+02 -0.68496992726E+02  0.48151884576E+02  0.13388748019E+03  0.91027007712E+02 0.  0.
          5    1    1    2  502    0  0.77221693459E+02  0.60046669756E+02  0.57786786296E+02  0.11369071009E+03  0.41800000000E+01 0.  1.
         -5    1    1    2    0  502 -0.25943050566E+02  0.84503229700E+01 -0.29594473554E+02  0.40469186993E+02  0.41800000000E+01 0.  1.
        -11    1    3    3    0    0 -0.28402901347E+02  0.18791966796E+02  0.19327704355E+02  0.39158945040E+02  0.00000000000E+00 0. -1.
         11    1    3    3    0    0 -0.22875741546E+02 -0.87288959522E+02  0.28824180221E+02  0.94728535147E+02  0.00000000000E+00 0.  1.
</event>
<event>
 7    1  0.4274778E-006  0.1165356E+03  0.7561462E-02  0.1248924E+00
         -2   -1    0    0    0  501 -0.00000000000E+00  0.00000000000E+00  0.98024215117E+02  0.98024215117E+02  0.00000000000E+00 0.  1.
          2   -1    0    0  501    0  0.00000000000E+00 -0.00000000000E+00 -0.18411153505E+03  0.18411153505E+03  0.00000000000E+00 0. -1.
         23    2    1    2    0    0  0.56595524888E+02  0.40485437039E+02 -0.79899191075E+02  0.13886066588E+03  0.89756781049E+02 0.  0.
          5    1    1    2  502    0 -0.65035979788E+02  0.30145168789E+02 -0.55165176266E+01  0.72016069283E+02  0.41800000000E+01 0. -1.
         -5    1    1    2    0  502  0.84404548997E+01 -0.70630605827E+02 -0.67161123499E+00  0.71259015009E+02  0.41800000000E+01 0. -1.
        -11    1    3    3    0    0  0.15470897359E+02  0.45987258904E+02  0.34873753347E+00  0.48521111534E+02  0.00000000000E+00 0.  1.
         11    1    3    3    0    0  0.41124627529E+02 -0.55018218658E+01 -0.80247928609E+02  0.90339554345E+02  0.00000000000E+00 0. -1.
</event>
<event>
 7    1  0.4274778E-006  0.1306630E+03  0.7561462E-02  0.1226475E+00
          2   -1    0    0  501    0  0.00000000000E+00  0.00000000000E+00  0.31977708108E+03  0.31977708108E+03  0.00000000000E+00 0. -1.
         -2   -1    0    0    0  501 -0.00000000000E+00 -0.00000000000E+00 -0.54738180671E+02  0.54738180671E+02  0.00000000000E+00 0.  1.
         23    2    1    2    0    0 -0.14382655410E+02 -0.30066564968E+02  0.12078001555E+03  0.15512730458E+03  0.91464798490E+02 0.  0.
          5    1    1    2  502    0  0.80698474580E+02 -0.17941606697E+02  0.81325005280E+02  0.11604039785E+03  0.41800000000E+01 0. -1.
         -5    1    1    2    0  502 -0.66315819170E+02  0.48008171665E+02  0.62933879573E+02  0.10334755932E+03  0.41800000000E+01 0.  1.
        -11    1    3    3    0    0 -0.46515100873E+02  0.75278370393E+01  0.68702262982E+02  0.83308606269E+02  0.00000000000E+00 0.  1.
         11    1    3    3    0    0  0.32132445463E+02 -0.37594402007E+02  0.52077752572E+02  0.71818698308E+02  0.00000000000E+00 0. -1.
</event>
<event>
 7    1  0.4274778E-006  0.1218478E+03  0.7561462E-02  0.1240079E+00
          1   -1    0    0  501    0  0.00000000000E+00  0.00000000000E+00  0.16807217565E+03  0.16807217565E+03  0.00000000000E+00 0.  1.
         -1   -1    0    0    0  501 -0.00000000000E+00 -0.00000000000E+00 -0.13905333999E+03  0.13905333999E+03  0.00000000000E+00 0. -1.
         23    2    1    2    0    0 -0.43651619648E+02  0.52580094974E+02  0.97171048781E+02  0.14913190844E+03  0.90155327673E+02 0.  0.
          5    1    1    2  502    0 -0.31701799745E+02  0.97739679834E+01  0.75061777955E+01  0.34268785539E+02  0.41800000000E+01 0. -1.
         -5    1    1    2    0  502  0.75353419393E+02 -0.62354062957E+02 -0.75658390915E+02  0.12372482167E+03  0.41800000000E+01 0. -1.
        -11    1    3    3    0    0  0.27790524385E+02  0.12863613015E+02  0.19054461167E+02  0.36067412934E+02  0.00000000000E+00 0.  1.
         11    1    3    3    0    0 -0.71442144032E+02  0.39716481959E+02  0.78116587614E+02  0.11306449550E+03  0.00000000000E+00 0. -1.
</event>
<event>
 7    1  0.4274778E-006  0.1614408E+03  0.7561462E-02  0.1187080E+00
         -2   -1    0    0    0  501 -0.00000000000E+00  0.00000000000E+00  0.11484016552E+03  0.11484016552E+03  0.00000000000E+00 0.  1.
          2   -1    0    0  501    0  0.00000000000E+00 -0.00000000000E+00 -0.23206405616E+03  0.23206405616E+03  0.00000000000E+00 0. -1.
         23    2    1    2    0    0  0.11777422792E+03 -0.29058761461E+02 -0.66605941883E+02  0.16545533900E+03  0.90685926860E+02 0.  0.
          5    1    1    2  502    0 -0.84698625720E+02 -0.41662794679E+02 -0.39777589458E+02  0.10251524122E+03  0.41800000000E+01 0.  1.
         -5    1    1    2    0  502 -0.33075602201E+02  0.70721556140E+02 -0.10840359298E+02  0.78933641456E+02  0.41800000000E+01 0.  1.
        -11    1    3    3    0    0  0.64931762182E+02  0.29515079586E+02 -0.21085165553E+02  0.74376460452E+02  0.00000000000E+00 0. -1.
         11    1    3    3    0    0  0.52842465739E+02 -0.58573841047E+02 -0.45520776330E+02  0.91078878551E+02  0.00000000000E+00 0.  1.
</event>
<event>
 7    1  0.4274778E-006  0.1155754E+03  0.7561462E-02  0.1250580E+00
          1   -1    0    0  501    0  0.00000000000E+00  0.00000000000E+00  0.60771238414E+03  0.60771238414E+03  0.00000000000E+00 0. -1.
         -1   -1    0    0    0  501 -0.00000000000E+00 -0.00000000000E+00 -0.28270296631E+02  0.28270296631E+02  0.00000000000E+00 0.  1.
         23    2    1    2    0    0  0.68715575768E+02 -0.15911199943E+02  0.31414911134E+03  0.33431263494E+03  0.90001539343E+02 0.  0.
          5    1    1    2  502    0 -0.13223628620E+02  0.58814177820E+02  0.18674864724E+03  0.19628168919E+03  0.41800000000E+01 0.  1.
         -5    1    1    2    0  502 -0.55491947148E+02 -0.42902977877E+02  0.78544328928E+02  0.10538835664E+03  0.41800000000E+01 0.  1.
        -11    1    3    3    0    0 -0.93042098838E+00 -0.29485117414E+02  0.32626239591E+02  0.43985330987E+02  0.00000000000E+00 0. -1.
         11    1    3    3    0    0  0.69645996757E+02  0.13573917471E+02  0.28152287175E+03  0.29032730395E+03  0.00000000000E+00 0.  1.
</event>
<event>
 7    1  0.4274778E-006  0.8446083E+02  0.7561462E-02  0.1316849E+00
         -2   -1    0    0    0  501 -0.00000000000E+00  0.00000000000E+00  0.56365018627E+02  0.56365018627E+02  0.00000000000E+00 0.  1.
          2   -1    0    0  501    0  0.00000000000E+00 -0.00000000000E+00 -0.34879598824E+03  0.34879598824E+03  0.00000000000E+00 0. -1.
         23    2    1    2    0    0 -0.60932041573E+02  0.49188446055E+02 -0.17677076573E+03  0.21765894540E+03  0.99976477138E+02 0.  0.
          5    1    1    2  502    0  0.55541391882E+02 -0.46047167648E+02 -0.67424558141E+00  0.72271120565E+02  0.41800000000E+01 0.  1.
         -5    1    1    2    0  502  0.53906496906E+01 -0.31412784072E+01 -0.11498595830E+03  0.11523094090E+03  0.41800000000E+01 0.  1.
        -11    1    3    3    0    0 -0.32955605900E+02  0.51424340116E+02 -0.29667122971E+02  0.67901935923E+02  0.00000000000E+00 0.  1.
         11    1    3    3    0    0 -0.27976435672E+02 -0.22358940614E+01 -0.14710364276E+03  0.14975700948E+03  0.00000000000E+00 0. -1.
</event>
<event>
 7    1  0.4274778E-006  0.1881953E+03  0.7561462E-02  0.1160099E+00
          2   -1    0    0  501    0  0.00000000000E+00  0.00000000000E+00  0.12674291311E+03  0.12674291311E+03  0.00000000000E+00 0. -1.
         -2   -1    0    0    0  501 -0.00000000000E+00 -0.00000000000E+00 -0.36899836176E+03  0.36899836176E+03  0.00000000000E+00 0.  1.
         23    2    1    2    0    0  0.89672551527E+02 -0.14872603603E+03 -0.38408060688E+02  0.20016898076E+03  0.91825058903E+02 0.  0.
          5    1    1    2  502    0 -0.80313314077E+02  0.89015651980E+02 -0.49527499514E+02  0.12978621007E+03  0.41800000000E+01 0. -1.
         -5    1    1    2    0  502 -0.93592374502E+01  0.59710384052E+02 -0.15431988845E+03  0.16578608403E+03  0.41800000000E+01 0. -1.
        -11    1    3    3    0    0  0.14644574454E+02 -0.11081805827E+03 -0.29690551324E+02  0.11565740113E+03  0.00000000000E+00 0.  1.
         11    1    3    3    0    0  0.75027977073E+02 -0.37907977765E+02 -0.87175093640E+01  0.84511579630E+02  0.00000000000E+00 0. -1.
</event>
<event>
 7    1  0.4274778E-006  0.1201029E+03  0.7561462E-02  0.1242927E+00
          3   -1    0    0  501    0  0.00000000000E+00  0.00000000000E+00  0.25353264090E+03  0.25353264090E+03  0.00000000000E+00 0. -1.
         -3   -1    0    0    0  501 -0.00000000000E+00 -0.00000000000E+00 -0.83542431781E+02  0.83542431781E+02  0.00000000000E+00 0.  1.
         23    2    1    2    0    0  0.62658610990E+02 -0.22839800734E+02  0.15843693947E+03  0.19484314649E+03  0.91726931263E+02 0.  0.
          5    1    1    2  502    0 -0.81186426824E+02 -0.19518261921E+02  0.34506924334E+02  0.90445556419E+02  0.41800000000E+01 0.  1.
         -5    1    1    2    0  502  0.18527815834E+02  0.42358062655E+02 -0.22953654677E+02  0.51786369775E+02  0.41800000000E+01 0.  1.
        -11    1    3    3    0    0  0.70863726078E+02  0.14174307289E+02  0.12452951023E+03  0.14397978184E+03  0.00000000000E+00 0.  1.
         11    1    3    3    0    0 -0.82051150879E+01 -0.37014108023E+02  0.33907429239E+02  0.50863364655E+02  0.00000000000E+00 0. -1.
</event>
<event>
 7    1  0.4274778E-006  0.1142529E+03  0.7561462E-02  0.1252891E+00
          1   -1    0    0  501    0  0.00000000000E+00  0.00000000000E+00  0.55792765738E+03  0.55792765738E+03  0.00000000000E+00 0. -1.
         -1   -1    0    0    0  501 -0.00000000000E+00 -0.00000000000E+00 -0.32527552509E+02  0.32527552509E+02  0.00000000000E+00 0.  1.
         23    2    1    2    0    0 -0.68031425390E+02  0.37282657566E+02  0.28011108081E+03  0.30439127329E+03  0.90407733432E+02 0.  0.
          5    1    1    2  502    0  0.41963815041E+02 -0.79219211532E+02  0.19879105629E+03  0.21811006788E+03  0.41800000000E+01 0. -1.
         -5    1    1    2    0  502  0.26067610349E+02  0.41936553966E+02  0.46497967767E+02  0.67953868722E+02  0.41800000000E+01 0. -1.
        -11    1    3    3    0    0 -0.10425911480E+02 -0.10176242730E+02  0.64425150458E-01  0.14569135077E+02  0.00000000000E+00 0.  1.
         11    1    3    3    0    0 -0.57605513910E+02  0.47458900295E+02  0.28004665566E+03  0.28982213821E+03  0.00000000000E+00 0. -1.
</event>
<event>
 7    1  0.4274778E-006  0.1123142E+03  0.7561462E-02  0.1256343E+00
         -1   -1    0    0    0  501 -0.00000000000E+00  0.00000000000E+00  0.96865299680E+02  0.96865299680E+02  0.00000000000E+00 0.  1.
          1   -1    0    0  501    0  0.00000000000E+00 -0.00000000000E+00 -0.15348849074E+03  0.15348849074E+03  0.00000000000E+00 0. -1.
         23    2    1    2    0    0 -0.14943449386E+01  0.56149112917E+02 -0.34384314105E+02  0.11144224846E+03  0.89900710432E+02 0.  0.
          5    1    1    2  502    0  0.62367057461E+02 -0.17883486244E+02 -0.12958252198E+02  0.66293722453E+02  0.41800000000E+01 0. -1.
         -5    1    1    2    0  502 -0.60872712523E+02 -0.38265626672E+02 -0.92806247546E+01  0.72617819510E+02  0.41800000000E+01 0. -1.
        -11    1    3    3    0    0  0.31773720276E+02  0.16397955616E+02 -0.46058690763E+02  0.58308363408E+02  0.00000000000E+00 0. -1.
         11    1    3    3    0    0 -0.33268065214E+02  0.39751157301E+02  0.11674376658E+02  0.53133885047E+02  0.00000000000E+00 0.  1.
</event>
<event>
 7    1  0.4274778E-006  0.9311498E+02  0.7561462E-02  0.1295479E+00
         -2   -1    0    0    0  501 -0.00000000000E+00  0.00000000000E+00  0.19782690949E+03  0.19782690949E+03  0.00000000000E+00 0.  1.
          2   -1    0    0  501    0  0.00000000000E+00 -0.00000000000E+00 -0.11960637742E+03  0.11960637742E+03  0.00000000000E+00 0. -1.
         23    2    1    2    0    0  0.32892754240E+02 -0.11750242291E+02 -0.70769294692E+02  0.11978355321E+03  0.90109961013E+02 0.  0.
          5    1    1    2  502    0  0.12676526092E+02 -0.27302364008E+02 -0.63682450365E+01  0.31050609318E+02  0.41800000000E+01 0. -1.
         -5    1    1    2    0  502 -0.45569280333E+02  0.39052606299E+02  0.15535807181E+03  0.16659912438E+03  0.41800000000E+01 0. -1.
        -11    1    3    3    0    0 -0.23972373537E+02 -0.27688000308E+02 -0.19051440389E+02  0.41282652954E+02  0.00000000000E+00 0. -1.
         11    1    3    3    0    0  0.56865127777E+02  0.15937758017E+02 -0.51717854303E+02  0.78500900258E+02  0.00000000000E+00 0.  1.
</event>
<event>
 7    1  0.4274778E-006  0.1003128E+03  0.7561462E-02  0.1279640E+00
          1   -1    0    0  501    0  0.00000000000E+00  0.00000000000E+00  0.18641235729E+03  0.18641235729E+03  0.00000000000E+00 0. -1.
         -1   -1    0    0    0  501 -0.00000000000E+00 -0.00000000000E+00 -0.94446146007E+02  0.94446146007E+02  0.00000000000E+00 0.  1.
         23    2    1    2    0    0  0.26442687189E+02 -0.58506008614E+02  0.86596280724E+02  0.14015259787E+03  0.89563754410E+02 0.  0.
          5    1    1    2  502    0 -0.71158728504E+02  0.14866850053E+02 -0.15975235735E+02  0.74547088673E+02  0.41800000000E+01 0. -1.
         -5    1    1    2    0  502  0.44716041315E+02  0.43639158561E+02  0.21345166296E+02  0.66158816760E+02  0.41800000000E+01 0. -1.
        -11    1    3    3    0    0  0.16880428727E+02 -0.23721539591E+02 -0.14706551573E+02  0.32618138723E+02  0.00000000000E+00 0.  1.
         11    1    3    3    0    0  0.95622584622E+01 -0.34784469022E+02  0.10130283230E+03  0.10753445914E+03  0.00000000000E+00 0. -1.
</event>
<event>
 7    1  0.4274778E-006  0.1644838E+03  0.7561462E-02  0.1183726E+00
         -2   -1    0    0    0  501 -0.00000000000E+00  0.00000000000E+00  0.39171209349E+02  0.39171209349E+02  0.00000000000E+00 0.  1.
          2   -1    0    0  501    0  0.00000000000E+00 -0.00000000000E+00 -0.10296408402E+04  0.10296408402E+04  0.00000000000E+00 0. -1.
         23    2    1    2    0    0  0.13161652809E+03  0.66746778933E+02 -0.67988149401E+03  0.70290369851E+03  0.10028320159E+03 0.  0.
          5    1    1    2  502    0 -0.30305590955E+02  0.32201086870E+01 -0.19356205669E+03  0.19599117361E+03  0.41800000000E+01 0.  1.
         -5    1    1    2    0  502 -0.10131093713E+03 -0.69966887620E+02 -0.11702608012E+03  0.16991717740E+03  0.41800000000E+01 0.  1.
        -11    1    3    3    0    0  0.26248128634E+02  0.64481807737E+02 -0.20608439922E+03  0.21752619932E+03  0.00000000000E+00 0.  1.
         11    1    3    3    0    0  0.10536839945E+03  0.22649711962E+01 -0.47379709479E+03  0.48537749920E+03  0.00000000000E+00 0. -1.
</event>
<event>
 7    1  0.4274778E-006  0.1305651E+03  0.7561462E-02  0.1226620E+00
          2   -1    0    0  501    0  0.00000000000E+00  0.00000000000E+00  0.11149579728E+04  0.11149579728E+04  0.00000000000E+00 0. -1.
         -2   -1    0    0    0  501 -0.00000000000E+00 -0.00000000000E+00 -0.16416910956E+02  0.16416910956E+02  0.00000000000E+00 0.  1.
         23    2    1    2    0    0 -0.45726159196E+02  0.12660123326E+02  0.41808771381E+03  0.43025925660E+03  0.89858394679E+02 0.  0.
          5    1    1    2  502    0 -0.55271095099E+00  0.67794323754E+02  0.18613186579E+03  0.19813863754E+03  0.41800000000E+01 0. -1.
         -5    1    1    2    0  502  0.46278870147E+02 -0.80454447080E+02  0.49432148227E+03  0.50297698964E+03  0.41800000000E+01 0.  1.
        -11    1    3    3    0    0  0.21211543809E+02 -0.16900657796E+02  0.84727088168E+02  0.88962021639E+02  0.00000000000E+00 0.  1.
         11    1    3    3    0    0 -0.66937703005E+02  0.29560781122E+02  0.33336062564E+03  0.34129723496E+03  0.00000000000E+00 0. -1.
</event>
<event>
 7    1  0.4274778E-006  0.1026759E+03  0.7561462E-02  0.1274767E+00
         -2   -1    0    0    0  501 -0.00000000000E+00  0.00000000000E+00  0.19341517699E+03  0.19341517699E+03  0.00000000000E+00 0.  1.
          2   -1    0    0  501    0  0.00000000000E+00 -0.00000000000E+00 -0.10004313917E+03  0.10004313917E+03  0.00000000000E+00 0. -1.
         23    2    1    2    0    0 -0.83478519517E+01 -0.76851782114E+02 -0.21010523406E+01  0.11813537049E+03  0.89306597138E+02 0.  0.
          5    1    1    2  502    0  0.10726869539E+02 -0.14499621132E+02  0.80532101690E+02  0.82632902319E+02  0.41800000000E+01 0. -1.
         -5    1    1    2    0  502 -0.23790175873E+01  0.91351403246E+02  0.14940988475E+02  0.92690043350E+02  0.41800000000E+01 0. -1.
        -11    1    3    3    0    0  0.11094517220E+02 -0.75014778538E+02  0.29186156596E+02  0.81253535605E+02  0.00000000000E+00 0.  1.
         11    1    3    3    0    0 -0.19442369171E+02 -0.18370035760E+01 -0.31287208936E+02  0.36881834881E+02  0.00000000000E+00 0. -1.
</event>
<event>
 7    1  0.4274778E-006  0.8931454E+02  0.7561462E-02  0.1304520E+00
         -2   -1    0    0    0  501 -0.00000000000E+00  0.00000000000E+00  0.68216202260E+03  0.68216202260E+03  0.00000000000E+00 0.  1.
          2   -1    0    0  501    0  0.00000000000E+00 -0.00000000000E+00 -0.25125549230E+02  0.25125549230E+02  0.00000000000E+00 0. -1.
         23    2    1    2    0    0 -0.17837524907E+02 -0.47780223165E+02  0.17960709339E+03  0.21111493529E+03  0.98537713016E+02 0.  0.
          5    1    1    2  502    0  0.13029930770E+02 -0.50079458259E+01 -0.11795344182E+01  0.14619244807E+02  0.41800000000E+01 0. -1.
         -5    1    1    2    0  502  0.48075941369E+01  0.52788168991E+02  0.47860891440E+03  0.48155339174E+03  0.41800000000E+01 0. -1.
        -11    1    3    3    0    0 -0.48649517348E+02 -0.60429422230E+02  0.12899655426E+03  0.15052774369E+03  0.00000000000E+00 0. -1.
         11    1    3    3    0    0  0.30811992441E+02  0.12649199065E+02  0.50610539131E+02  0.60587191603E+02  0.00000000000E+00 0.  1.
</event>
<event>
 7    1  0.4274778E-006  0.9799984E+02  0.7561462E-02  0.1284559E+00
          2   -1    0    0  501    0  0.00000000000E+00  0.00000000000E+00  0.37499454196E+03  0.37499454196E+03  0.00000000000E+00 0. -1.
         -2   -1    0    0    0  501 -0.00000000000E+00 -0.00000000000E+00 -0.51247866313E+02  0.51247866313E+02  0.00000000000E+00 0.  1.
         23    2    1    2    0    0 -0.71657457080E+02  0.22307201636E+02  0.21094168924E+03  0.24183231456E+03  0.91400600150E+02 0.  0.
          5    1    1    2  502    0  0.18299185120E+02  0.30955527612E+02  0.10187345539E+03  0.10811465293E+03  0.41800000000E+01 0. -1.
         -5    1    1    2    0  502  0.53358271960E+02 -0.53262729248E+02  0.10931531023E+02  0.76295440781E+02  0.41800000000E+01 0. -1.
        -11    1    3    3    0    0 -0.23101820640E+02 -0.10819625549E+02  0.29329287157E+01  0.25678015592E+02  0.00000000000E+00 0.  1.
         11    1    3    3    0    0 -0.48555636441E+02  0.33126827185E+02  0.20800876052E+03  0.21615429897E+03  0.00000000000E+00 0. -1.
</event>
<event>
 7    1  0.4274778E-006  0.1634716E+03  0.7561462E-02  0.1184832E+00
          1   -1    0    0  501    0  0.00000000000E+00  0.00000000000E+00  0.17549314318E+03  0.17549314318E+03  0.00000000000E+00 0. -1.
         -1   -1    0    0    0  501 -0.00000000000E+00 -0.00000000000E+00 -0.22188074153E+03  0.22188074153E+03  0.00000000000E+00 0.  1.
         23    2    1    2    0    0 -0.83849302940E+02 -0.13062918228E+03  0.32273350771E+02  0.18305461392E+03  0.91502642812E+02 0.  0.
          5    1    1    2  502    0  0.69853255020E+02  0.43914192273E+02 -0.93901660828E+02  0.12507169075E+03  0.41800000000E+01 0. -1.
         -5    1    1    2    0  502  0.13996047920E+02  0.86714990008E+02  0.15240711704E+02  0.89247580038E+02  0.41800000000E+01 0. -1.
        -11    1    3    3    0    0 -0.56260659302E+02 -0.70209252940E+02  0.63036895162E+02  0.10985559219E+03  0.00000000000E+00 0. -1.
         11    1    3    3    0    0 -0.27588643638E+02 -0.60419929341E+02 -0.30763544391E+02  0.73199021734E+02  0.00000000000E+00 0.  1.
</event>
<event>
 7    1  0.4274778E-006  0.2401238E+03  0.7561462E-02  0.1119710E+00
          2   -1    0    0  501    0  0.00000000000E+00  0.00000000000E+00  0.72341326670E+02  0.72341326670E+02  0.00000000000E+00 0. -1.
         -2   -1    0    0    0  501 -0.00000000000E+00 -0.00000000000E+00 -0.12522608458E+04  0.12522608458E+04  0.00000000000E+00 0.  1.
         23    2    1    2    0    0  0.16668280624E+02  0.41081707981E+02 -0.19103392831E+02  0.10219741576E+03  0.90076821995E+02 0.  0.
          5    1    1    2  502    0 -0.18871028147E+03 -0.79849726717E+02 -0.56508021013E+03  0.60109954705E+03  0.41800000000E+01 0. -1.
         -5    1    1    2    0  502  0.17204200084E+03  0.38768018736E+02 -0.59573591614E+03  0.62130520963E+03  0.41800000000E+01 0.  1.
        -11    1    3    3    0    0 -0.29676197298E+01 -0.27445744635E+02 -0.13395331421E+02  0.30684044214E+02  0.00000000000E+00 0.  1.
         11    1    3    3    0    0  0.19635900354E+02  0.68527452616E+02 -0.57080614096E+01  0.71513371546E+02  0.00000000000E+00 0. -1.
</event>
<event>
 7    1  0.4274778E-006  0.1023906E+03  0.7561462E-02  0.1275348E+00
          1   -1    0    0  501    0  0.00000000000E+00  0.00000000000E+00  0.80698726898E+02  0.80698726898E+02  0.00000000000E+00 0. -1.
         -1   -1    0    0    0  501 -0.00000000000E+00 -0.00000000000E+00 -0.27460813366E+03  0.27460813366E+03  0.00000000000E+00 0.  1.
         23    2    1    2    0    0 -0.38480803151E+02 -0.32640851656E+01  0.23528620094E+02  0.10150589651E+03  0.90875874689E+02 0.  0.
          5    1    1    2  502    0 -0.32021583568E+02 -0.14961829334E+02 -0.15100308252E+03  0.15514071510E+03  0.41800000000E+01 0. -1.
         -5    1    1    2    0  502  0.70502386719E+02  0.18225914499E+02 -0.66434944330E+02  0.98660248938E+02  0.41800000000E+01 0. -1.
        -11    1    3    3    0    0 -0.60430076978E+02  0.20583347760E+02  0.26153223349E+02  0.68988836054E+02  0.00000000000E+00 0. -1.
         11    1    3    3    0    0  0.21949273827E+02 -0.23847432926E+02 -0.26246032543E+01  0.32517060459E+02  0.00000000000E+00 0.  1.
</event>
<event>
 7    1  0.4274778E-006  0.8730710E+02  0.7561462E-02  0.1309507E+00
          1   -1    0    0  501    0  0.00000000000E+00  0.00000000000E+00  0.46506517289E+03  0.46506517289E+03  0.00000000000E+00 0. -1.
         -1   -1    0    0    0  501 -0.00000000000E+00 -0.00000000000E+00 -0.29944224459E+02  0.29944224459E+02  0.00000000000E+00 0.  1.
         23    2    1    2    0    0 -0.46678574301E+02 -0.53588468822E+01  0.21506503921E+03  0.23756424010E+03  0.89309521020E+02 0.  0.
          5    1    1    2  502    0  0.19958378581E+02  0.41836545034E+02  0.20406000765E+03  0.20930024486E+03  0.41800000000E+01 0.  1.
         -5    1    1    2    0  502  0.26720195720E+02 -0.36477698152E+02  0.15995901568E+02  0.48144912387E+02  0.41800000000E+01 0.  1.
        -11    1    3    3    0    0 -0.58223411250E+02 -0.22142654240E+02  0.20609980817E+03  0.21530767214E+03  0.00000000000E+00 0. -1.
         11    1    3    3    0    0  0.11544836949E+02  0.16783807358E+02  0.89652310354E+01  0.22256567955E+02  0.00000000000E+00 0.  1.
</event>
<event>
 7    1  0.4274778E-006  0.1032312E+03  0.7561462E-02  0.1273644E+00
         -2   -1    0    0    0  501 -0.00000000000E+00  0.00000000000E+00  0.79310652355E+02  0.79310652355E+02  0.00000000000E+00 0.  1.
          2   -1    0    0  501    0  0.00000000000E+00 -0.00000000000E+00 -0.28028034891E+03  0.28028034891E+03  0.00000000000E+00 0. -1.
         23    2    1    2    0    0  0.62741117583E+01  0.62410731057E+02 -0.18066244470E+03  0.21315506311E+03  0.94136593193E+02 0.  0.
          5    1    1    2  502    0  0.28646561610E+02 -0.26449295895E+00 -0.58634447654E+02  0.65392402466E+02  0.41800000000E+01 0. -1.
         -5    1    1    2    0  502 -0.34920673369E+02 -0.62146238098E+02  0.38327195798E+02  0.81043535683E+02  0.41800000000E+01 0.  1.
        -11    1    3    3    0    0 -0.58145381305E+01 -0.21015968127E+02 -0.12722630618E+02  0.25245694679E+02  0.00000000000E+00 0.  1.
         11    1    3    3    0    0  0.12088649889E+02  0.83426699184E+02 -0.16793981408E+03  0.18790936843E+03  0.00000000000E+00 0. -1.
</event>
<event>
 7    1  0.4274778E-006  0.1130177E+03  0.7561462E-02  0.1255082E+00
         -2   -1    0    0    0  501 -0.00000000000E+00  0.00000000000E+00  0.17721074368E+02  0.17721074368E+02  0.00000000000E+00 0.  1.
          2   -1    0    0  501    0  0.00000000000E+00 -0.00000000000E+00 -0.73175122959E+03  0.73175122959E+03  0.00000000000E+00 0. -1.
         23    2    1    2    0    0  0.30833570768E+02  0.18142487356E+02 -0.29442402308E+03  0.31015770828E+03  0.90732792897E+02 0.  0.
          5    1    1    2  502    0  0.46963331868E+02  0.48470330552E+01 -0.12396682493E+03  0.13271885455E+03  0.41800000000E+01 0.  1.
         -5    1    1    2    0  502 -0.77796902636E+02 -0.22989520411E+02 -0.29563930721E+03  0.30659574112E+03  0.41800000000E+01 0.  1.
        -11    1    3    3    0    0 -0.31065965898E+02  0.17181379082E+02 -0.11491220002E+03  0.12027097629E+03  0.00000000000E+00 0.  1.
         11    1    3    3    0    0  0.61899536666E+02  0.96110827360E+00 -0.17951182306E+03  0.18988673200E+03  0.00000000000E+00 0. -1.
</event>
<event>
 7    1  0.4274778E-006  0.1443151E+03  0.7561462E-02  0.1207638E+00
          2   -1    0    0  501    0  0.00000000000E+00  0.00000000000E+00  0.21276182009E+03  0.21276182009E+03  0.00000000000E+00 0. -1.
         -2   -1    0    0    0  501 -0.00000000000E+00 -0.00000000000E+00 -0.12044887384E+03  0.12044887384E+03  0.00000000000E+00 0.  1.
         23    2    1    2    0    0  0.11328761388E+03 -0.28975084411E+02  0.34774036017E+02  0.15256522340E+03  0.91614817763E+02 0.  0.
          5    1    1    2  502    0 -0.13619792951E+03  0.18959941152E+02  0.25713042034E+02  0.13995709450E+03  0.41800000000E+01 0. -1.
         -5    1    1    2    0  502  0.22910315628E+02  0.10015143259E+02  0.31825868200E+02  0.40688376023E+02  0.41800000000E+01 0. -1.
        -11    1    3    3    0    0  0.92517439831E+02 -0.41555569819E+02  0.59763989016E+02  0.11772033146E+03  0.00000000000E+00 0. -1.
         11    1    3    3    0    0  0.20770174049E+02  0.12580485408E+02 -0.24989952999E+02  0.34844891936E+02  0.00000000000E+00 0.  1.
</event>
<event>
 7    1  0.4274778E-006  0.9466332E+02  0.7561462E-02  0.1291936E+00
         -1   -1    0    0    0  501 -0.00000000000E+00  0.00000000000E+00  0.46630873215E+02  0.46630873215E+02  0.00000000000E+00 0.  1.
          1   -1    0    0  501    0  0.00000000000E+00 -0.00000000000E+00 -0.24471068713E+03  0.24471068713E+03  0.00000000000E+00 0. -1.
         23    2    1    2    0    0  0.12414209753E+02  0.10164679216E+02 -0.90526336465E+02  0.12559212567E+03  0.85562439940E+02 0.  0.
          5    1    1    2  502    0 -0.50598073584E+02 -0.42473114272E+02 -0.91734181828E+02  0.11312277844E+03  0.41800000000E+01 0.  1.
         -5    1    1    2    0  502  0.38183863831E+02  0.32308435055E+02 -0.15819295622E+02  0.52626656238E+02  0.41800000000E+01 0.  1.
        -11    1    3    3    0    0 -0.29893750737E+02  0.51868289790E+01 -0.73858787769E+02  0.79847730455E+02  0.00000000000E+00 0. -1.
         11    1    3    3    0    0  0.42307960491E+02  0.49778502372E+01 -0.16667548696E+02  0.45744395213E+02  0.00000000000E+00 0.  1.
</event>
<event>
 7    1  0.4274778E-006  0.8914319E+02  0.7561462E-02  0.1304940E+00
         -1   -1    0    0    0  501 -0.00000000000E+00  0.00000000000E+00  0.18297916640E+03  0.18297916640E+03  0.00000000000E+00 0.  1.
          1   -1    0    0  501    0  0.00000000000E+00 -0.00000000000E+00 -0.11836331367E+03  0.11836331367E+03  0.00000000000E+00 0. -1.
         23    2    1    2    0    0 -0.27664828538E+02  0.16043471050E+02 -0.63212559021E+02  0.11964688158E+03  0.96419982122E+02 0.  0.
          5    1    1    2  502    0  0.35803720339E+02  0.44426693184E+02  0.25840939381E+02  0.62776301305E+02  0.41800000000E+01 0. -1.
         -5    1    1    2    0  502 -0.81388918013E+01 -0.60470164234E+02  0.10198747237E+03  0.11891929719E+03  0.41800000000E+01 0. -1.
        -11    1    3    3    0    0 -0.42288808379E+02  0.74056149043E+01  0.10339030335E+02  0.44159732727E+02  0.00000000000E+00 0.  1.
         11    1    3    3    0    0  0.14623979842E+02  0.86378561461E+01 -0.73551589356E+02  0.75487148853E+02  0.00000000000E+00 0. -1.
</event>
<event>
 7    1  0.4274778E-006  0.9907464E+02  0.7561462E-02  0.1282254E+00
         -4   -1    0    0    0  501 -0.00000000000E+00  0.00000000000E+00  0.27071640159E+03  0.27071640159E+03  0.00000000000E+00 0.  1.
          4   -1    0    0  501    0  0.00000000000E+00 -0.00000000000E+00 -0.44795504477E+02  0.44795504477E+02  0.00000000000E+00 0. -1.
         23    2    1    2    0    0  0.48140250497E+01  0.12110306406E+02  0.72449677786E+02  0.11709086397E+03  0.91057565618E+02 0.  0.
          5    1    1    2  502    0  0.50337160921E+02 -0.17774598421E+02  0.12493589185E+03  0.13592724374E+03  0.41800000000E+01 0.  1.
         -5    1    1    2    0  502 -0.55151185971E+02  0.56642920149E+01  0.28535327469E+02  0.62493798346E+02  0.41800000000E+01 0.  1.
        -11    1    3    3    0    0 -0.14092268802E+02  0.47138136439E+02  0.25097550352E+02  0.55231177613E+02  0.00000000000E+00 0. -1.
         11    1    3    3    0    0  0.18906293851E+02 -0.35027830033E+02  0.47352127434E+02  0.61859686359E+02  0.00000000000E+00 0.  1.
</event>
<event>
 7    1  0.4274778E-006  0.1381434E+03  0.7561462E-02  0.1215849E+00
         -2   -1    0    0    0  501 -0.00000000000E+00  0.00000000000E+00  0.14040964578E+02  0.14040964578E+02  0.00000000000E+00 0.  1.
          2   -1    0    0  501    0  0.00000000000E+00 -0.00000000000E+00 -0.13953505500E+04  0.13953505500E+04  0.00000000000E+00 0. -1.
         23    2    1    2    0    0  0.86066164999E+02  0.19350453856E+02 -0.62984427249E+03  0.64249566043E+03  0.91186848054E+02 0.  0.
          5    1    1    2  502    0 -0.10396076471E+03 -0.50908904688E+02 -0.53785096196E+03  0.55018241235E+03  0.41800000000E+01 0.  1.
         -5    1    1    2    0  502  0.17894599706E+02  0.31558450831E+02 -0.21361435100E+03  0.21671344183E+03  0.41800000000E+01 0.  1.
        -11    1    3    3    0    0  0.83678012138E+02 -0.18756492265E+02 -0.49398335992E+03  0.50137149460E+03  0.00000000000E+00 0.  1.
         11    1    3    3    0    0  0.23881528610E+01  0.38106946122E+02 -0.13586091257E+03  0.14112416583E+03  0.00000000000E+00 0. -1.
</event>
<event>
 7    1  0.4274778E-006  0.1108281E+03  0.7561462E-02  0.1259044E+00
          1   -1    0    0  501    0  0.00000000000E+00  0.00000000000E+00  0.10100533340E+03  0.10100533340E+03  0.00000000000E+00 0. -1.
         -1   -1    0    0    0  501 -0.00000000000E+00 -0.00000000000E+00 -0.13789421157E+03  0.13789421157E+03  0.00000000000E+00 0.  1.
         23    2    1    2    0    0 -0.30690213723E+02  0.20230969999E+02  0.13298352240E+02  0.99195402198E+02  0.91168526804E+02 0.  0.
          5    1    1    2  502    0  0.60196365838E+02 -0.52485135006E+02 -0.10771742289E+02  0.80695691884E+02  0.41800000000E+01 0. -1.
         -5    1    1    2    0  502 -0.29506152115E+02  0.32254165007E+02 -0.39415488115E+02  0.59008450889E+02  0.41800000000E+01 0. -1.
        -11    1    3    3    0    0 -0.49355938539E+01  0.54599071405E+02  0.12558606853E+02  0.56241775319E+02  0.00000000000E+00 0. -1.
         11    1    3    3    0    0 -0.25754619869E+02 -0.34368101406E+02  0.73974538749E+00  0.42953626879E+02  0.00000000000E+00 0.  1.
</event>
<event>
 7    1  0.4274778E-006  0.1527987E+03  0.7561462E-02  0.1197076E+00
          1   -1    0    0  501    0  0.00000000000E+00  0.00000000000E+00  0.99183303122E+02  0.99183303122E+02  0.00000000000E+00 0. -1.
         -1   -1    0    0    0  501 -0.00000000000E+00 -0.00000000000E+00 -0.27079778096E+03  0.27079778096E+03  0.00000000000E+00 0.  1.
         23    2    1    2    0    0  0.10913009668E+03 -0.23307069277E+02 -0.24505800418E+02  0.14695565642E+03  0.92427448410E+02 0.  0.
          5    1    1    2  502    0 -0.11749680180E+03  0.56411126331E+02 -0.13168161673E+03  0.18532467237E+03  0.41800000000E+01 0. -1.
         -5    1    1    2    0  502  0.83667051188E+01 -0.33104057054E+02 -0.15427060692E+02  0.37700755292E+02  0.41800000000E+01 0. -1.
        -11    1    3    3    0    0  0.96813634975E+02  0.17311157562E+02 -0.32866537847E+02  0.10369554187E+03  0.00000000000E+00 0. -1.
         11    1    3    3    0    0  0.12316461703E+02 -0.40618226839E+02  0.83607374283E+01  0.43260114549E+02  0.00000000000E+00 0.  1.
</event>
<event>
 7    1  0.4274778E-006  0.7638452E+02  0.7561462E-02  0.1339636E+00
         -1   -1    0    0    0  501 -0.00000000000E+00  0.00000000000E+00  0.86557025200E+02  0.86557025200E+02  0.00000000000E+00 0.  1.
          1   -1    0    0  501    0  0.00000000000E+00 -0.00000000000E+00 -0.16885808407E+03  0.16885808407E+03  0.00000000000E+00 0. -1.
         23    2    1    2    0    0 -0.42254763957E+01 -0.39150787657E+02 -0.73298614336E+02  0.12395680151E+03  0.91880155375E+02 0.  0.
          5    1    1    2  502    0  0.20112255250E+02  0.30223174798E+02  0.54300542348E+02  0.65452000775E+02  0.41800000000E+01 0. -1.
         -5    1    1    2    0  502 -0.15886778854E+02  0.89276128591E+01 -0.63302986885E+02  0.66006306989E+02  0.41800000000E+01 0. -1.
        -11    1    3    3    0    0 -0.20655483183E+02 -0.64273406935E+02 -0.62661644774E+02  0.92109725601E+02  0.00000000000E+00 0.  1.
         11    1    3    3    0    0  0.16430006787E+02  0.25122619278E+02 -0.10636969562E+02  0.31847075908E+02  0.00000000000E+00 0. -1.
</event>
<event>
 7    1  0.4274778E-006  0.1245205E+03  0.7561462E-02  0.1235821E+00
          2   -1    0    0  501    0  0.00000000000E+00  0.00000000000E+00  0.17263635291E+02  0.17263635291E+02  0.00000000000E+00 0. -1.
         -2   -1    0    0    0  501 -0.00000000000E+00 -0.00000000000E+00 -0.12493418643E+04  0.12493418643E+04  0.00000000000E+00 0.  1.
         23    2    1    2    0    0 -0.71148419599E+01  0.71261752592E+02 -0.26779191134E+03  0.29160538879E+03  0.90511527634E+02 0.  0.
          5    1    1    2  502    0  0.35306564762E+02  0.24857459845E+02 -0.33007933594E+03  0.33291783858E+03  0.41800000000E+01 0. -1.
         -5    1    1    2    0  502 -0.28191722802E+02 -0.96119212437E+02 -0.63420698171E+03  0.64208227220E+03  0.41800000000E+01 0. -1.
        -11    1    3    3    0    0 -0.38730569705E+02  0.60827849534E+02 -0.23096341174E+03  0.24195904999E+03  0.00000000000E+00 0.  1.
         11    1    3    3    0    0  0.31615727745E+02  0.10433903058E+02 -0.36828499603E+02  0.49646338806E+02  0.00000000000E+00 0. -1.
</event>
<event>
 7    1  0.4274778E-006  0.6734931E+02  0.7561462E-02  0.1369346E+00
          2   -1    0    0  501    0  0.00000000000E+00  0.00000000000E+00  0.88929891759E+02  0.88929891759E+02  0.00000000000E+00 0. -1.
         -2   -1    0    0    0  501 -0.00000000000E+00 -0.00000000000E+00 -0.18004759698E+03  0.18004759698E+03  0.00000000000E+00 0.  1.
         23    2    1    2    0    0 -0.22581959575E+02  0.37097372498E+02  0.90904015462E+01  0.10292174661E+03  0.92865981830E+02 0.  0.
          5    1    1    2  502    0 -0.59335757688E+00 -0.71583701956E+01 -0.12192574600E+03  0.12220865057E+03  0.41800000000E+01 0. -1.
         -5    1    1    2    0  502  0.23175317152E+02 -0.29939002303E+02  0.21717639231E+02  0.43847091554E+02  0.41800000000E+01 0. -1.
        -11    1    3    3    0    0 -0.44987798496E+02  0.34227278670E-01  0.30755367578E+02  0.54495833050E+02  0.00000000000E+00 0. -1.
         11    1    3    3    0    0  0.22405838921E+02  0.37063145220E+02 -0.21664966032E+02  0.48425913564E+02  0.00000000000E+00 0.  1.
</event>
<event>
 7    1  0.4274778E-006  0.9704318E+02  0.7561462E-02  0.1286640E+00
         -1   -1    0    0    0  501 -0.00000000000E+00  0.00000000000E+00  0.85337919733E+02  0.85337919733E+02  0.00000000000E+00 0.  1.
          1   -1    0    0  501    0  0.00000000000E+00 -0.00000000000E+00 -0.19067858874E+03  0.19067858874E+03  0.00000000000E+00 0. -1.
         23    2    1    2    0    0 -0.35804349393E+02 -0.12697451392E+02 -0.10567407298E+03  0.14528575215E+03  0.92183313950E+02 0.  0.
          5    1    1    2  502    0 -0.22094781246E+02  0.34997202032E+02 -0.39105061998E+02  0.57093447805E+02  0.41800000000E+01 0. -1.
         -5    1    1    2    0  502  0.57899130639E+02 -0.22299750640E+02  0.39438465971E+02  0.73637308517E+02  0.41800000000E+01 0. -1.
        -11    1    3    3    0    0  0.26066336800E+02 -0.11313784521E+02 -0.77644411110E+01  0.29457463912E+02  0.00000000000E+00 0. -1.
         11    1    3    3    0    0 -0.61870686193E+02 -0.13836668710E+01 -0.97909631868E+02  0.11582828824E+03  0.00000000000E+00 0.  1.
</event>
<event>
 7    1  0.4274778E-006  0.1533564E+03  0.7561462E-02  0.1196408E+00
         -1   -1    0    0    0  501 -0.00000000000E+00  0.00000000000E+00  0.82633625197E+02  0.82633625197E+02  0.00000000000E+00 0.  1.
          1   -1    0    0  501    0  0.00000000000E+00 -0.00000000000E+00 -0.30520940560E+03  0.30520940560E+03  0.00000000000E+00 0. -1.
         23    2    1    2    0    0  0.30415487376E+02 -0.10998459294E+03 -0.12806945843E+03  0.19393461615E+03  0.90482797273E+02 0.  0.
          5    1    1    2  502    0  0.42489849075E+02  0.20084576542E+02 -0.52790716483E+02  0.70803316562E+02  0.41800000000E+01 0.  1.
         -5    1    1    2    0  502 -0.72905336451E+02  0.89900016402E+02 -0.41715605487E+02  0.12310509808E+03  0.41800000000E+01 0.  1.
        -11    1    3    3    0    0 -0.14242470453E+02 -0.95797609501E+02 -0.70968117100E+02  0.12006874529E+03  0.00000000000E+00 0.  1.
         11    1    3    3    0    0  0.44657957829E+02 -0.14186983443E+02 -0.57101341332E+02  0.73865870864E+02  0.00000000000E+00 0. -1.
</event>
<event>
 7    1  0.4274778E-006  0.2070720E+03  0.7561462E-02  0.1143906E+00
          1   -1    0    0  501    0  0.00000000000E+00  0.00000000000E+00  0.10795193187E+03  0.10795193187E+03  0.00000000000E+00 0. -1.
         -1   -1    0    0    0  501 -0.00000000000E+00 -0.00000000000E+00 -0.42543910459E+03  0.42543910459E+03  0.00000000000E+00 0.  1.
         23    2    1    2    0    0 -0.15000703284E+02 -0.18066666673E+03 -0.18970919981E+03  0.27875585975E+03  0.94073286779E+02 0.  0.
          5    1    1    2  502    0 -0.15671228629E+02  0.18306281004E+03 -0.86863635220E+02  0.20327405971E+03  0.41800000000E+01 0. -1.
         -5    1    1    2    0  502  0.30671931913E+02 -0.23961433063E+01 -0.40914337698E+02  0.51361116998E+02  0.41800000000E+01 0. -1.
        -11    1    3    3    0    0  0.19894060121E+02 -0.15430721590E+03 -0.12008751554E+03  0.19653880507E+03  0.00000000000E+00 0.  1.
         11    1    3    3    0    0 -0.34894763406E+02 -0.26359450834E+02 -0.69621684260E+02  0.82217054683E+02  0.00000000000E+00 0. -1.
</event>
<event>
 7    1  0.4274778E-006  0.1442029E+03  0.7561462E-02  0.1207783E+00
          2   -1    0    0  501    0  0.00000000000E+00  0.00000000000E+00  0.10724243818E+04  0.10724243818E+04  0.00000000000E+00 0. -1.
         -2   -1    0    0    0  501 -0.00000000000E+00 -0.00000000000E+00 -0.20797471783E+02  0.20797471783E+02  0.00000000000E+00 0.  1.
         23    2    1    2    0    0  0.98336777288E+02  0.25911907100E+02  0.47203044278E+03  0.49162268685E+03  0.92404429660E+02 0.  0.
          5    1    1    2  502    0  0.34699811719E+00 -0.57077280845E+02  0.22721495892E+03  0.23431185705E+03  0.41800000000E+01 0. -1.
         -5    1    1    2    0  502 -0.98683775405E+02  0.31165373746E+02  0.35238150828E+03  0.36728730964E+03  0.41800000000E+01 0. -1.
        -11    1    3    3    0    0 -0.86114431480E+01  0.18489678331E+02  0.26865743525E+02  0.33731192286E+02  0.00000000000E+00 0.  1.
         11    1    3    3    0    0  0.10694822044E+03  0.74222287685E+01  0.44516469926E+03  0.45789149457E+03  0.00000000000E+00 0. -1.
</event>
<event>
 7    1  0.4274778E-006  0.1053647E+03  0.7561462E-02  0.1269403E+00
          2   -1    0    0  501    0  0.00000000000E+00  0.00000000000E+00  0.96559066421E+03  0.96559066421E+03  0.00000000000E+00 0. -1.
         -2   -1    0    0    0  501 -0.00000000000E+00 -0.00000000000E+00 -0.15548537588E+02  0.15548537588E+02  0.00000000000E+00 0.  1.
         23    2    1    2    0    0 -0.25710180092E+02 -0.48512170314E+02  0.34103513279E+03  0.35699808798E+03  0.90156691337E+02 0.  0.
          5    1    1    2  502    0 -0.10441656268E+02  0.68251728377E+02  0.17516866348E+03  0.18833178085E+03  0.41800000000E+01 0.  1.
         -5    1    1    2    0  502  0.36151836360E+02 -0.19739558063E+02  0.43383833035E+03  0.43580933297E+03  0.41800000000E+01 0.  1.
        -11    1    3    3    0    0  0.14951295683E-01  0.23596038412E+02  0.40573982267E+02  0.46936353601E+02  0.00000000000E+00 0.  1.
         11    1    3    3    0    0 -0.25725131388E+02 -0.72108208727E+02  0.30046115053E+03  0.31006173438E+03  0.00000000000E+00 0. -1.
</event>
<event>
 7    1  0.4274778E-006  0.1024443E+03  0.7561462E-02  0.1275238E+00
         -1   -1    0    0    0  501 -0.00000000000E+00  0.00000000000E+00  0.56651720860E+02  0.56651720860E+02  0.00000000000E+00 0.  1.
          1   -1    0    0  501    0  0.00000000000E+00 -0.00000000000E+00 -0.36793642357E+03  0.36793642357E+03  0.00000000000E+00 0. -1.
         23    2    1    2    0    0 -0.48796418119E+02  0.39290386795E+02 -0.24277503534E+03  0.26881890170E+03  0.96948745303E+02 0.  0.
          5    1    1    2  502    0  0.54795489093E+02 -0.69404268013E+02 -0.93940061318E+01  0.89023692322E+02  0.41800000000E+01 0. -1.
         -5    1    1    2    0  502 -0.59990709741E+01  0.30113881218E+02 -0.59115661243E+02  0.66745550404E+02  0.41800000000E+01 0. -1.
        -11    1    3    3    0    0 -0.53067074883E+02  0.78506450543E+01 -0.22724988737E+03  0.23349573524E+03  0.00000000000E+00 0. -1.
         11    1    3    3    0    0  0.42706567635E+01  0.31439741740E+02 -0.15525147965E+02  0.35323166466E+02  0.00000000000E+00 0.  1.
</event>
<event>
 7    1  0.4274778E-006  0.1018106E+03  0.7561462E-02  0.1276534E+00
          2   -1    0    0  501    0  0.00000000000E+00  0.00000000000E+00  0.22114843594E+02  0.22114843594E+02  0.00000000000E+00 0. -1.
         -2   -1    0    0    0  501 -0.00000000000E+00 -0.00000000000E+00 -0.54295097055E+03  0.54295097055E+03  0.00000000000E+00 0.  1.
         23    2    1    2    0    0 -0.18368630374E+02 -0.30833427756E+01 -0.20168070341E+03  0.22176809760E+03  0.90327567216E+02 0.  0.
          5    1    1    2  502    0 -0.51574494253E+02 -0.12187776459E+02 -0.10960792956E+03  0.12181888595E+03  0.41800000000E+01 0.  1.
         -5    1    1    2    0  502  0.69943124626E+02  0.15271119234E+02 -0.20954749398E+03  0.22147883059E+03  0.41800000000E+01 0.  1.
        -11    1    3    3    0    0 -0.46082819141E+02 -0.15167458855E+02 -0.17447885305E+03  0.18109817279E+03  0.00000000000E+00 0.  1.
         11    1    3    3    0    0  0.27714188767E+02  0.12084116079E+02 -0.27201850364E+02  0.40669924805E+02  0.00000000000E+00 0. -1.
</event>
<event>
 7    1  0.4274778E-006  0.1456029E+03  0.7561462E-02  0.1205983E+00
          1   -1    0    0  501    0  0.00000000000E+00  0.00000000000E+00  0.65922968512E+02  0.65922968512E+02  0.00000000000E+00 0. -1.
         -1   -1    0    0    0  501 -0.00000000000E+00 -0.00000000000E+00 -0.43321430671E+03  0.43321430671E+03  0.00000000000E+00 0.  1.
         23    2    1    2    0    0 -0.65063190176E+02  0.10187289329E+03 -0.10816087690E+03  0.18703563721E+03  0.93124911763E+02 0.  0.
          5    1    1    2  502    0  0.40897050248E+02  0.20193237559E+02 -0.43838295180E+02  0.63400347683E+02  0.41800000000E+01 0. -1.
         -5    1    1    2    0  502  0.24166139928E+02 -0.12206613085E+03 -0.21529216612E+03  0.24870129033E+03  0.41800000000E+01 0. -1.
        -11    1    3    3    0    0 -0.51049431371E+02  0.81628101662E+02 -0.12457621560E+03  0.15744340227E+03  0.00000000000E+00 0.  1.
         11    1    3    3    0    0 -0.14013758804E+02  0.20244791630E+02  0.16415338703E+02  0.29592234939E+02  0.00000000000E+00 0. -1.
</event>
<event>
 7    1  0.4274778E-006  0.1172681E+03  0.7561462E-02  0.1247673E+00
         -4   -1    0    0    0  501 -0.00000000000E+00  0.00000000000E+00  0.76615931824E+02  0.76615931824E+02  0.00000000000E+00 0. -1.
          4   -1    0    0  501    0  0.00000000000E+00 -0.00000000000E+00 -0.18909860455E+03  0.18909860455E+03  0.00000000000E+00 0.  1.
         23    2    1    2    0    0  0.19816704013E+02 -0.48901252005E+02 -0.47683774136E+02  0.11527819209E+03  0.90726429718E+02 0.  0.
          5    1    1    2  502    0  0.21747739270E+02  0.76712301296E+02 -0.18069582019E+02  0.81864055164E+02  0.41800000000E+01 0. -1.
         -5    1    1    2    0  502 -0.41564443283E+02 -0.27811049291E+02 -0.46729316567E+02  0.68572289118E+02  0.41800000000E+01 0. -1.
        -11    1    3    3    0    0  0.36340858287E+02  0.14395429781E+02 -0.23034175488E+02  0.45370250385E+02  0.00000000000E+00 0.  1.
         11    1    3    3    0    0 -0.16524154274E+02 -0.63296681786E+02 -0.24649598648E+02  0.69907941702E+02  0.00000000000E+00 0. -1.
</event>
<event>
 7    1  0.4274778E-006  0.8712751E+02  0.7561462E-02  0.1309961E+00
         -1   -1    0    0    0  501 -0.00000000000E+00  0.00000000000E+00  0.14840699536E+03  0.14840699536E+03  0.00000000000E+00 0.  1.
          1   -1    0    0  501    0  0.00000000000E+00 -0.00000000000E+00 -0.12539752236E+03  0.12539752236E+03  0.00000000000E+00 0. -1.
         23    2    1    2    0    0  0.23353928067E+02  0.29216256937E+02 -0.61748757050E+02  0.11814321157E+03  0.93519590554E+02 0.  0.
          5    1    1    2  502    0 -0.26886239117E+02  0.14588588802E+02 -0.23466393270E+02  0.38779386150E+02  0.41800000000E+01 0. -1.
         -5    1    1    2    0  502  0.35323110501E+01 -0.43804845739E+02  0.10822462331E+03  0.11688192000E+03  0.41800000000E+01 0. -1.
        -11    1    3    3    0    0 -0.35583556714E+02  0.70948370780E+01 -0.32568243241E+02  0.48756709173E+02  0.00000000000E+00 0.  1.
         11    1    3    3    0    0  0.58937484781E+02  0.22121419859E+02 -0.29180513810E+02  0.69386502398E+02  0.00000000000E+00 0. -1.
</event>
<event>
 7    1  0.4274778E-006  0.1148970E+03  0.7561462E-02  0.1251761E+00
         -4   -1    0    0    0  501 -0.00000000000E+00  0.00000000000E+00  0.77752873178E+02  0.77752873178E+02  0.00000000000E+00 0.  1.
          4   -1    0    0  501    0  0.00000000000E+00 -0.00000000000E+00 -0.19285274042E+03  0.19285274042E+03  0.00000000000E+00 0. -1.
         23    2    1    2    0    0  0.53668974667E+02 -0.14445136227E+02 -0.58010977298E+02  0.12229629879E+03  0.92206780700E+02 0.  0.
          5    1    1    2  502    0 -0.39184563808E+02 -0.52645385263E+02 -0.14228928917E+02  0.67282252106E+02  0.41800000000E+01 0. -1.
         -5    1    1    2    0  502 -0.14484410859E+02  0.67090521490E+02 -0.42859961027E+02  0.81027062707E+02  0.41800000000E+01 0. -1.
        -11    1    3    3    0    0 -0.13553937760E+02 -0.23810547495E+02 -0.45748645232E+02  0.53325321765E+02  0.00000000000E+00 0. -1.
         11    1    3    3    0    0  0.67222912427E+02  0.93654112680E+01 -0.12262332066E+02  0.68970977020E+02  0.00000000000E+00 0.  1.
</event>
<event>
 7    1  0.4274778E-006  0.9950031E+02  0.7561462E-02  0.1281350E+00
         -1   -1    0    0    0  501 -0.00000000000E+00  0.00000000000E+00  0.42284487441E+02  0.42284487441E+02  0.00000000000E+00 0.  1.
          1   -1    0    0  501    0  0.00000000000E+00 -0.00000000000E+00 -0.44040488327E+03  0.44040488327E+03  0.00000000000E+00 0. -1.
         23    2    1    2    0    0  0.27153284780E+02 -0.71754567873E+02 -0.12555171942E+03  0.17312978415E+03  0.91239624194E+02 0.  0.
          5    1    1    2  502    0 -0.30169816076E+02  0.62870425564E+02 -0.28499811733E+03  0.29343535488E+03  0.41800000000E+01 0. -1.
         -5    1    1    2    0  502  0.30165312958E+01  0.88841423085E+01  0.12429440926E+02  0.16124231683E+02  0.41800000000E+01 0. -1.
        -11    1    3    3    0    0 -0.11646973728E+02  0.17799519564E+02 -0.27707309780E+02  0.34930930549E+02  0.00000000000E+00 0.  1.
         11    1    3    3    0    0  0.38800258508E+02 -0.89554087437E+02 -0.97844409644E+02  0.13819885360E+03  0.00000000000E+00 0. -1.
</event>
<event>
 7    1  0.4274778E-006  0.2191897E+03  0.7561462E-02  0.1134489E+00
         -1   -1    0    0    0  501 -0.00000000000E+00  0.00000000000E+00  0.38751718312E+02  0.38751718312E+02  0.00000000000E+00 0.  1.
          1   -1    0    0  501    0  0.00000000000E+00 -0.00000000000E+00 -0.13126307735E+04  0.13126307735E+04  0.00000000000E+00 0. -1.
         23    2    1    2    0    0  0.54017272596E+02 -0.18980051885E+03 -0.58437894845E+03  0.62337184144E+03  0.90286181763E+02 0.  0.
          5    1    1    2  502    0 -0.90561992075E+02  0.16003932427E+03 -0.58643823668E+03  0.61460665271E+03  0.41800000000E+01 0. -1.
         -5    1    1    2    0  502  0.36544719479E+02  0.29761194581E+02 -0.10306187010E+03  0.11340399769E+03  0.41800000000E+01 0. -1.
        -11    1    3    3    0    0  0.54490849097E+02 -0.77007136253E+02 -0.17582942384E+03  0.19953781084E+03  0.00000000000E+00 0.  1.
         11    1    3    3    0    0 -0.47357650094E+00 -0.11279338260E+03 -0.40854952462E+03  0.42383403060E+03  0.00000000000E+00 0. -1.
</event>
<event>
 7    1  0.4274778E-006  0.1917971E+03  0.7561462E-02  0.1156850E+00
          2   -1    0    0  501    0  0.00000000000E+00  0.00000000000E+00  0.25859584734E+03  0.25859584734E+03  0.00000000000E+00 0. -1.
         -2   -1    0    0    0  501 -0.00000000000E+00 -0.00000000000E+00 -0.20441196754E+03  0.20441196754E+03  0.00000000000E+00 0.  1.
         23    2    1    2    0    0 -0.12975710239E+02 -0.16923352751E+03  0.13695352670E+03  0.23649002470E+03  0.91448933385E+02 0.  0.
          5    1    1    2  502    0  0.53879712857E+02  0.86420961021E+02  0.73908941651E+00  0.10192950807E+03  0.41800000000E+01 0.  1.
         -5    1    1    2    0  502 -0.40904002618E+02  0.82812566485E+02 -0.83508736317E+02  0.12458828211E+03  0.41800000000E+01 0.  1.
        -11    1    3    3    0    0 -0.47967313106E+02 -0.11575708737E+03  0.68348523045E+02  0.14273082009E+03  0.00000000000E+00 0. -1.
         11    1    3    3    0    0  0.34991602867E+02 -0.53476440138E+02  0.68605003658E+02  0.93759204603E+02  0.00000000000E+00 0.  1.
</event>
<event>
 7    1  0.4274778E-006  0.1333354E+03  0.7561462E-02  0.1222589E+00
         -2   -1    0    0    0  501 -0.00000000000E+00  0.00000000000E+00  0.10244551507E+03  0.10244551507E+03  0.00000000000E+00 0.  1.
          2   -1    0    0  501    0  0.00000000000E+00 -0.00000000000E+00 -0.23281078964E+03  0.23281078964E+03  0.00000000000E+00 0. -1.
         23    2    1    2    0    0 -0.10462684095E+03  0.26055670336E+02 -0.80906832223E+02  0.16286462417E+03  0.91396370280E+02 0.  0.
          5    1    1    2  502    0 -0.21516387967E+01  0.32915091791E+02  0.12490984038E+02  0.35518022177E+02  0.41800000000E+01 0. -1.
         -5    1    1    2    0  502  0.10677847975E+03 -0.58970762127E+02 -0.61949426388E+02  0.13687365836E+03  0.41800000000E+01 0. -1.
        -11    1    3    3    0    0 -0.27284625524E+02 -0.55077062199E+01 -0.73979906702E+02  0.79043103516E+02  0.00000000000E+00 0. -1.
         11    1    3    3    0    0 -0.77342215431E+02  0.31563376556E+02 -0.69269255209E+01  0.83821520652E+02  0.00000000000E+00 0.  1.
</event>
<event>
 7    1  0.4274778E-006  0.7683991E+02  0.7561462E-02  0.1338266E+00
          1   -1    0    0  501    0  0.00000000000E+00  0.00000000000E+00  0.30164122385E+02  0.30164122385E+02  0.00000000000E+00 0. -1.
         -1   -1    0    0    0  501 -0.00000000000E+00 -0.00000000000E+00 -0.48664205577E+03  0.48664205577E+03  0.00000000000E+00 0.  1.
         23    2    1    2    0    0  0.37798503515E+02 -0.20860468479E+02 -0.80567867476E+02  0.11828403130E+03  0.75073595737E+02 0.  0.
          5    1    1    2  502    0  0.34882879928E+02  0.26684790208E+01 -0.24588971697E+03  0.24840121055E+03  0.41800000000E+01 0.  1.
         -5    1    1    2    0  502 -0.72681383442E+02  0.18191989458E+02 -0.13002034894E+03  0.15012093631E+03  0.41800000000E+01 0.  1.
        -11    1    3    3    0    0  0.10023704944E+02 -0.33328846399E+01  0.14364871306E+02  0.17830656422E+02  0.00000000000E+00 0. -1.
         11    1    3    3    0    0  0.27774798571E+02 -0.17527583839E+02 -0.94932738782E+02  0.10045337487E+03  0.00000000000E+00 0.  1.
</event>
<event>
 7    1  0.4274778E-006  0.8982059E+02  0.7561462E-02  0.1303287E+00
         -2   -1    0    0    0  501 -0.00000000000E+00  0.00000000000E+00  0.14087003812E+03  0.14087003812E+03  0.00000000000E+00 0.  1.
          2   -1    0    0  501    0  0.00000000000E+00 -0.00000000000E+00 -0.79034459767E+02  0.79034459767E+02  0.00000000000E+00 0. -1.
         23    2    1    2    0    0 -0.82438838432E+01 -0.62329795506E+01  0.87219596476E+01  0.83615293338E+02  0.82514441433E+02 0.  0.
          5    1    1    2  502    0  0.56108270686E+02 -0.15689170074E+02  0.59155510145E+02  0.83133235697E+02  0.41800000000E+01 0.  1.
         -5    1    1    2    0  502 -0.47864386843E+02  0.21922149624E+02 -0.60418914439E+01  0.53155968848E+02  0.41800000000E+01 0.  1.
        -11    1    3    3    0    0 -0.37205452368E+02 -0.11585200941E+02  0.28378894416E+02  0.48206059941E+02  0.00000000000E+00 0.  1.
         11    1    3    3    0    0  0.28961568525E+02  0.53522213908E+01 -0.19656934769E+02  0.35409233396E+02  0.00000000000E+00 0. -1.
</event>
<event>
 7    1  0.4274778E-006  0.1078608E+03  0.7561462E-02  0.1264583E+00
         -1   -1    0    0    0  501 -0.00000000000E+00  0.00000000000E+00  0.40810425360E+02  0.40810425360E+02  0.00000000000E+00 0.  1.
          1   -1    0    0  501    0  0.00000000000E+00 -0.00000000000E+00 -0.56863114167E+03  0.56863114167E+03  0.00000000000E+00 0. -1.
         23    2    1    2    0    0 -0.89221911263E+02 -0.50813169748E+02 -0.30155378306E+03  0.33125707590E+03  0.90851739612E+02 0.  0.
          5    1    1    2  502    0  0.63150121552E+02  0.22849856718E+02 -0.22990856248E+03  0.23955265247E+03  0.41800000000E+01 0.  1.
         -5    1    1    2    0  502  0.26071789711E+02  0.27963313030E+02  0.36416292301E+01  0.38631838654E+02  0.41800000000E+01 0.  1.
        -11    1    3    3    0    0 -0.45164942233E+02 -0.34616936663E+01 -0.35772496761E+02  0.57719380233E+02  0.00000000000E+00 0.  1.
         11    1    3    3    0    0 -0.44056969030E+02 -0.47351476082E+02 -0.26578128630E+03  0.27353769567E+03  0.00000000000E+00 0. -1.
</event>
<event>
 7    1  0.4274778E-006  0.2466016E+03  0.7561462E-02  0.1115472E+00
         -1   -1    0    0    0  501 -0.00000000000E+00  0.00000000000E+00  0.12924512998E+03  0.12924512998E+03  0.00000000000E+00 0. -1.
          1   -1    0    0  501    0  0.00000000000E+00 -0.00000000000E+00 -0.82740606513E+03  0.82740606513E+03  0.00000000000E+00 0.  1.
         23    2    1    2    0    0  0.20916675711E+03  0.10089745889E+03 -0.63936494705E+03  0.68640397979E+03  0.91825151553E+02 0.  0.
          5    1    1    2  502    0 -0.18979056141E+03 -0.39580602729E+02 -0.19803844941E+02  0.19492754035E+03  0.41800000000E+01 0.  1.
         -5    1    1    2    0  502 -0.19376195706E+02 -0.61316856165E+02 -0.38992143157E+02  0.75319674972E+02  0.41800000000E+01 0.  1.
        -11    1    3    3    0    0  0.80982267805E+02  0.58230139798E+02 -0.39265334186E+03  0.40512408440E+03  0.00000000000E+00 0.  1.
         11    1    3    3    0    0  0.12818448931E+03  0.42667319096E+02 -0.24671160518E+03  0.28127989539E+03  0.00000000000E+00 0. -1.
</event>
<event>
 7    1  0.4274778E-006  0.1650779E+03  0.7561462E-02  0.1183080E+00
         -2   -1    0    0    0  501 -0.00000000000E+00  0.00000000000E+00  0.48928767710E+02  0.48928767710E+02  0.00000000000E+00 0.  1.
          2   -1    0    0  501    0  0.00000000000E+00 -0.00000000000E+00 -0.69091190345E+03  0.69091190345E+03  0.00000000000E+00 0. -1.
         23    2    1    2    0    0 -0.67520487099E+01 -0.13797608321E+03 -0.41162614156E+03  0.44353765200E+03  0.90590168511E+02 0.  0.
          5    1    1    2  502    0 -0.25385183567E+02  0.14586443827E+03 -0.21081511481E+03  0.25764573920E+03  0.41800000000E+01 0.  1.
         -5    1    1    2    0  502  0.32137232277E+02 -0.78883550607E+01 -0.19541879367E+02  0.38657279950E+02  0.41800000000E+01 0.  1.
        -11    1    3    3    0    0  0.14000981413E+02 -0.12118365130E+03 -0.39161178087E+03  0.41017227081E+03  0.00000000000E+00 0. -1.
         11    1    3    3    0    0 -0.20753030123E+02 -0.16792431906E+02 -0.20014360690E+02  0.33365381197E+02  0.00000000000E+00 0.  1.
</event>
<event>
 7    1  0.4274778E-006  0.1320547E+03  0.7561462E-02  0.1224438E+00
          2   -1    0    0  501    0  0.00000000000E+00  0.00000000000E+00  0.24093147078E+03  0.24093147078E+03  0.00000000000E+00 0.  1.
         -2   -1    0    0    0  501 -0.00000000000E+00 -0.00000000000E+00 -0.77337725094E+02  0.77337725094E+02  0.00000000000E+00 0. -1.
         23    2    1    2    0    0 -0.33726775879E+02 -0.75113144005E+02  0.87427930519E+02  0.15025838654E+03  0.90302048025E+02 0.  0.
          5    1    1    2  502    0  0.76423861427E+02  0.32202017847E+02  0.66890868599E+02  0.10662756328E+03  0.41800000000E+01 0.  1.
         -5    1    1    2    0  502 -0.42697085548E+02  0.42911126158E+02  0.92749465678E+01  0.61383246055E+02  0.41800000000E+01 0.  1.
        -11    1    3    3    0    0  0.11617732869E+02 -0.74134648748E+02  0.66671924136E+02  0.10037959618E+03  0.00000000000E+00 0. -1.
         11    1    3    3    0    0 -0.45344508748E+02 -0.97849525706E+00  0.20756006384E+02  0.49878790358E+02  0.00000000000E+00 0.  1.
</event>
<event>
 7    1  0.4274778E-006  0.9969461E+02  0.7561462E-02  0.1280939E+00
          2   -1    0    0  501    0  0.00000000000E+00  0.00000000000E+00  0.66554484014E+03  0.66554484014E+03  0.00000000000E+00 0. -1.
         -2   -1    0    0    0  501 -0.00000000000E+00 -0.00000000000E+00 -0.30681487927E+02  0.30681487927E+02  0.00000000000E+00 0.  1.
         23    2    1    2    0    0  0.20076551569E+02  0.82006154058E+02  0.37682556763E+03  0.39729563191E+03  0.93371481112E+02 0.  0.
          5    1    1    2  502    0 -0.27459365962E+01 -0.54179794807E+02  0.19019426066E+02  0.57638540067E+02  0.41800000000E+01 0.  1.
         -5    1    1    2    0  502 -0.17330614973E+02 -0.27826359250E+02  0.23901835851E+03  0.24129215609E+03  0.41800000000E+01 0.  1.
        -11    1    3    3    0    0 -0.27778318845E+02  0.36743793204E+02  0.25181342206E+03  0.25599168124E+03  0.00000000000E+00 0. -1.
         11    1    3    3    0    0  0.47854870414E+02  0.45262360854E+02  0.12501214557E+03  0.14130395066E+03  0.00000000000E+00 0.  1.
</event>
<event>
 7    1  0.4274778E-006  0.1150148E+03  0.7561462E-02  0.1251555E+00
         -2   -1    0    0    0  501 -0.00000000000E+00  0.00000000000E+00  0.91020171543E+02  0.91020171543E+02  0.00000000000E+00 0. -1.
          2   -1    0    0  501    0  0.00000000000E+00 -0.00000000000E+00 -0.22641197149E+03  0.22641197149E+03  0.00000000000E+00 0.  1.
         23    2    1    2    0    0 -0.74717725627E+02 -0.28364807972E+02 -0.11234349737E+03  0.16721038117E+03  0.94609456797E+02 0.  0.
          5    1    1    2  502    0 -0.28244378313E+02 -0.19747435637E+02 -0.57260310629E+01  0.35184740333E+02  0.41800000000E+01 0. -1.
         -5    1    1    2    0  502  0.10296210394E+03  0.48112243609E+02 -0.17322271519E+02  0.11503702153E+03  0.41800000000E+01 0. -1.
        -11    1    3    3    0    0 -0.54926181097E+02 -0.12769458114E+02 -0.12636338421E+03  0.13837503135E+03  0.00000000000E+00 0.  1.
         11    1    3    3    0    0 -0.19791544530E+02 -0.15595349859E+02  0.14019886846E+02  0.28835349821E+02  0.00000000000E+00 0. -1.
</event>
<event>
 7    1  0.4274778E-006  0.1823180E+03  0.7561462E-02  0.1165578E+00
          1   -1    0    0  501    0  0.00000000000E+00  0.00000000000E+00  0.18417172574E+04  0.18417172574E+04  0.00000000000E+00 0. -1.
         -1   -1    0    0    0  501 -0.00000000000E+00 -0.00000000000E+00 -0.21532214718E+02  0.21532214718E+02  0.00000000000E+00 0.  1.
         23    2    1    2    0    0 -0.45734601111E+02 -0.15569954286E+03  0.10017545870E+04  0.10195637811E+04  0.98305898339E+02 0.  0.
          5    1    1    2  502    0  0.22202012885E+02  0.14897964954E+03  0.45281461451E+03  0.47722784168E+03  0.41800000000E+01 0. -1.
         -5    1    1    2    0  502  0.23532588226E+02  0.67198933167E+01  0.36561584113E+03  0.36645784936E+03  0.41800000000E+01 0. -1.
        -11    1    3    3    0    0 -0.76474304566E+02 -0.10651167707E+03  0.73085640193E+03  0.74252551260E+03  0.00000000000E+00 0.  1.
         11    1    3    3    0    0  0.30739703455E+02 -0.49187865793E+02  0.27089818509E+03  0.27703826847E+03  0.00000000000E+00 0. -1.
</event>
<event>
 7    1  0.4274778E-006  0.9016444E+02  0.7561462E-02  0.1302454E+00
         -1   -1    0    0    0  501 -0.00000000000E+00  0.00000000000E+00  0.79098734186E+02  0.79098734186E+02  0.00000000000E+00 0.  1.
          1   -1    0    0  501    0  0.00000000000E+00 -0.00000000000E+00 -0.39587738246E+03  0.39587738246E+03  0.00000000000E+00 0. -1.
         23    2    1    2    0    0 -0.13712276162E+02 -0.86899467520E+02 -0.29473569844E+03  0.32046541256E+03  0.89941118177E+02 0.  0.
          5    1    1    2  502    0  0.18457951149E+02  0.51497380977E+02 -0.73508117357E+02  0.91725633960E+02  0.41800000000E+01 0.  1.
         -5    1    1    2    0  502 -0.47456749863E+01  0.35402086543E+02  0.51465167523E+02  0.62785070126E+02  0.41800000000E+01 0.  1.
        -11    1    3    3    0    0 -0.17435861932E+02 -0.76306796731E+02 -0.29852424800E+03  0.30861539682E+03  0.00000000000E+00 0. -1.
         11    1    3    3    0    0  0.37235857693E+01 -0.10592670789E+02  0.37885495563E+01  0.11850015745E+02  0.00000000000E+00 0.  1.
</event>
<event>
 7    1  0.4274778E-006  0.1191879E+03  0.7561462E-02  0.1244443E+00
          2   -1    0    0  501    0  0.00000000000E+00  0.00000000000E+00  0.92218208093E+03  0.92218208093E+03  0.00000000000E+00 0. -1.
         -2   -1    0    0    0  501 -0.00000000000E+00 -0.00000000000E+00 -0.20315184818E+02  0.20315184818E+02  0.00000000000E+00 0.  1.
         23    2    1    2    0    0  0.29303696703E+02  0.77587176961E+02  0.38415345228E+03  0.40346701363E+03  0.91286798158E+02 0.  0.
          5    1    1    2  502    0 -0.55927722856E+02 -0.15807461168E+02  0.98590875002E+02  0.11452257003E+03  0.41800000000E+01 0. -1.
         -5    1    1    2    0  502  0.26624026153E+02 -0.61779715793E+02  0.41912256883E+03  0.42450768209E+03  0.41800000000E+01 0. -1.
        -11    1    3    3    0    0  0.54738590474E+02  0.62704880418E+02  0.34233288640E+03  0.35230671357E+03  0.00000000000E+00 0.  1.
         11    1    3    3    0    0 -0.25434893771E+02  0.14882296543E+02  0.41820565880E+02  0.51160300058E+02  0.00000000000E+00 0. -1.
</event>
<event>
 7    1  0.4274778E-006  0.7092921E+02  0.7561462E-02  0.1356961E+00
         -1   -1    0    0    0  501 -0.00000000000E+00  0.00000000000E+00  0.70502914504E+02  0.70502914504E+02  0.00000000000E+00 0.  1.
          1   -1    0    0  501    0  0.00000000000E+00 -0.00000000000E+00 -0.15243275247E+03  0.15243275247E+03  0.00000000000E+00 0. -1.
         23    2    1    2    0    0  0.55205479395E+01 -0.11230916495E+02 -0.32810977070E+02  0.87964657261E+02  0.80651167232E+02 0.  0.
          5    1    1    2  502    0 -0.18106012018E+02 -0.39852076382E+02 -0.66223264184E+02  0.79492193216E+02  0.41800000000E+01 0. -1.
         -5    1    1    2    0  502  0.12585464079E+02  0.51082992877E+02  0.17104403293E+02  0.55478816492E+02  0.41800000000E+01 0. -1.
        -11    1    3    3    0    0 -0.46594211449E+01 -0.26418883298E+02 -0.53806772386E+02  0.60123509168E+02  0.00000000000E+00 0. -1.
         11    1    3    3    0    0  0.10179969084E+02  0.15187966803E+02  0.20995795316E+02  0.27841148093E+02  0.00000000000E+00 0.  1.
</event>
<event>
 7    1  0.4274778E-006  0.1114422E+03  0.7561462E-02  0.1257922E+00
         -1   -1    0    0    0  501 -0.00000000000E+00  0.00000000000E+00  0.89915028612E+02  0.89915028612E+02  0.00000000000E+00 0.  1.
          1   -1    0    0  501    0  0.00000000000E+00 -0.00000000000E+00 -0.18661342730E+03  0.18661342730E+03  0.00000000000E+00 0. -1.
         23    2    1    2    0    0  0.72870050873E+02 -0.21122859865E+02 -0.37422170484E+02  0.11867986940E+03  0.83236248323E+02 0.  0.
          5    1    1    2  502    0  0.32135690418E+02 -0.13783876271E+02 -0.97335799977E+01  0.36536458822E+02  0.41800000000E+01 0.  1.
         -5    1    1    2    0  502 -0.10500574129E+03  0.34906736136E+02 -0.49542648203E+02  0.12131212768E+03  0.41800000000E+01 0.  1.
        -11    1    3    3    0    0  0.33657821632E+02 -0.31687166684E+01  0.25535755932E+02  0.42367022003E+02  0.00000000000E+00 0.  1.
         11    1    3    3    0    0  0.39212229241E+02 -0.17954143196E+02 -0.62957926416E+02  0.76312847401E+02  0.00000000000E+00 0. -1.
</event>
<event>
 7    1  0.4274778E-006  0.1195790E+03  0.7561462E-02  0.1243793E+00
         -2   -1    0    0    0  501 -0.00000000000E+00  0.00000000000E+00  0.78552798928E+02  0.78552798928E+02  0.00000000000E+00 0.  1.
          2   -1    0    0  501    0  0.00000000000E+00 -0.00000000000E+00 -0.19728024025E+03  0.19728024025E+03  0.00000000000E+00 0. -1.
         23    2    1    2    0    0  0.61203044114E+01  0.54391063472E+02 -0.80339934312E+02  0.13400471025E+03  0.92232919356E+02 0.  0.
          5    1    1    2  502    0 -0.58446208858E+02  0.29919579488E+01 -0.13933791817E+02  0.60303682281E+02  0.41800000000E+01 0.  1.
         -5    1    1    2    0  502  0.52325904447E+02 -0.57383021421E+02 -0.24453715193E+02  0.81524646643E+02  0.41800000000E+01 0.  1.
        -11    1    3    3    0    0 -0.21909672882E+02  0.68082001294E+02 -0.72498824066E+02  0.10183944303E+03  0.00000000000E+00 0. -1.
         11    1    3    3    0    0  0.28029977294E+02 -0.13690937821E+02 -0.78411102462E+01  0.32165267221E+02  0.00000000000E+00 0.  1.
</event>
<event>
 7    1  0.4274778E-006  0.9562470E+02  0.7561462E-02  0.1289775E+00
          2   -1    0    0  501    0  0.00000000000E+00  0.00000000000E+00  0.21135247146E+02  0.21135247146E+02  0.00000000000E+00 0. -1.
         -2   -1    0    0    0  501 -0.00000000000E+00 -0.00000000000E+00 -0.71829521549E+03  0.71829521549E+03  0.00000000000E+00 0.  1.
         23    2    1    2    0    0  0.50885785285E+02  0.28650214952E+01 -0.21836306053E+03  0.24194534383E+03  0.90871071878E+02 0.  0.
          5    1    1    2  502    0 -0.45476540074E+02 -0.45028775149E+02 -0.41967625414E+03  0.42454839180E+03  0.41800000000E+01 0. -1.
         -5    1    1    2    0  502 -0.54092452108E+01  0.42163753654E+02 -0.59120653666E+02  0.72936727002E+02  0.41800000000E+01 0. -1.
        -11    1    3    3    0    0  0.35855596988E+02  0.34261011076E+02 -0.51522093015E+02  0.71512004474E+02  0.00000000000E+00 0.  1.
         11    1    3    3    0    0  0.15030188297E+02 -0.31395989581E+02 -0.16684096752E+03  0.17043333936E+03  0.00000000000E+00 0. -1.
</event>
<event>
 7    1  0.4274778E-006  0.1103625E+03  0.7561462E-02  0.1259900E+00
          2   -1    0    0  501    0  0.00000000000E+00  0.00000000000E+00  0.39748916116E+03  0.39748916116E+03  0.00000000000E+00 0. -1.
         -2   -1    0    0    0  501 -0.00000000000E+00 -0.00000000000E+00 -0.46245122338E+02  0.46245122338E+02  0.00000000000E+00 0.  1.
         23    2    1    2    0    0  0.19597427205E+02 -0.71761384465E+02  0.20993559149E+03  0.24087819904E+03  0.91736572557E+02 0.  0.
          5    1    1    2  502    0  0.33050623371E+02  0.37728725491E+02  0.12948621769E+03  0.13892427220E+03  0.41800000000E+01 0.  1.
         -5    1    1    2    0  502 -0.52648050577E+02  0.34032658974E+02  0.11822229644E+02  0.63931812270E+02  0.41800000000E+01 0.  1.
        -11    1    3    3    0    0  0.48974170104E+02 -0.55380917906E+02  0.18433924317E+03  0.19861135913E+03  0.00000000000E+00 0. -1.
         11    1    3    3    0    0 -0.29376742899E+02 -0.16380466559E+02  0.25596348321E+02  0.42266839903E+02  0.00000000000E+00 0.  1.
</event>
<event>
 7    1  0.4274778E-006  0.1523352E+03  0.7561462E-02  0.1197633E+00
          1   -1    0    0  501    0  0.00000000000E+00  0.00000000000E+00  0.64232071363E+03  0.64232071363E+03  0.00000000000E+00 0. -1.
         -1   -1    0    0    0  501 -0.00000000000E+00 -0.00000000000E+00 -0.53310699561E+02  0.53310699561E+02  0.00000000000E+00 0.  1.
         23    2    1    2    0    0 -0.89190398716E+02  0.11373581796E+03  0.21038582139E+03  0.27149129169E+03  0.92490886627E+02 0.  0.
          5    1    1    2  502    0  0.85216961701E+02 -0.91162834989E+02  0.15375545500E+03  0.19806767880E+03  0.41800000000E+01 0.  1.
         -5    1    1    2    0  502  0.39734370146E+01 -0.22572982973E+02  0.22486873768E+03  0.22607244270E+03  0.41800000000E+01 0.  1.
        -11    1    3    3    0    0 -0.85583108595E+02  0.64556942110E+02  0.85170869540E+02  0.13691655952E+03  0.00000000000E+00 0.  1.
         11    1    3    3    0    0 -0.36072901209E+01  0.49178875852E+02  0.12521495185E+03  0.13457473217E+03  0.00000000000E+00 0. -1.
</event>
<event>
 7    1  0.4274778E-006  0.9797866E+02  0.7561462E-02  0.1284605E+00
          2   -1    0    0  501    0  0.00000000000E+00  0.00000000000E+00  0.69936370818E+03  0.69936370818E+03  0.00000000000E+00 0.  1.
         -2   -1    0    0    0  501 -0.00000000000E+00 -0.00000000000E+00 -0.19772493599E+02  0.19772493599E+02  0.00000000000E+00 0. -1.
         23    2    1    2    0    0  0.22706636362E+02  0.38876714924E+02  0.29095299707E+03  0.30838777481E+03  0.91773541136E+02 0.  0.
          5    1    1    2  502    0 -0.47940238401E+02  0.58041193428E+01  0.55631500818E+02  0.73785435843E+02  0.41800000000E+01 0. -1.
         -5    1    1    2    0  502  0.25233602039E+02 -0.44680834267E+02  0.33300671670E+03  0.33696299113E+03  0.41800000000E+01 0. -1.
        -11    1    3    3    0    0 -0.31749889318E+02  0.57634059209E+01  0.15381427918E+03  0.15716266986E+03  0.00000000000E+00 0. -1.
         11    1    3    3    0    0  0.54456525680E+02  0.33113309003E+02  0.13713871789E+03  0.15122510495E+03  0.00000000000E+00 0.  1.
</event>
<event>
 7    1  0.4274778E-006  0.1254337E+03  0.7561462E-02  0.1234393E+00
         -2   -1    0    0    0  501 -0.00000000000E+00  0.00000000000E+00  0.70927138165E+03  0.70927138165E+03  0.00000000000E+00 0.  1.
          2   -1    0    0  501    0  0.00000000000E+00 -0.00000000000E+00 -0.37606241067E+02  0.37606241067E+02  0.00000000000E+00 0. -1.
         23    2    1    2    0    0 -0.94543228822E+02 -0.68081482691E+02  0.18256470624E+03  0.22876523305E+03  0.73689548003E+02 0.  0.
          5    1    1    2  502    0  0.32789619311E+02  0.56703099627E+01  0.36216414908E+03  0.36371369899E+03  0.41800000000E+01 0.  1.
         -5    1    1    2    0  502  0.61753609511E+02  0.62411172729E+02  0.12693628526E+03  0.15439869068E+03  0.41800000000E+01 0.  1.
        -11    1    3    3    0    0 -0.30166307669E+02 -0.56460203659E+02  0.51043027561E+02  0.81872775562E+02  0.00000000000E+00 0. -1.
         11    1    3    3    0    0 -0.64376921153E+02 -0.11621279032E+02  0.13152167868E+03  0.14689245748E+03  0.00000000000E+00 0.  1.
</event>
<event>
 7    1  0.4274778E-006  0.9999220E+02  0.7561462E-02  0.1280312E+00
          2   -1    0    0  501    0  0.00000000000E+00  0.00000000000E+00  0.53953434741E+02  0.53953434741E+02  0.00000000000E+00 0. -1.
         -2   -1    0    0    0  501 -0.00000000000E+00 -0.00000000000E+00 -0.36971156178E+03  0.36971156178E+03  0.00000000000E+00 0.  1.
         23    2    1    2    0    0  0.34586310218E+02 -0.47026728180E+02 -0.70854052036E+02  0.14253658521E+03  0.10903511093E+03 0.  0.
          5    1    1    2  502    0 -0.53890727267E+02  0.69766797622E+02 -0.23225780458E+03  0.24846081527E+03  0.41800000000E+01 0. -1.
         -5    1    1    2    0  502  0.19304417049E+02 -0.22740069442E+02 -0.12646270428E+02  0.32667596048E+02  0.41800000000E+01 0. -1.
        -11    1    3    3    0    0 -0.14533780912E+02 -0.14593897782E+01 -0.74032757811E+02  0.75459988306E+02  0.00000000000E+00 0.  1.
         11    1    3    3    0    0  0.49120091131E+02 -0.45567338402E+02  0.31787057746E+01  0.67076596903E+02  0.00000000000E+00 0. -1.
</event>
<event>
 7    1  0.4274778E-006  0.1978555E+03  0.7561462E-02  0.1151561E+00
         -2   -1    0    0    0  501 -0.00000000000E+00  0.00000000000E+00  0.13344307731E+03  0.13344307731E+03  0.00000000000E+00 0.  1.
          2   -1    0    0  501    0  0.00000000000E+00 -0.00000000000E+00 -0.59642887846E+03  0.59642887846E+03  0.00000000000E+00 0. -1.
         23    2    1    2    0    0  0.11813616687E+03 -0.61405741972E+02 -0.42781130673E+03  0.45707677164E+03  0.90387177929E+02 0.  0.
          5    1    1    2  502    0 -0.28528258988E+02 -0.83249655442E+02  0.26105821741E+02  0.91887719641E+02  0.41800000000E+01 0. -1.
         -5    1    1    2    0  502 -0.89607907883E+02  0.14465539741E+03 -0.61280316156E+02  0.18090746448E+03  0.41800000000E+01 0.  1.
        -11    1    3    3    0    0  0.62455381997E+02 -0.13393927903E+02 -0.32172073711E+03  0.32800046453E+03  0.00000000000E+00 0.  1.
         11    1    3    3    0    0  0.55680784874E+02 -0.48011814069E+02 -0.10609056962E+03  0.12907630711E+03  0.00000000000E+00 0. -1.
</event>
<event>
 7    1  0.4804533E-006  0.1633178E+03  0.7561462E-02  0.1185001E+00
         -3   -1    0    0    0  501 -0.00000000000E+00  0.00000000000E+00  0.25404620385E+02  0.25404620385E+02  0.00000000000E+00 0. -1.
          3   -1    0    0  501    0  0.00000000000E+00 -0.00000000000E+00 -0.14322190525E+04  0.14322190525E+04  0.00000000000E+00 0.  1.
         23    2    1    2    0    0 -0.39520034665E+01 -0.15401562396E+03 -0.58372327550E+03  0.61094597361E+03  0.93732009209E+02 0.  0.
          5    1    1    2  502    0  0.30760533803E+02  0.12014607584E+03 -0.34531892193E+03  0.36693857827E+03  0.41800000000E+01 0. -1.
         -5    1    1    2    0  502 -0.26808530337E+02  0.33869548117E+02 -0.47777223465E+03  0.47973912097E+03  0.41800000000E+01 0. -1.
        -11    1    3    3    0    0 -0.21732453009E+02 -0.71152587473E+02 -0.42051548549E+03  0.42704597382E+03  0.00000000000E+00 0.  1.
         11    1    3    3    0    0  0.17780449543E+02 -0.82863036489E+02 -0.16320779001E+03  0.18389999979E+03  0.00000000000E+00 0. -1.
</event>
<event>
 7    1  0.4274778E-006  0.9484638E+02  0.7561462E-02  0.1291522E+00
         -2   -1    0    0    0  501 -0.00000000000E+00  0.00000000000E+00  0.26090394576E+02  0.26090394576E+02  0.00000000000E+00 0.  1.
          2   -1    0    0  501    0  0.00000000000E+00 -0.00000000000E+00 -0.59425332737E+03  0.59425332737E+03  0.00000000000E+00 0. -1.
         23    2    1    2    0    0  0.39182609266E+02 -0.14621137990E+02 -0.33714899258E+03  0.35432801221E+03  0.10064711866E+03 0.  0.
          5    1    1    2  502    0  0.28052314852E+02  0.10831030813E+02 -0.17700668167E+03  0.17959142895E+03  0.41800000000E+01 0.  1.
         -5    1    1    2    0  502 -0.67234924118E+02  0.37901071773E+01 -0.54007258547E+02  0.86424280786E+02  0.41800000000E+01 0.  1.
        -11    1    3    3    0    0 -0.17885592962E+02 -0.28019906504E+02 -0.42768920334E+02  0.54168165399E+02  0.00000000000E+00 0.  1.
         11    1    3    3    0    0  0.57068202228E+02  0.13398768514E+02 -0.29438007224E+03  0.30015984681E+03  0.00000000000E+00 0. -1.
</event>
<event>
 7    1  0.4274778E-006  0.8995818E+02  0.7561462E-02  0.1302953E+00
          1   -1    0    0  501    0  0.00000000000E+00  0.00000000000E+00  0.26538652041E+03  0.26538652041E+03  0.00000000000E+00 0. -1.
         -1   -1    0    0    0  501 -0.00000000000E+00 -0.00000000000E+00 -0.53161779735E+02  0.53161779735E+02  0.00000000000E+00 0.  1.
         23    2    1    2    0    0 -0.70002596172E+01 -0.26461138136E+02  0.14621316084E+03  0.17447708038E+03  0.91185348098E+02 0.  0.
          5    1    1    2  502    0 -0.11224374538E+02 -0.26257184477E+02 -0.24375225338E+02  0.37776319708E+02  0.41800000000E+01 0.  1.
         -5    1    1    2    0  502  0.18224634155E+02  0.52718322614E+02  0.90386805171E+02  0.10629490006E+03  0.41800000000E+01 0.  1.
        -11    1    3    3    0    0  0.37812547243E+02  0.79261758612E+01  0.63018872745E+02  0.73918815702E+02  0.00000000000E+00 0.  1.
         11    1    3    3    0    0 -0.44812806860E+02 -0.34387313998E+02  0.83194288098E+02  0.10055826468E+03  0.00000000000E+00 0. -1.
</event>
<event>
 7    1  0.4274778E-006  0.1463977E+03  0.7561462E-02  0.1204971E+00
         -2   -1    0    0    0  501 -0.00000000000E+00  0.00000000000E+00  0.17888077350E+03  0.17888077350E+03  0.00000000000E+00 0.  1.
          2   -1    0    0  501    0  0.00000000000E+00 -0.00000000000E+00 -0.15403134339E+03  0.15403134339E+03  0.00000000000E+00 0. -1.
         23    2    1    2    0    0 -0.12433682940E+03 -0.77653201165E+01 -0.14785455793E+02  0.15197497275E+03  0.85777825199E+02 0.  0.
          5    1    1    2  502    0  0.12346983719E+03  0.23738190582E+02  0.71744603319E+02  0.14482079579E+03  0.41800000000E+01 0. -1.
         -5    1    1    2    0  502  0.86699221323E+00 -0.15972870465E+02 -0.32109717414E+02  0.36116348359E+02  0.41800000000E+01 0. -1.
        -11    1    3    3    0    0 -0.41066096227E+02  0.37561585889E+02  0.20157368592E+01  0.55689857146E+02  0.00000000000E+00 0. -1.
         11    1    3    3    0    0 -0.83270733175E+02 -0.45326906006E+02 -0.16801192652E+02  0.96285115600E+02  0.00000000000E+00 0.  1.
</event>
<event>
 7    1  0.4274778E-006  0.1071249E+03  0.7561462E-02  0.1265989E+00
         -2   -1    0    0    0  501 -0.00000000000E+00  0.00000000000E+00  0.63256787834E+02  0.63256787834E+02  0.00000000000E+00 0. -1.
          2   -1    0    0  501    0  0.00000000000E+00 -0.00000000000E+00 -0.30815838670E+03  0.30815838670E+03  0.00000000000E+00 0.  1.
         23    2    1    2    0    0 -0.21676277755E+02  0.35822719574E+02 -0.21374722239E+03  0.23587504990E+03  0.90531960288E+02 0.  0.
          5    1    1    2  502    0 -0.56192413811E+01 -0.75381639575E+02  0.40548580002E+01  0.75814785709E+02  0.41800000000E+01 0. -1.
         -5    1    1    2    0  502  0.27295519136E+02  0.39558920001E+02 -0.35209234474E+02  0.59725338918E+02  0.41800000000E+01 0. -1.
        -11    1    3    3    0    0  0.23495890344E+02  0.38440045077E+02 -0.15677908283E+03  0.16312380189E+03  0.00000000000E+00 0.  1.
         11    1    3    3    0    0 -0.45172168099E+02 -0.26173255031E+01 -0.56968139559E+02  0.72751248020E+02  0.00000000000E+00 0. -1.
</event>
<event>
 7    1  0.4274778E-006  0.7314941E+02  0.7561462E-02  0.1349699E+00
         -2   -1    0    0    0  501 -0.00000000000E+00  0.00000000000E+00  0.19173978805E+03  0.19173978805E+03  0.00000000000E+00 0.  1.
          2   -1    0    0  501    0  0.00000000000E+00 -0.00000000000E+00 -0.96295502228E+02  0.96295502228E+02  0.00000000000E+00 0. -1.
         23    2    1    2    0    0  0.18189426644E+01  0.29011579176E+02 -0.57666690747E+02  0.96692462947E+02  0.71965303379E+02 0.  0.
          5    1    1    2  502    0  0.75085832567E+01  0.20829424942E+02 -0.67974044963E+01  0.23535523658E+02  0.41800000000E+01 0. -1.
         -5    1    1    2    0  502 -0.93275259211E+01 -0.49841004118E+02  0.15990838107E+03  0.16780730367E+03  0.41800000000E+01 0.  1.
        -11    1    3    3    0    0 -0.31632162396E+02  0.22476534403E+02 -0.47062929506E+02  0.60997603480E+02  0.00000000000E+00 0.  1.
         11    1    3    3    0    0  0.33451105060E+02  0.65350447724E+01 -0.10603761241E+02  0.35694859467E+02  0.00000000000E+00 0. -1.
</event>
<event>
 7    1  0.4274778E-006  0.1809409E+03  0.7561462E-02  0.1166896E+00
          1   -1    0    0  501    0  0.00000000000E+00  0.00000000000E+00  0.14526092869E+04  0.14526092869E+04  0.00000000000E+00 0. -1.
         -1   -1    0    0    0  501 -0.00000000000E+00 -0.00000000000E+00 -0.25689012423E+02  0.25689012423E+02  0.00000000000E+00 0.  1.
         23    2    1    2    0    0  0.15016410929E+03  0.77102401962E+01  0.88330097712E+03  0.90055383574E+03  0.90376365055E+02 0.  0.
          5    1    1    2  502    0 -0.15318037358E+03 -0.36867279307E+02  0.50535263504E+03  0.52936016215E+03  0.41800000000E+01 0. -1.
         -5    1    1    2    0  502  0.30162642905E+01  0.29157039110E+02  0.38266662317E+02  0.48384301430E+02  0.41800000000E+01 0. -1.
        -11    1    3    3    0    0  0.69341649212E+02 -0.40746442656E+02  0.36503231196E+03  0.37378754083E+03  0.00000000000E+00 0.  1.
         11    1    3    3    0    0  0.80822460080E+02  0.48456682852E+02  0.51826866516E+03  0.52676629491E+03  0.00000000000E+00 0. -1.
</event>
<event>
 7    1  0.4274778E-006  0.2306821E+03  0.7561462E-02  0.1126161E+00
         -2   -1    0    0    0  501 -0.00000000000E+00  0.00000000000E+00  0.17933170787E+03  0.17933170787E+03  0.00000000000E+00 0. -1.
          2   -1    0    0  501    0  0.00000000000E+00 -0.00000000000E+00 -0.34386861182E+03  0.34386861182E+03  0.00000000000E+00 0.  1.
         23    2    1    2    0    0 -0.55401029525E+01  0.22131793754E+03 -0.11045876346E+03  0.26322940661E+03  0.89868013574E+02 0.  0.
          5    1    1    2  502    0 -0.27140358791E+02 -0.69957283137E+02 -0.71944644305E+02  0.10403905413E+03  0.41800000000E+01 0. -1.
         -5    1    1    2    0  502  0.32680461743E+02 -0.15136065440E+03  0.17866503807E+02  0.15593185896E+03  0.41800000000E+01 0. -1.
        -11    1    3    3    0    0 -0.36262133817E+02  0.10978492626E+03 -0.22226193917E+02  0.11773561942E+03  0.00000000000E+00 0. -1.
         11    1    3    3    0    0  0.30722030864E+02  0.11153301127E+03 -0.88232569540E+02  0.14549378719E+03  0.00000000000E+00 0.  1.
</event>
<event>
 7    1  0.4274778E-006  0.1071330E+03  0.7561462E-02  0.1265973E+00
         -2   -1    0    0    0  501 -0.00000000000E+00  0.00000000000E+00  0.78239729422E+02  0.78239729422E+02  0.00000000000E+00 0.  1.
          2   -1    0    0  501    0  0.00000000000E+00 -0.00000000000E+00 -0.18310555647E+03  0.18310555647E+03  0.00000000000E+00 0. -1.
         23    2    1    2    0    0  0.11988436123E+02 -0.48701184482E+02 -0.53533258810E+02  0.11712956287E+03  0.91312631818E+02 0.  0.
          5    1    1    2  502    0 -0.24923900505E+02 -0.25411209507E+02 -0.58417312907E+02  0.68534555023E+02  0.41800000000E+01 0.  1.
         -5    1    1    2    0  502  0.12935464382E+02  0.74112393989E+02  0.70847446709E+01  0.75681167992E+02  0.41800000000E+01 0.  1.
        -11    1    3    3    0    0  0.28276929423E+02  0.18592473537E+02 -0.25757605792E+02  0.42529037915E+02  0.00000000000E+00 0.  1.
         11    1    3    3    0    0 -0.16288493300E+02 -0.67293658019E+02 -0.27775653018E+02  0.74600524959E+02  0.00000000000E+00 0. -1.
</event>
<event>
 7    1  0.4274778E-006  0.1840711E+03  0.7561462E-02  0.1163920E+00
         -1   -1    0    0    0  501 -0.00000000000E+00  0.00000000000E+00  0.62906626583E+03  0.62906626583E+03  0.00000000000E+00 0.  1.
          1   -1    0    0  501    0  0.00000000000E+00 -0.00000000000E+00 -0.68053022206E+02  0.68053022206E+02  0.00000000000E+00 0. -1.
         23    2    1    2    0    0  0.47549061385E+02 -0.16108115901E+03  0.18428293163E+03  0.26609800616E+03  0.92951046068E+02 0.  0.
          5    1    1    2  502    0  0.34114602517E+02  0.29626598881E+02  0.14819727793E+03  0.15498853845E+03  0.41800000000E+01 0.  1.
         -5    1    1    2    0  502 -0.81663663902E+02  0.13145456013E+03  0.22853303407E+03  0.27603274342E+03  0.41800000000E+01 0.  1.
        -11    1    3    3    0    0  0.31093684163E+02 -0.10650783346E+03  0.52974249722E+02  0.12295123796E+03  0.00000000000E+00 0.  1.
         11    1    3    3    0    0  0.16455377222E+02 -0.54573325555E+02  0.13130868190E+03  0.14314676820E+03  0.00000000000E+00 0. -1.
</event>
<event>
 7    1  0.4274778E-006  0.1330762E+03  0.7561462E-02  0.1222961E+00
          1   -1    0    0  501    0  0.00000000000E+00  0.00000000000E+00  0.70965847370E+02  0.70965847370E+02  0.00000000000E+00 0. -1.
         -1   -1    0    0    0  501 -0.00000000000E+00 -0.00000000000E+00 -0.32955244081E+03  0.32955244081E+03  0.00000000000E+00 0.  1.
         23    2    1    2    0    0  0.11736781606E+01 -0.10663915064E+03 -0.81397632772E+02  0.15884660423E+03  0.85049297970E+02 0.  0.
          5    1    1    2  502    0 -0.19842955582E+02  0.11632059167E+03 -0.18447427267E+03  0.21902614595E+03  0.41800000000E+01 0.  1.
         -5    1    1    2    0  502  0.18669277421E+02 -0.96814410302E+01  0.72853120062E+01  0.22645537990E+02  0.41800000000E+01 0.  1.
        -11    1    3    3    0    0  0.25644708757E+02 -0.97003312081E+02 -0.36414630053E+02  0.10673949093E+03  0.00000000000E+00 0.  1.
         11    1    3    3    0    0 -0.24471030597E+02 -0.96358385622E+01 -0.44983002719E+02  0.52107113304E+02  0.00000000000E+00 0. -1.
</event>
<event>
 7    1  0.4274778E-006  0.1781311E+03  0.7561462E-02  0.1169624E+00
          1   -1    0    0  501    0  0.00000000000E+00  0.00000000000E+00  0.32577997265E+03  0.32577997265E+03  0.00000000000E+00 0. -1.
         -1   -1    0    0    0  501 -0.00000000000E+00 -0.00000000000E+00 -0.11698071993E+03  0.11698071993E+03  0.00000000000E+00 0.  1.
         23    2    1    2    0    0  0.32803701160E+02  0.14584840987E+03  0.16512457667E+03  0.24300203126E+03  0.97139178011E+02 0.  0.
          5    1    1    2  502    0  0.36692168093E+02 -0.10859349327E+03  0.14659733704E+02  0.11563408742E+03  0.41800000000E+01 0.  1.
         -5    1    1    2    0  502 -0.69495869253E+02 -0.37254916600E+02  0.29014942344E+02  0.84124573897E+02  0.41800000000E+01 0.  1.
        -11    1    3    3    0    0 -0.19139201052E+02  0.50751453072E+02  0.12227798009E+02  0.55601601146E+02  0.00000000000E+00 0.  1.
         11    1    3    3    0    0  0.51942902212E+02  0.95096956802E+02  0.15289677866E+03  0.18740043011E+03  0.00000000000E+00 0. -1.
</event>
<event>
 7    1  0.4274778E-006  0.9304481E+02  0.7561462E-02  0.1295641E+00
         -1   -1    0    0    0  501 -0.00000000000E+00  0.00000000000E+00  0.40806514356E+03  0.40806514356E+03  0.00000000000E+00 0.  1.
          1   -1    0    0  501    0  0.00000000000E+00 -0.00000000000E+00 -0.39603353845E+02  0.39603353845E+02  0.00000000000E+00 0. -1.
         23    2    1    2    0    0  0.77619516104E+01 -0.55464158324E+02  0.10383891402E+03  0.14861400536E+03  0.90371908099E+02 0.  0.
          5    1    1    2  502    0 -0.33412073661E+02  0.33781037297E+02  0.19374675866E+02  0.51481798843E+02  0.41800000000E+01 0. -1.
         -5    1    1    2    0  502  0.25650122050E+02  0.21683121027E+02  0.24524819983E+03  0.24757269320E+03  0.41800000000E+01 0.  1.
        -11    1    3    3    0    0  0.47542007820E+02 -0.39008812683E+02  0.74082740247E+02  0.96281786321E+02  0.00000000000E+00 0. -1.
         11    1    3    3    0    0 -0.39780056209E+02 -0.16455345641E+02  0.29756173769E+02  0.52332219039E+02  0.00000000000E+00 0.  1.
</event>
<event>
 7    1  0.4274778E-006  0.1565988E+03  0.7561462E-02  0.1192591E+00
         -1   -1    0    0    0  501 -0.00000000000E+00  0.00000000000E+00  0.76153255337E+02  0.76153255337E+02  0.00000000000E+00 0.  1.
          1   -1    0    0  501    0  0.00000000000E+00 -0.00000000000E+00 -0.35755338236E+03  0.35755338236E+03  0.00000000000E+00 0. -1.
         23    2    1    2    0    0 -0.11226025255E+03 -0.52480059693E+02 -0.12104220421E+03  0.19554904304E+03  0.90728672787E+02 0.  0.
          5    1    1    2  502    0  0.57953498863E+02 -0.35659437504E+02 -0.38828927868E+02  0.78456112272E+02  0.41800000000E+01 0.  1.
         -5    1    1    2    0  502  0.54306753692E+02  0.88139497197E+02 -0.12152899495E+03  0.15970148238E+03  0.41800000000E+01 0.  1.
        -11    1    3    3    0    0 -0.61497687229E+02 -0.64633221210E+02 -0.36929620425E+02  0.96556800295E+02  0.00000000000E+00 0.  1.
         11    1    3    3    0    0 -0.50762565325E+02  0.12153161517E+02 -0.84112583781E+02  0.98992242744E+02  0.00000000000E+00 0. -1.
</event>
<event>
 7    1  0.4274778E-006  0.1063262E+03  0.7561462E-02  0.1267528E+00
         -2   -1    0    0    0  501 -0.00000000000E+00  0.00000000000E+00  0.78784879268E+02  0.78784879268E+02  0.00000000000E+00 0.  1.
          2   -1    0    0  501    0  0.00000000000E+00 -0.00000000000E+00 -0.22975043707E+03  0.22975043707E+03  0.00000000000E+00 0. -1.
         23    2    1    2    0    0 -0.54167905908E+01  0.71709682895E+02 -0.10533346066E+03  0.15720255848E+03  0.91901502799E+02 0.  0.
          5    1    1    2  502    0 -0.14929004698E+02 -0.10200691295E+03 -0.16585649141E+02  0.10450283071E+03  0.41800000000E+01 0. -1.
         -5    1    1    2    0  502  0.20345795289E+02  0.30297230051E+02 -0.29046448002E+02  0.46829927143E+02  0.41800000000E+01 0. -1.
        -11    1    3    3    0    0 -0.75499118340E+01  0.28645851664E+02 -0.10992065861E+03  0.11384259824E+03  0.00000000000E+00 0. -1.
         11    1    3    3    0    0  0.21331212432E+01  0.43063831231E+02  0.45871979495E+01  0.43359960235E+02  0.00000000000E+00 0.  1.
</event>
<event>
 7    1  0.4274778E-006  0.1860419E+03  0.7561462E-02  0.1162080E+00
         -1   -1    0    0    0  501 -0.00000000000E+00  0.00000000000E+00  0.10936370442E+03  0.10936370442E+03  0.00000000000E+00 0.  1.
          1   -1    0    0  501    0  0.00000000000E+00 -0.00000000000E+00 -0.32608033077E+03  0.32608033077E+03  0.00000000000E+00 0. -1.
         23    2    1    2    0    0 -0.15203685374E+03  0.17406815045E+02 -0.91922696622E+02  0.20536414722E+03  0.10152068117E+03 0.  0.
          5    1    1    2  502    0  0.68509022656E+00  0.29625219382E+02 -0.40977844841E+02  0.50742281579E+02  0.41800000000E+01 0. -1.
         -5    1    1    2    0  502  0.15135176351E+03 -0.47032034427E+02 -0.83816084882E+02  0.17933760639E+03  0.41800000000E+01 0.  1.
        -11    1    3    3    0    0 -0.19380210424E+02  0.44212389690E+02 -0.22502061386E+02  0.53260404850E+02  0.00000000000E+00 0. -1.
         11    1    3    3    0    0 -0.13265664331E+03 -0.26805574645E+02 -0.69420635235E+02  0.15210374237E+03  0.00000000000E+00 0.  1.
</event>
<event>
 7    1  0.4274778E-006  0.1055953E+03  0.7561462E-02  0.1268951E+00
          3   -1    0    0  501    0  0.00000000000E+00  0.00000000000E+00  0.12060802716E+03  0.12060802716E+03  0.00000000000E+00 0. -1.
         -3   -1    0    0    0  501 -0.00000000000E+00 -0.00000000000E+00 -0.12048806575E+03  0.12048806575E+03  0.00000000000E+00 0.  1.
         23    2    1    2    0    0 -0.41834280675E+02  0.15113653445E+01  0.18367046780E+02  0.10792850102E+03  0.97769226546E+02 0.  0.
          5    1    1    2  502    0  0.54103228795E+02 -0.38015956093E+02 -0.50060036547E+02  0.83041266505E+02  0.41800000000E+01 0. -1.
         -5    1    1    2    0  502 -0.12268948121E+02  0.36504590748E+02  0.31812951177E+02  0.50126325382E+02  0.41800000000E+01 0. -1.
        -11    1    3    3    0    0 -0.64405086168E+02 -0.26998059118E+02  0.14850361654E+02  0.71396383393E+02  0.00000000000E+00 0. -1.
         11    1    3    3    0    0  0.22570805493E+02  0.28509424462E+02  0.35166851260E+01  0.36532117623E+02  0.00000000000E+00 0.  1.
</event>
<event>
 7    1  0.4274778E-006  0.1091895E+03  0.7561462E-02  0.1262078E+00
         -1   -1    0    0    0  501 -0.00000000000E+00  0.00000000000E+00  0.76742800758E+02  0.76742800758E+02  0.00000000000E+00 0.  1.
          1   -1    0    0  501    0  0.00000000000E+00 -0.00000000000E+00 -0.23593691510E+03  0.23593691510E+03  0.00000000000E+00 0. -1.
         23    2    1    2    0    0  0.42322751968E+02 -0.24100741834E+02 -0.14494448224E+03  0.17768436211E+03  0.90502864671E+02 0.  0.
          5    1    1    2  502    0  0.60723743347E+00 -0.44255701768E+02 -0.28658890881E+02  0.52893669780E+02  0.41800000000E+01 0.  1.
         -5    1    1    2    0  502 -0.42929989402E+02  0.68356443602E+02  0.14409258782E+02  0.82101683970E+02  0.41800000000E+01 0.  1.
        -11    1    3    3    0    0 -0.32128258372E+01 -0.43486129321E+02 -0.10629278784E+03  0.11488917460E+03  0.00000000000E+00 0. -1.
         11    1    3    3    0    0  0.45535577806E+02  0.19385387487E+02 -0.38651694405E+02  0.62795187511E+02  0.00000000000E+00 0.  1.
</event>
<event>
 7    1  0.4274778E-006  0.1048098E+03  0.7561462E-02  0.1270495E+00
          1   -1    0    0  501    0  0.00000000000E+00  0.00000000000E+00  0.18664966257E+03  0.18664966257E+03  0.00000000000E+00 0. -1.
         -1   -1    0    0    0  501 -0.00000000000E+00 -0.00000000000E+00 -0.82159010601E+02  0.82159010601E+02  0.00000000000E+00 0.  1.
         23    2    1    2    0    0 -0.49274071966E+02 -0.31479967078E+02  0.54903945898E+02  0.12209401683E+03  0.92052067740E+02 0.  0.
          5    1    1    2  502    0 -0.29806831806E+02  0.45407563985E+02  0.48304385708E+01  0.54690946473E+02  0.41800000000E+01 0. -1.
         -5    1    1    2    0  502  0.79080903772E+02 -0.13927596906E+02  0.44756267500E+02  0.92023709866E+02  0.41800000000E+01 0. -1.
        -11    1    3    3    0    0 -0.23962338505E+02 -0.41167370125E+02 -0.12668262532E+02  0.49289257503E+02  0.00000000000E+00 0.  1.
         11    1    3    3    0    0 -0.25311733462E+02  0.96874030463E+01  0.67572208430E+02  0.72804759328E+02  0.00000000000E+00 0. -1.
</event>
<event>
 7    1  0.4274778E-006  0.1214650E+03  0.7561462E-02  0.1240700E+00
          2   -1    0    0  501    0  0.00000000000E+00  0.00000000000E+00  0.57039699792E+02  0.57039699792E+02  0.00000000000E+00 0. -1.
         -2   -1    0    0    0  501 -0.00000000000E+00 -0.00000000000E+00 -0.33330553566E+03  0.33330553566E+03  0.00000000000E+00 0.  1.
         23    2    1    2    0    0  0.73593965352E+02 -0.34734332092E+01 -0.64218222748E+02  0.13336361127E+03  0.90739937201E+02 0.  0.
          5    1    1    2  502    0 -0.76990432295E+02  0.50238151300E+02 -0.10251193756E+03  0.13775909499E+03  0.41800000000E+01 0.  1.
         -5    1    1    2    0  502  0.33964669428E+01 -0.46764718091E+02 -0.10953567556E+03  0.11922252919E+03  0.41800000000E+01 0.  1.
        -11    1    3    3    0    0  0.68154235573E+01  0.28846785823E+02  0.70731748538E+01  0.30473215339E+02  0.00000000000E+00 0. -1.
         11    1    3    3    0    0  0.66778541795E+02 -0.32320219032E+02 -0.71291397601E+02  0.10289039593E+03  0.00000000000E+00 0.  1.
</event>
<event>
 7    1  0.4274778E-006  0.1526565E+03  0.7561462E-02  0.1197246E+00
          1   -1    0    0  501    0  0.00000000000E+00  0.00000000000E+00  0.35562032742E+03  0.35562032742E+03  0.00000000000E+00 0. -1.
         -1   -1    0    0    0  501 -0.00000000000E+00 -0.00000000000E+00 -0.94380805312E+02  0.94380805312E+02  0.00000000000E+00 0.  1.
         23    2    1    2    0    0  0.27377875898E+02 -0.12405043008E+03  0.21562378758E+03  0.26598059480E+03  0.90077753891E+02 0.  0.
          5    1    1    2  502    0 -0.72982829400E+02  0.10662436197E+03  0.33049155910E+02  0.13343525418E+03  0.41800000000E+01 0. -1.
         -5    1    1    2    0  502  0.45604953502E+02  0.17426068110E+02  0.12566578614E+02  0.50585283747E+02  0.41800000000E+01 0. -1.
        -11    1    3    3    0    0  0.12106798606E+02 -0.54452678667E+02  0.22531280871E+02  0.60160846106E+02  0.00000000000E+00 0.  1.
         11    1    3    3    0    0  0.15271077291E+02 -0.69597751414E+02  0.19309250671E+03  0.20581974869E+03  0.00000000000E+00 0. -1.
</event>
<event>
 7    1  0.4274778E-006  0.1177333E+03  0.7561462E-02  0.1246884E+00
         -2   -1    0    0    0  501 -0.00000000000E+00  0.00000000000E+00  0.63308818153E+02  0.63308818153E+02  0.00000000000E+00 0.  1.
          2   -1    0    0  501    0  0.00000000000E+00 -0.00000000000E+00 -0.36817055524E+03  0.36817055524E+03  0.00000000000E+00 0. -1.
         23    2    1    2    0    0 -0.10710282321E+03  0.39511175487E+01 -0.15017965109E+03  0.20551199508E+03  0.90524176055E+02 0.  0.
          5    1    1    2  502    0  0.20474681573E+02  0.20258731544E+00  0.21232177919E+02  0.29791465327E+02  0.41800000000E+01 0. -1.
         -5    1    1    2    0  502  0.86628141634E+02 -0.41537048641E+01 -0.17591426391E+03  0.19617591298E+03  0.41800000000E+01 0. -1.
        -11    1    3    3    0    0 -0.10494180710E+02  0.26528336693E+02 -0.39467459406E+01  0.28800299998E+02  0.00000000000E+00 0.  1.
         11    1    3    3    0    0 -0.96608642498E+02 -0.22577219144E+02 -0.14623290515E+03  0.17671169508E+03  0.00000000000E+00 0. -1.
</event>
<event>
 7    1  0.4274778E-006  0.1305842E+03  0.7561462E-02  0.1226591E+00
          1   -1    0    0  501    0  0.00000000000E+00  0.00000000000E+00  0.26960646437E+03  0.26960646437E+03  0.00000000000E+00 0. -1.
         -1   -1    0    0    0  501 -0.00000000000E+00 -0.00000000000E+00 -0.11443509814E+03  0.11443509814E+03  0.00000000000E+00 0.  1.
         23    2    1    2    0    0  0.36856768934E+02  0.85249514122E+02  0.18329883475E+03  0.22572748124E+03  0.93426612322E+02 0.  0.
          5    1    1    2  502    0  0.39748878613E+02 -0.42312346909E+02 -0.38501722631E+02  0.69786553845E+02  0.41800000000E+01 0. -1.
         -5    1    1    2    0  502 -0.76605647546E+02 -0.42937167213E+02  0.10374254114E+02  0.88527527429E+02  0.41800000000E+01 0. -1.
        -11    1    3    3    0    0  0.40708844890E+01  0.81998556705E+02  0.70499786378E+02  0.10821531907E+03  0.00000000000E+00 0.  1.
         11    1    3    3    0    0  0.32785884445E+02  0.32509574170E+01  0.11279904837E+03  0.11751216217E+03  0.00000000000E+00 0. -1.
</event>
<event>
 7    1  0.4274778E-006  0.1183168E+03  0.7561462E-02  0.1245900E+00
          2   -1    0    0  501    0  0.00000000000E+00  0.00000000000E+00  0.11381439750E+03  0.11381439750E+03  0.00000000000E+00 0. -1.
         -2   -1    0    0    0  501 -0.00000000000E+00 -0.00000000000E+00 -0.18663239056E+03  0.18663239056E+03  0.00000000000E+00 0.  1.
         23    2    1    2    0    0  0.68170232007E+02 -0.36411022630E+02  0.27056238808E+02  0.12269749236E+03  0.91376646204E+02 0.  0.
          5    1    1    2  502    0  0.29031198094E+02 -0.16826812755E+02 -0.10783317560E+02  0.35492315054E+02  0.41800000000E+01 0.  1.
         -5    1    1    2    0  502 -0.97201430102E+02  0.53237835385E+02 -0.89090914309E+02  0.14225698065E+03  0.41800000000E+01 0.  1.
        -11    1    3    3    0    0  0.46551163250E+02 -0.48433319225E+02 -0.19523344818E+02  0.69956831003E+02  0.00000000000E+00 0.  1.
         11    1    3    3    0    0  0.21619068758E+02  0.12022296595E+02  0.46579583626E+02  0.52740661355E+02  0.00000000000E+00 0. -1.
</event>
<event>
 7    1  0.4274778E-006  0.1627779E+03  0.7561462E-02  0.1185596E+00
          1   -1    0    0  501    0  0.00000000000E+00  0.00000000000E+00  0.20865780022E+03  0.20865780022E+03  0.00000000000E+00 0. -1.
         -1   -1    0    0    0  501 -0.00000000000E+00 -0.00000000000E+00 -0.13624303810E+03  0.13624303810E+03  0.00000000000E+00 0.  1.
         23    2    1    2    0    0 -0.21948339237E+02  0.12203462979E+03  0.54626038729E+02  0.16368691506E+03  0.91843462443E+02 0.  0.
          5    1    1    2  502    0 -0.97837510614E+01  0.26231461595E+02  0.69389268197E+01  0.29145024750E+02  0.41800000000E+01 0. -1.
         -5    1    1    2    0  502  0.31732090299E+02 -0.14826609138E+03  0.10849796569E+02  0.15206889851E+03  0.41800000000E+01 0.  1.
        -11    1    3    3    0    0 -0.38909285948E+02  0.23227089376E+02  0.43506992795E+02  0.62819492484E+02  0.00000000000E+00 0.  1.
         11    1    3    3    0    0  0.16960946711E+02  0.98807540412E+02  0.11119045934E+02  0.10086742258E+03  0.00000000000E+00 0. -1.
</event>
<event>
 7    1  0.4274778E-006  0.1162749E+03  0.7561462E-02  0.1249372E+00
          1   -1    0    0  501    0  0.00000000000E+00  0.00000000000E+00  0.57275986312E+03  0.57275986312E+03  0.00000000000E+00 0. -1.
         -1   -1    0    0    0  501 -0.00000000000E+00 -0.00000000000E+00 -0.25197876510E+02  0.25197876510E+02  0.00000000000E+00 0.  1.
         23    2    1    2    0    0  0.29661887130E+02 -0.11428750109E+02  0.31642324117E+03  0.33322105261E+03  0.99509589842E+02 0.  0.
          5    1    1    2  502    0  0.69236706337E+01 -0.53559477258E+02  0.89717626695E+02  0.10480114388E+03  0.41800000000E+01 0. -1.
         -5    1    1    2    0  502 -0.36585557763E+02  0.64988227367E+02  0.14142111874E+03  0.15993554314E+03  0.41800000000E+01 0. -1.
        -11    1    3    3    0    0  0.61176699340E+02  0.14506297419E+02  0.21118500559E+03  0.22034547373E+03  0.00000000000E+00 0. -1.
         11    1    3    3    0    0 -0.31514812210E+02 -0.25935047528E+02  0.10523823559E+03  0.11287557888E+03  0.00000000000E+00 0.  1.
</event>
<event>
 7    1  0.4274778E-006  0.1407821E+03  0.7561462E-02  0.1212280E+00
          1   -1    0    0  501    0  0.00000000000E+00  0.00000000000E+00  0.28436798902E+03  0.28436798902E+03  0.00000000000E+00 0. -1.
         -1   -1    0    0    0  501 -0.00000000000E+00 -0.00000000000E+00 -0.93499058273E+02  0.93499058273E+02  0.00000000000E+00 0.  1.
         23    2    1    2    0    0  0.55869418140E+02  0.10911793854E+03  0.10590502517E+03  0.18320001130E+03  0.85546790645E+02 0.  0.
          5    1    1    2  502    0 -0.74150330119E+02 -0.10442327739E+03  0.10585179400E+03  0.16620639882E+03  0.41800000000E+01 0. -1.
         -5    1    1    2    0  502  0.18280911979E+02 -0.46946611527E+01 -0.20887888414E+02  0.28460637177E+02  0.41800000000E+01 0. -1.
        -11    1    3    3    0    0  0.55744086934E+02  0.49724723195E+02  0.17541849064E+02  0.76731139659E+02  0.00000000000E+00 0.  1.
         11    1    3    3    0    0  0.12533120656E+00  0.59393215344E+02  0.88363176105E+02  0.10646887164E+03  0.00000000000E+00 0. -1.
</event>
<event>
 7    1  0.4274778E-006  0.1066714E+03  0.7561462E-02  0.1266861E+00
          4   -1    0    0  501    0  0.00000000000E+00  0.00000000000E+00  0.51344464127E+02  0.51344464127E+02  0.00000000000E+00 0. -1.
         -4   -1    0    0    0  501 -0.00000000000E+00 -0.00000000000E+00 -0.26115446410E+03  0.26115446410E+03  0.00000000000E+00 0.  1.
         23    2    1    2    0    0  0.12248655855E+02  0.42200042319E+02 -0.78098292253E+02  0.12561085824E+03  0.88021993348E+02 0.  0.
          5    1    1    2  502    0 -0.64056710363E+01  0.43930272562E+02 -0.31732840151E+02  0.54729763500E+02  0.41800000000E+01 0.  1.
         -5    1    1    2    0  502 -0.58429848191E+01 -0.86130314881E+02 -0.99978867570E+02  0.13215830649E+03  0.41800000000E+01 0.  1.
        -11    1    3    3    0    0  0.31063270595E+02  0.52403899669E+02 -0.20680194948E+02  0.64333241358E+02  0.00000000000E+00 0. -1.
         11    1    3    3    0    0 -0.18814614740E+02 -0.10203857350E+02 -0.57418097305E+02  0.61277616882E+02  0.00000000000E+00 0.  1.
</event>
<event>
 7    1  0.4274778E-006  0.8930568E+02  0.7561462E-02  0.1304542E+00
          4   -1    0    0  501    0  0.00000000000E+00  0.00000000000E+00  0.46212917779E+02  0.46212917779E+02  0.00000000000E+00 0. -1.
         -4   -1    0    0    0  501 -0.00000000000E+00 -0.00000000000E+00 -0.36459908621E+03  0.36459908621E+03  0.00000000000E+00 0.  1.
         23    2    1    2    0    0  0.64533597007E+02  0.18400049161E+02 -0.10742091609E+03  0.15653463354E+03  0.91982016358E+02 0.  0.
          5    1    1    2  502    0  0.22025485898E+01 -0.16642949391E+02 -0.17954284584E+03  0.18037445738E+03  0.41800000000E+01 0.  1.
         -5    1    1    2    0  502 -0.66736145597E+02 -0.17570997698E+01 -0.31422406503E+02  0.73902913063E+02  0.41800000000E+01 0.  1.
        -11    1    3    3    0    0  0.22202137761E+01  0.30804744608E+02  0.96406422105E+00  0.30899693516E+02  0.00000000000E+00 0. -1.
         11    1    3    3    0    0  0.62313383231E+02 -0.12404695447E+02 -0.10838498031E+03  0.12563494003E+03  0.00000000000E+00 0.  1.
</event>
<event>
 7    1  0.4274778E-006  0.2475414E+03  0.7561462E-02  0.1114869E+00
          1   -1    0    0  501    0  0.00000000000E+00  0.00000000000E+00  0.18910328002E+03  0.18910328002E+03  0.00000000000E+00 0. -1.
         -1   -1    0    0    0  501 -0.00000000000E+00 -0.00000000000E+00 -0.48196158836E+03  0.48196158836E+03  0.00000000000E+00 0.  1.
         23    2    1    2    0    0 -0.12285358876E+03  0.20408970859E+03  0.24959114523E+02  0.25465043679E+03  0.86477015072E+02 0.  0.
          5    1    1    2  502    0  0.10559256800E+03 -0.21226695886E+03 -0.24474182013E+03  0.34076837171E+03  0.41800000000E+01 0.  1.
         -5    1    1    2    0  502  0.17261020760E+02  0.81772502715E+01 -0.73075602736E+02  0.75646059877E+02  0.41800000000E+01 0.  1.
        -11    1    3    3    0    0 -0.61088645454E+02  0.92038063419E+02 -0.31397064479E+02  0.11484164480E+03  0.00000000000E+00 0.  1.
         11    1    3    3    0    0 -0.61764943301E+02  0.11205164517E+03  0.56356179002E+02  0.13980879199E+03  0.00000000000E+00 0. -1.
</event>
<event>
 7    1  0.4274778E-006  0.1272010E+03  0.7561462E-02  0.1231669E+00
         -1   -1    0    0    0  501 -0.00000000000E+00  0.00000000000E+00  0.60414830642E+02  0.60414830642E+02  0.00000000000E+00 0.  1.
          1   -1    0    0  501    0  0.00000000000E+00 -0.00000000000E+00 -0.38059541167E+03  0.38059541167E+03  0.00000000000E+00 0. -1.
         23    2    1    2    0    0  0.53468269538E+02 -0.10757263104E+02 -0.10809995678E+03  0.15022453177E+03  0.88922633404E+02 0.  0.
          5    1    1    2  502    0 -0.10486038904E+03  0.65474540989E+02 -0.13549894787E+03  0.18346676533E+03  0.41800000000E+01 0. -1.
         -5    1    1    2    0  502  0.51392119497E+02 -0.54717277885E+02 -0.76581676369E+02  0.10731894521E+03  0.41800000000E+01 0.  1.
        -11    1    3    3    0    0  0.16607739732E+02  0.15103678716E+01  0.14199905794E+02  0.21902866357E+02  0.00000000000E+00 0.  1.
         11    1    3    3    0    0  0.36860529806E+02 -0.12267630976E+02 -0.12229986258E+03  0.12832166541E+03  0.00000000000E+00 0. -1.
</event>
<event>
 7    1  0.4274778E-006  0.1437250E+03  0.7561462E-02  0.1208403E+00
         -1   -1    0    0    0  501 -0.00000000000E+00  0.00000000000E+00  0.26879294403E+03  0.26879294403E+03  0.00000000000E+00 0.  1.
          1   -1    0    0  501    0  0.00000000000E+00 -0.00000000000E+00 -0.99375734833E+02  0.99375734833E+02  0.00000000000E+00 0. -1.
         23    2    1    2    0    0  0.10931335320E+03 -0.17964464250E+02  0.20372157634E+02  0.14426297565E+03  0.90136841375E+02 0.  0.
          5    1    1    2  502    0  0.20280858255E+02  0.15969716764E+02 -0.25582006816E+00  0.26151155023E+02  0.41800000000E+01 0. -1.
         -5    1    1    2    0  502 -0.12959421145E+03  0.19947474859E+01  0.14930087163E+03  0.19775454819E+03  0.41800000000E+01 0. -1.
        -11    1    3    3    0    0  0.42979857158E+02  0.27662661360E+02  0.35648042323E+02  0.62315919927E+02  0.00000000000E+00 0.  1.
         11    1    3    3    0    0  0.66333496041E+02 -0.45627125610E+02 -0.15275884690E+02  0.81947055722E+02  0.00000000000E+00 0. -1.
</event>
<event>
 7    1  0.4274778E-006  0.8006985E+02  0.7561462E-02  0.1328853E+00
         -1   -1    0    0    0  501 -0.00000000000E+00  0.00000000000E+00  0.51427869216E+02  0.51427869216E+02  0.00000000000E+00 0.  1.
          1   -1    0    0  501    0  0.00000000000E+00 -0.00000000000E+00 -0.33026054227E+03  0.33026054227E+03  0.00000000000E+00 0. -1.
         23    2    1    2    0    0 -0.55061069486E+02  0.47832471262E+02 -0.11810416361E+03  0.16535357010E+03  0.89852896465E+02 0.  0.
          5    1    1    2  502    0  0.87947109431E+01 -0.13798540464E+02  0.20277148121E+02  0.26389046884E+02  0.41800000000E+01 0. -1.
         -5    1    1    2    0  502  0.46266358542E+02 -0.34033930798E+02 -0.18100565756E+03  0.18994579450E+03  0.41800000000E+01 0. -1.
        -11    1    3    3    0    0 -0.41178477848E+02  0.60319664937E+01 -0.11371307662E+03  0.12108970002E+03  0.00000000000E+00 0. -1.
         11    1    3    3    0    0 -0.13882591637E+02  0.41800504768E+02 -0.43910869947E+01  0.44263870080E+02  0.00000000000E+00 0.  1.
</event>
<event>
 7    1  0.4274778E-006  0.2101789E+03  0.7561462E-02  0.1141424E+00
          1   -1    0    0  501    0  0.00000000000E+00  0.00000000000E+00  0.19275442938E+03  0.19275442938E+03  0.00000000000E+00 0. -1.
         -1   -1    0    0    0  501 -0.00000000000E+00 -0.00000000000E+00 -0.26938261646E+03  0.26938261646E+03  0.00000000000E+00 0.  1.
         23    2    1    2    0    0  0.80059249597E+02 -0.18273780997E+03 -0.19505691336E+02  0.21993011288E+03  0.90477576876E+02 0.  0.
          5    1    1    2  502    0  0.12739312599E+02  0.45489632177E+02 -0.59967229554E+02  0.76453500518E+02  0.41800000000E+01 0.  1.
         -5    1    1    2    0  502 -0.92798562197E+02  0.13724817780E+03  0.28447338098E+01  0.16575343244E+03  0.41800000000E+01 0.  1.
        -11    1    3    3    0    0  0.51996407228E+02 -0.52177170894E+02  0.27099725900E+02  0.78488716838E+02  0.00000000000E+00 0. -1.
         11    1    3    3    0    0  0.28062842370E+02 -0.13056063908E+03 -0.46605417236E+02  0.14144139604E+03  0.00000000000E+00 0.  1.
</event>
<event>
 7    1  0.4274778E-006  0.1100690E+03  0.7561462E-02  0.1260442E+00
         -2   -1    0    0    0  501 -0.00000000000E+00  0.00000000000E+00  0.27123980013E+02  0.27123980013E+02  0.00000000000E+00 0.  1.
          2   -1    0    0  501    0  0.00000000000E+00 -0.00000000000E+00 -0.46239472734E+03  0.46239472734E+03  0.00000000000E+00 0. -1.
         23    2    1    2    0    0 -0.14451763726E+02 -0.18367706650E+02 -0.22284382640E+03  0.24189551988E+03  0.91147383129E+02 0.  0.
          5    1    1    2  502    0  0.62666522744E+02  0.38936810555E+02 -0.11051744807E+03  0.13294640656E+03  0.41800000000E+01 0. -1.
         -5    1    1    2    0  502 -0.48214759018E+02 -0.20569103905E+02 -0.10190947285E+03  0.11467678091E+03  0.41800000000E+01 0. -1.
        -11    1    3    3    0    0 -0.25017017342E+02  0.32888929270E+02 -0.11004032720E+03  0.11754321093E+03  0.00000000000E+00 0. -1.
         11    1    3    3    0    0  0.10565253616E+02 -0.51256635920E+02 -0.11280349921E+03  0.12435230896E+03  0.00000000000E+00 0.  1.
</event>
<event>
 7    1  0.4274778E-006  0.1108555E+03  0.7561462E-02  0.1258994E+00
         -2   -1    0    0    0  501 -0.00000000000E+00  0.00000000000E+00  0.14934657903E+03  0.14934657903E+03  0.00000000000E+00 0.  1.
          2   -1    0    0  501    0  0.00000000000E+00 -0.00000000000E+00 -0.94541099861E+02  0.94541099861E+02  0.00000000000E+00 0. -1.
         23    2    1    2    0    0 -0.17268438109E+02 -0.45858733890E+02  0.19671175881E+02  0.10502546116E+03  0.90786397118E+02 0.  0.
          5    1    1    2  502    0 -0.53442798176E+02  0.30119313123E+02  0.20694847831E+02  0.64877228876E+02  0.41800000000E+01 0.  1.
         -5    1    1    2    0  502  0.70711236285E+02  0.15739420766E+02  0.14439455461E+02  0.73984988863E+02  0.41800000000E+01 0.  1.
        -11    1    3    3    0    0 -0.38897628650E+02 -0.52220549190E+02  0.38505258472E+02  0.75648306011E+02  0.00000000000E+00 0.  1.
         11    1    3    3    0    0  0.21629190541E+02  0.63618153002E+01 -0.18834082591E+02  0.29377155145E+02  0.00000000000E+00 0. -1.
</event>
<event>
 7    1  0.4274778E-006  0.1058209E+03  0.7561462E-02  0.1268511E+00
          1   -1    0    0  501    0  0.00000000000E+00  0.00000000000E+00  0.14542073630E+02  0.14542073630E+02  0.00000000000E+00 0. -1.
         -1   -1    0    0    0  501 -0.00000000000E+00 -0.00000000000E+00 -0.11878667700E+04  0.11878667700E+04  0.00000000000E+00 0.  1.
         23    2    1    2    0    0 -0.56448986622E+02 -0.14591690284E+02 -0.31777600679E+03  0.33580010092E+03  0.91546227506E+02 0.  0.
          5    1    1    2  502    0  0.82494255779E+02  0.36361781887E+02 -0.41326587068E+03  0.42300547713E+03  0.41800000000E+01 0.  1.
         -5    1    1    2    0  502 -0.26045269157E+02 -0.21770091603E+02 -0.44228281886E+03  0.44360326554E+03  0.41800000000E+01 0.  1.
        -11    1    3    3    0    0 -0.19828092820E+02  0.25884739773E+02 -0.35123243120E+02  0.47925100159E+02  0.00000000000E+00 0. -1.
         11    1    3    3    0    0 -0.36620893802E+02 -0.40476430057E+02 -0.28265276367E+03  0.28787500076E+03  0.00000000000E+00 0.  1.
</event>
<event>
 7    1  0.4274778E-006  0.1029700E+03  0.7561462E-02  0.1274172E+00
         -2   -1    0    0    0  501 -0.00000000000E+00  0.00000000000E+00  0.24992219890E+03  0.24992219890E+03  0.00000000000E+00 0.  1.
          2   -1    0    0  501    0  0.00000000000E+00 -0.00000000000E+00 -0.58071378576E+02  0.58071378576E+02  0.00000000000E+00 0. -1.
         23    2    1    2    0    0  0.15219145124E+01  0.39531838390E+01  0.21806571875E+02  0.96848967485E+02  0.94266919117E+02 0.  0.
          5    1    1    2  502    0  0.52558155018E+02  0.29317268981E+02  0.97430622043E+02  0.11459520248E+03  0.41800000000E+01 0.  1.
         -5    1    1    2    0  502 -0.54080069531E+02 -0.33270452820E+02  0.72613626407E+02  0.96549407514E+02  0.41800000000E+01 0.  1.
        -11    1    3    3    0    0 -0.13090137441E+02 -0.36602688762E+02 -0.13476485096E+02  0.41142729289E+02  0.00000000000E+00 0. -1.
         11    1    3    3    0    0  0.14612051953E+02  0.40555872601E+02  0.35283056971E+02  0.55706238196E+02  0.00000000000E+00 0.  1.
</event>
<event>
 7    1  0.4274778E-006  0.1047846E+03  0.7561462E-02  0.1270545E+00
          2   -1    0    0  501    0  0.00000000000E+00  0.00000000000E+00  0.28450623826E+02  0.28450623826E+02  0.00000000000E+00 0. -1.
         -2   -1    0    0    0  501 -0.00000000000E+00 -0.00000000000E+00 -0.51722902333E+03  0.51722902333E+03  0.00000000000E+00 0.  1.
         23    2    1    2    0    0  0.24700710923E+02 -0.35287943395E+02 -0.13867900951E+03  0.17141715551E+03  0.91085725863E+02 0.  0.
          5    1    1    2  502    0 -0.70384796796E+02  0.18406254507E+02 -0.13226675295E+03  0.15101250333E+03  0.41800000000E+01 0. -1.
         -5    1    1    2    0  502  0.45684085873E+02  0.16881688888E+02 -0.21783263705E+03  0.22324998833E+03  0.41800000000E+01 0. -1.
        -11    1    3    3    0    0 -0.26454314974E+02 -0.14758356000E+01 -0.90190541860E+01  0.27988429928E+02  0.00000000000E+00 0. -1.
         11    1    3    3    0    0  0.51155025897E+02 -0.33812107795E+02 -0.12965995532E+03  0.14342872558E+03  0.00000000000E+00 0.  1.
</event>
<event>
 7    1  0.4274778E-006  0.1463832E+03  0.7561462E-02  0.1204989E+00
         -2   -1    0    0    0  501 -0.00000000000E+00  0.00000000000E+00  0.14186963779E+03  0.14186963779E+03  0.00000000000E+00 0.  1.
          2   -1    0    0  501    0  0.00000000000E+00 -0.00000000000E+00 -0.30302442190E+03  0.30302442190E+03  0.00000000000E+00 0. -1.
         23    2    1    2    0    0  0.80080112758E+02 -0.11048064970E+03 -0.19702102609E+03  0.25634381828E+03  0.90972908209E+02 0.  0.
          5    1    1    2  502    0 -0.81421962125E+02  0.10868214070E+03  0.70863197799E+02  0.15323318448E+03  0.41800000000E+01 0.  1.
         -5    1    1    2    0  502  0.13418493670E+01  0.17985090073E+01 -0.34996955812E+02  0.35317056934E+02  0.41800000000E+01 0.  1.
        -11    1    3    3    0    0  0.52801549945E+02 -0.11303656231E+03 -0.11429898587E+03  0.16920261897E+03  0.00000000000E+00 0.  1.
         11    1    3    3    0    0  0.27278562813E+02  0.25559126023E+01 -0.82722040227E+02  0.87141199312E+02  0.00000000000E+00 0. -1.
</event>
<event>
 7    1  0.4274778E-006  0.9721499E+02  0.7561462E-02  0.1286264E+00
          3   -1    0    0  501    0  0.00000000000E+00  0.00000000000E+00  0.25189195524E+03  0.25189195524E+03  0.00000000000E+00 0. -1.
         -3   -1    0    0    0  501 -0.00000000000E+00 -0.00000000000E+00 -0.56836127745E+02  0.56836127745E+02  0.00000000000E+00 0.  1.
         23    2    1    2    0    0  0.35090514471E+02  0.30299534756E+02  0.10676815008E+03  0.14875466250E+03  0.92623462107E+02 0.  0.
          5    1    1    2  502    0 -0.69012297802E+02 -0.52040447406E+02  0.35740599831E+02  0.93625681788E+02  0.41800000000E+01 0.  1.
         -5    1    1    2    0  502  0.33921783331E+02  0.21740912650E+02  0.52547077581E+02  0.66347738692E+02  0.41800000000E+01 0.  1.
        -11    1    3    3    0    0 -0.62344797113E+01  0.24950584204E+02 -0.77751104612E+01  0.26867317173E+02  0.00000000000E+00 0.  1.
         11    1    3    3    0    0  0.41324994182E+02  0.53489505519E+01  0.11454326054E+03  0.12188734533E+03  0.00000000000E+00 0. -1.
</event>
<event>
 7    1  0.4274778E-006  0.1091324E+03  0.7561462E-02  0.1262185E+00
         -3   -1    0    0    0  501 -0.00000000000E+00  0.00000000000E+00  0.33761729494E+03  0.33761729494E+03  0.00000000000E+00 0.  1.
          3   -1    0    0  501    0  0.00000000000E+00 -0.00000000000E+00 -0.69317141231E+02  0.69317141231E+02  0.00000000000E+00 0. -1.
         23    2    1    2    0    0 -0.72307301675E+01 -0.71719855265E+02  0.97876967761E+01  0.11083620353E+03  0.83623225880E+02 0.  0.
          5    1    1    2  502    0  0.20233374687E+02 -0.24377904881E+02  0.17858198980E+02  0.36606821337E+02  0.41800000000E+01 0.  1.
         -5    1    1    2    0  502 -0.13002644519E+02  0.96097760146E+02  0.24065425795E+03  0.25949141131E+03  0.41800000000E+01 0.  1.
        -11    1    3    3    0    0 -0.29390228608E+02 -0.29947650508E+02  0.37288689653E+02  0.56134603273E+02  0.00000000000E+00 0.  1.
         11    1    3    3    0    0  0.22159498441E+02 -0.41772204756E+02 -0.27500992877E+02  0.54701600256E+02  0.00000000000E+00 0. -1.
</event>
<event>
 7    1  0.4274778E-006  0.1115169E+03  0.7561462E-02  0.1257786E+00
          2   -1    0    0  501    0  0.00000000000E+00  0.00000000000E+00  0.57158687520E+02  0.57158687520E+02  0.00000000000E+00 0. -1.
         -2   -1    0    0    0  501 -0.00000000000E+00 -0.00000000000E+00 -0.34095228770E+03  0.34095228770E+03  0.00000000000E+00 0.  1.
         23    2    1    2    0    0  0.80033316755E+02  0.35373447888E+02 -0.98499971142E+02  0.15800103224E+03  0.87209341629E+02 0.  0.
          5    1    1    2  502    0 -0.96038499914E+02 -0.95788166371E+00 -0.17641285888E+03  0.20090614769E+03  0.41800000000E+01 0. -1.
         -5    1    1    2    0  502  0.16005183159E+02 -0.34415566224E+02 -0.88807701598E+01  0.39203795290E+02  0.41800000000E+01 0. -1.
        -11    1    3    3    0    0  0.28901171257E+02  0.52653960234E+01 -0.94010461058E+02  0.98493496657E+02  0.00000000000E+00 0.  1.
         11    1    3    3    0    0  0.51132145498E+02  0.30108051865E+02 -0.44895100841E+01  0.59507535582E+02  0.00000000000E+00 0. -1.
</event>
<event>
 7    1  0.4274778E-006  0.1066552E+03  0.7561462E-02  0.1266892E+00
         -1   -1    0    0    0  501 -0.00000000000E+00  0.00000000000E+00  0.24152605439E+02  0.24152605439E+02  0.00000000000E+00 0.  1.
          1   -1    0    0  501    0  0.00000000000E+00 -0.00000000000E+00 -0.48250508512E+03  0.48250508512E+03  0.00000000000E+00 0. -1.
         23    2    1    2    0    0 -0.13366874720E+02  0.90483718278E+01 -0.17748372800E+03  0.19876883075E+03  0.88022883380E+02 0.  0.
          5    1    1    2  502    0  0.68022900437E+02 -0.17116033696E+02 -0.16988491850E+03  0.18384349738E+03  0.41800000000E+01 0.  1.
         -5    1    1    2    0  502 -0.54656025717E+02  0.80676618683E+01 -0.11098383318E+03  0.12404536244E+03  0.41800000000E+01 0.  1.
        -11    1    3    3    0    0  0.32119315761E+02  0.23624714194E+02 -0.10112385606E+03  0.10870056039E+03  0.00000000000E+00 0. -1.
         11    1    3    3    0    0 -0.45486190481E+02 -0.14576342366E+02 -0.76359871945E+02  0.90068270355E+02  0.00000000000E+00 0.  1.
</event>
<event>
 7    1  0.4274778E-006  0.1756152E+03  0.7561462E-02  0.1172115E+00
          1   -1    0    0  501    0  0.00000000000E+00  0.00000000000E+00  0.14148737130E+04  0.14148737130E+04  0.00000000000E+00 0. -1.
         -1   -1    0    0    0  501 -0.00000000000E+00 -0.00000000000E+00 -0.29903817284E+02  0.29903817284E+02  0.00000000000E+00 0.  1.
         23    2    1    2    0    0  0.66417848647E+02  0.15139892847E+03  0.87795586763E+03  0.89701379938E+03  0.80587124386E+02 0.  0.
          5    1    1    2  502    0  0.15962177803E+02 -0.54365946725E+02  0.29514610459E+03  0.30056470641E+03  0.41800000000E+01 0. -1.
         -5    1    1    2    0  502 -0.82380026449E+02 -0.97032981741E+02  0.21186792348E+03  0.24719902448E+03  0.41800000000E+01 0. -1.
        -11    1    3    3    0    0  0.18343940554E+02  0.19976068064E+02  0.46234538455E+02  0.53602014855E+02  0.00000000000E+00 0.  1.
         11    1    3    3    0    0  0.48073908093E+02  0.13142286040E+03  0.83172132917E+03  0.84341178452E+03  0.00000000000E+00 0. -1.
</event>
<event>
 7    1  0.4274778E-006  0.2028373E+03  0.7561462E-02  0.1147367E+00
          2   -1    0    0  501    0  0.00000000000E+00  0.00000000000E+00  0.73645883803E+03  0.73645883803E+03  0.00000000000E+00 0.  1.
         -2   -1    0    0    0  501 -0.00000000000E+00 -0.00000000000E+00 -0.92891446406E+02  0.92891446406E+02  0.00000000000E+00 0. -1.
         23    2    1    2    0    0 -0.33631493400E+02 -0.19552114015E+03  0.51854855749E+03  0.56357450340E+03  0.96767870762E+02 0.  0.
          5    1    1    2  502    0  0.21017483678E+02  0.37893096063E+02  0.95367688314E+02  0.10483362878E+03  0.41800000000E+01 0.  1.
         -5    1    1    2    0  502  0.12614009722E+02  0.15762804409E+03  0.29651145827E+02  0.16094215226E+03  0.41800000000E+01 0.  1.
        -11    1    3    3    0    0 -0.43374357924E+02 -0.11609019845E+03  0.41253369540E+03  0.43074623497E+03  0.00000000000E+00 0.  1.
         11    1    3    3    0    0  0.97428645245E+01 -0.79430941709E+02  0.10601486208E+03  0.13282826843E+03  0.00000000000E+00 0. -1.
</event>
<event>
 7    1  0.4274778E-006  0.1800534E+03  0.7561462E-02  0.1167751E+00
          4   -1    0    0  501    0  0.00000000000E+00  0.00000000000E+00  0.93703365917E+02  0.93703365917E+02  0.00000000000E+00 0. -1.
         -4   -1    0    0    0  501 -0.00000000000E+00 -0.00000000000E+00 -0.48420962817E+03  0.48420962817E+03  0.00000000000E+00 0.  1.
         23    2    1    2    0    0  0.70909863539E+02 -0.13313313471E+03 -0.47631268765E+02  0.18299149759E+03  0.92002772365E+02 0.  0.
          5    1    1    2  502    0  0.25199472995E+02  0.78020434251E+02 -0.11263559755E+03  0.13937880698E+03  0.41800000000E+01 0. -1.
         -5    1    1    2    0  502 -0.96109336534E+02  0.55112700459E+02 -0.23023939593E+03  0.25554268951E+03  0.41800000000E+01 0. -1.
        -11    1    3    3    0    0 -0.14130477496E+02 -0.92827500724E+01 -0.26276410600E+02  0.31245633250E+02  0.00000000000E+00 0.  1.
         11    1    3    3    0    0  0.85040341036E+02 -0.12385038464E+03 -0.21354858165E+02  0.15174586434E+03  0.00000000000E+00 0. -1.
</event>
<event>
 7    1  0.4274778E-006  0.8978491E+02  0.7561462E-02  0.1303373E+00
         -2   -1    0    0    0  501 -0.00000000000E+00  0.00000000000E+00  0.27863077978E+02  0.27863077978E+02  0.00000000000E+00 0.  1.
          2   -1    0    0  501    0  0.00000000000E+00 -0.00000000000E+00 -0.39872210044E+03  0.39872210044E+03  0.00000000000E+00 0. -1.
         23    2    1    2    0    0 -0.70399603942E+01  0.41878989710E+01 -0.19272927896E+03  0.20876148279E+03  0.79810288748E+02 0.  0.
          5    1    1    2  502    0  0.13087166323E+02  0.49592259750E+02 -0.28880539474E+02  0.59010372900E+02  0.41800000000E+01 0. -1.
         -5    1    1    2    0  502 -0.60472059284E+01 -0.53780158721E+02 -0.14924920403E+03  0.15881332273E+03  0.41800000000E+01 0. -1.
        -11    1    3    3    0    0  0.31030704696E+02 -0.10883730829E+02 -0.46808342688E+02  0.57204730363E+02  0.00000000000E+00 0.  1.
         11    1    3    3    0    0 -0.38070665090E+02  0.15071629800E+02 -0.14592093627E+03  0.15155675243E+03  0.00000000000E+00 0. -1.
</event>
<event>
 7    1  0.4274778E-006  0.7180896E+02  0.7561462E-02  0.1354047E+00
          2   -1    0    0  501    0  0.00000000000E+00  0.00000000000E+00  0.21142289638E+03  0.21142289638E+03  0.00000000000E+00 0. -1.
         -2   -1    0    0    0  501 -0.00000000000E+00 -0.00000000000E+00 -0.59103271125E+02  0.59103271125E+02  0.00000000000E+00 0.  1.
         23    2    1    2    0    0  0.12983593046E+02 -0.21681777781E+02  0.73925511458E+02  0.12075497278E+03  0.92076647584E+02 0.  0.
          5    1    1    2  502    0  0.16370292726E+02  0.39542133761E+02 -0.18551484881E+02  0.46831579278E+02  0.41800000000E+01 0. -1.
         -5    1    1    2    0  502 -0.29353885772E+02 -0.17860355981E+02  0.96945598680E+02  0.10293961545E+03  0.41800000000E+01 0. -1.
        -11    1    3    3    0    0  0.36396626256E+02 -0.39026852999E+01 -0.46128154431E+01  0.36894761439E+02  0.00000000000E+00 0. -1.
         11    1    3    3    0    0 -0.23413033209E+02 -0.17779092481E+02  0.78538326901E+02  0.83860211340E+02  0.00000000000E+00 0.  1.
</event>
<event>
 7    1  0.4274778E-006  0.1174244E+03  0.7561462E-02  0.1247408E+00
          1   -1    0    0  501    0  0.00000000000E+00  0.00000000000E+00  0.42703938604E+03  0.42703938604E+03  0.00000000000E+00 0. -1.
         -1   -1    0    0    0  501 -0.00000000000E+00 -0.00000000000E+00 -0.50844880225E+02  0.50844880225E+02  0.00000000000E+00 0.  1.
         23    2    1    2    0    0  0.72681746378E+02 -0.69285329549E+02  0.18214849468E+03  0.22612185375E+03  0.88712600476E+02 0.  0.
          5    1    1    2  502    0 -0.89948474927E+02  0.69477920601E+02  0.86845656750E+02  0.14309979067E+03  0.41800000000E+01 0.  1.
         -5    1    1    2    0  502  0.17266728549E+02 -0.19259105254E+00  0.10720035438E+03  0.10866262185E+03  0.41800000000E+01 0.  1.
        -11    1    3    3    0    0  0.50659701346E+02 -0.31620954403E+02  0.28072436716E+02  0.65987512463E+02  0.00000000000E+00 0.  1.
         11    1    3    3    0    0  0.22022045032E+02 -0.37664375145E+02  0.15407605797E+03  0.16013434129E+03  0.00000000000E+00 0. -1.
</event>
<event>
 7    1  0.4274778E-006  0.1008494E+03  0.7561462E-02  0.1278520E+00
          2   -1    0    0  501    0  0.00000000000E+00  0.00000000000E+00  0.21257504922E+03  0.21257504922E+03  0.00000000000E+00 0. -1.
         -2   -1    0    0    0  501 -0.00000000000E+00 -0.00000000000E+00 -0.96356233310E+02  0.96356233310E+02  0.00000000000E+00 0.  1.
         23    2    1    2    0    0  0.61354406605E+02 -0.13551781659E+02  0.12543845548E+03  0.16864394387E+03  0.93583971352E+02 0.  0.
          5    1    1    2  502    0  0.14786558750E+02  0.43301167917E+02 -0.31194629304E+02  0.55535671060E+02  0.41800000000E+01 0.  1.
         -5    1    1    2    0  502 -0.76140965356E+02 -0.29749386258E+02  0.21974989737E+02  0.84751667606E+02  0.41800000000E+01 0.  1.
        -11    1    3    3    0    0  0.54312839983E+02  0.45230199236E+01  0.13603066260E+03  0.14654242889E+03  0.00000000000E+00 0. -1.
         11    1    3    3    0    0  0.70415666225E+01 -0.18074801582E+02 -0.10592207122E+02  0.22101514981E+02  0.00000000000E+00 0.  1.
</event>
<event>
 7    1  0.4274778E-006  0.9076158E+02  0.7561462E-02  0.1301018E+00
         -1   -1    0    0    0  501 -0.00000000000E+00  0.00000000000E+00  0.46488673309E+02  0.46488673309E+02  0.00000000000E+00 0.  1.
          1   -1    0    0  501    0  0.00000000000E+00 -0.00000000000E+00 -0.32595513388E+03  0.32595513388E+03  0.00000000000E+00 0. -1.
         23    2    1    2    0    0  0.31751702965E+02 -0.29819359662E+02 -0.18119224016E+03  0.20746099614E+03  0.91170566370E+02 0.  0.
          5    1    1    2  502    0 -0.48471844514E+02  0.37704909826E+02 -0.12077985360E+03  0.13555967457E+03  0.41800000000E+01 0.  1.
         -5    1    1    2    0  502  0.16720141549E+02 -0.78855501643E+01  0.22505633189E+02  0.29423136475E+02  0.41800000000E+01 0.  1.
        -11    1    3    3    0    0  0.18487192179E+02 -0.62802831588E+02 -0.11526952849E+03  0.13256332875E+03  0.00000000000E+00 0. -1.
         11    1    3    3    0    0  0.13264510786E+02  0.32983471925E+02 -0.65922711670E+02  0.74897667390E+02  0.00000000000E+00 0.  1.
</event>
<event>
 7    1  0.4274778E-006  0.1046245E+03  0.7561462E-02  0.1270861E+00
          1   -1    0    0  501    0  0.00000000000E+00  0.00000000000E+00  0.11051866509E+03  0.11051866509E+03  0.00000000000E+00 0. -1.
         -1   -1    0    0    0  501 -0.00000000000E+00 -0.00000000000E+00 -0.12508057581E+03  0.12508057581E+03  0.00000000000E+00 0.  1.
         23    2    1    2    0    0 -0.49360552976E+01 -0.43605784267E+02  0.76397210072E+01  0.10119758479E+03  0.90866697790E+02 0.  0.
          5    1    1    2  502    0  0.53068987412E+02  0.57178469708E+02  0.31318354251E+01  0.78185520502E+02  0.41800000000E+01 0. -1.
         -5    1    1    2    0  502 -0.48132932115E+02 -0.13572685440E+02 -0.25333467154E+02  0.56216135603E+02  0.41800000000E+01 0. -1.
        -11    1    3    3    0    0 -0.11037667448E+02  0.16869433652E+02 -0.25072263505E+02  0.32171824500E+02  0.00000000000E+00 0.  1.
         11    1    3    3    0    0  0.61016121502E+01 -0.60475217919E+02  0.32711984512E+02  0.69025760292E+02  0.00000000000E+00 0. -1.
</event>
<event>
 7    1  0.4274778E-006  0.1326554E+03  0.7561462E-02  0.1223568E+00
          2   -1    0    0  501    0  0.00000000000E+00  0.00000000000E+00  0.45084359388E+03  0.45084359388E+03  0.00000000000E+00 0. -1.
         -2   -1    0    0    0  501 -0.00000000000E+00 -0.00000000000E+00 -0.41903933958E+02  0.41903933958E+02  0.00000000000E+00 0.  1.
         23    2    1    2    0    0 -0.66280377416E+02  0.50259045043E+02  0.13632731767E+03  0.18148695123E+03  0.86216679855E+02 0.  0.
          5    1    1    2  502    0  0.90693669797E+02  0.36605024082E+01  0.16251106877E+03  0.18618824048E+03  0.41800000000E+01 0. -1.
         -5    1    1    2    0  502 -0.24413292381E+02 -0.53919547452E+02  0.11010127348E+03  0.12507233612E+03  0.41800000000E+01 0. -1.
        -11    1    3    3    0    0 -0.77221871638E+02  0.15621417304E+02  0.11488817607E+03  0.13930735494E+03  0.00000000000E+00 0.  1.
         11    1    3    3    0    0  0.10941494222E+02  0.34637627740E+02  0.21439141594E+02  0.42179596294E+02  0.00000000000E+00 0. -1.
</event>
<event>
 7    1  0.4274778E-006  0.1218052E+03  0.7561462E-02  0.1240148E+00
          1   -1    0    0  501    0  0.00000000000E+00  0.00000000000E+00  0.18615830850E+03  0.18615830850E+03  0.00000000000E+00 0. -1.
         -1   -1    0    0    0  501 -0.00000000000E+00 -0.00000000000E+00 -0.12430439828E+03  0.12430439828E+03  0.00000000000E+00 0.  1.
         23    2    1    2    0    0  0.97440944468E+02  0.35273962160E+02  0.46669246420E+01  0.13824828155E+03  0.91388276609E+02 0.  0.
          5    1    1    2  502    0 -0.11582470847E+02  0.37720584386E+01 -0.36804281784E+02  0.38992430207E+02  0.41800000000E+01 0.  1.
         -5    1    1    2    0  502 -0.85858473621E+02 -0.39046020599E+02  0.93991267358E+02  0.13322199502E+03  0.41800000000E+01 0.  1.
        -11    1    3    3    0    0  0.32674491793E+02 -0.30005992909E+02 -0.90436544691E+01  0.45274382498E+02  0.00000000000E+00 0.  1.
         11    1    3    3    0    0  0.64766452675E+02  0.65279955069E+02  0.13710579111E+02  0.92973899055E+02  0.00000000000E+00 0. -1.
</event>
<event>
 7    1  0.4274778E-006  0.1038236E+03  0.7561462E-02  0.1272455E+00
          1   -1    0    0  501    0  0.00000000000E+00  0.00000000000E+00  0.12467879096E+03  0.12467879096E+03  0.00000000000E+00 0. -1.
         -1   -1    0    0    0  501 -0.00000000000E+00 -0.00000000000E+00 -0.12937056946E+03  0.12937056946E+03  0.00000000000E+00 0.  1.
         23    2    1    2    0    0 -0.35944703671E+02  0.46999025175E+02  0.30513864382E+02  0.11124309432E+03  0.89123509949E+02 0.  0.
          5    1    1    2  502    0  0.64815746882E+02 -0.89603044299E+00 -0.54649493980E+02  0.84887711165E+02  0.41800000000E+01 0. -1.
         -5    1    1    2    0  502 -0.28871043212E+02 -0.46102994732E+02  0.19443851097E+02  0.57918554928E+02  0.41800000000E+01 0. -1.
        -11    1    3    3    0    0 -0.54056305351E+02  0.24773476227E+02 -0.11316894585E+02  0.60530003929E+02  0.00000000000E+00 0.  1.
         11    1    3    3    0    0  0.18111601681E+02  0.22225548948E+02  0.41830758968E+02  0.50713090394E+02  0.00000000000E+00 0. -1.
</event>
<event>
 7    1  0.4274778E-006  0.8376199E+02  0.7561462E-02  0.1318702E+00
         -3   -1    0    0    0  501 -0.00000000000E+00  0.00000000000E+00  0.61305116191E+02  0.61305116191E+02  0.00000000000E+00 0.  1.
          3   -1    0    0  501    0  0.00000000000E+00 -0.00000000000E+00 -0.19596547543E+03  0.19596547543E+03  0.00000000000E+00 0. -1.
         23    2    1    2    0    0  0.78816570446E+01 -0.15344101837E+02 -0.71444822867E+02  0.11605692154E+03  0.89818062455E+02 0.  0.
          5    1    1    2  502    0  0.38338532140E+02  0.42074208039E+01  0.21223177344E+02  0.44220369662E+02  0.41800000000E+01 0.  1.
         -5    1    1    2    0  502 -0.46220189185E+02  0.11136681033E+02 -0.84438713712E+02  0.96993300418E+02  0.41800000000E+01 0.  1.
        -11    1    3    3    0    0 -0.63745339396E+01 -0.46397634008E+02 -0.66787027547E+02  0.81571331808E+02  0.00000000000E+00 0. -1.
         11    1    3    3    0    0  0.14256190984E+02  0.31053532171E+02 -0.46577953203E+01  0.34485589728E+02  0.00000000000E+00 0.  1.
</event>
<event>
 7    1  0.4274778E-006  0.1211260E+03  0.7561462E-02  0.1241251E+00
          2   -1    0    0  501    0  0.00000000000E+00  0.00000000000E+00  0.44678992976E+03  0.44678992976E+03  0.00000000000E+00 0. -1.
         -2   -1    0    0    0  501 -0.00000000000E+00 -0.00000000000E+00 -0.48249267648E+02  0.48249267648E+02  0.00000000000E+00 0.  1.
         23    2    1    2    0    0 -0.45826523716E+02  0.82347365104E+02  0.22817335551E+03  0.26362912241E+03  0.92499055140E+02 0.  0.
          5    1    1    2  502    0 -0.79232576394E+01 -0.91972362042E+02  0.14281881257E+03  0.17010696345E+03  0.41800000000E+01 0.  1.
         -5    1    1    2    0  502  0.53749781356E+02  0.96249969376E+01  0.27548494032E+02  0.61303111546E+02  0.41800000000E+01 0.  1.
        -11    1    3    3    0    0 -0.35558118676E+02  0.51616104791E+02  0.43886504481E+02  0.76515536678E+02  0.00000000000E+00 0.  1.
         11    1    3    3    0    0 -0.10268405040E+02  0.30731260313E+02  0.18428685103E+03  0.18711358573E+03  0.00000000000E+00 0. -1.
</event>
<event>
 7    1  0.4274778E-006  0.1075832E+03  0.7561462E-02  0.1265112E+00
         -2   -1    0    0    0  501 -0.00000000000E+00  0.00000000000E+00  0.40353757762E+02  0.40353757762E+02  0.00000000000E+00 0.  1.
          2   -1    0    0  501    0  0.00000000000E+00 -0.00000000000E+00 -0.37989356111E+03  0.37989356111E+03  0.00000000000E+00 0. -1.
         23    2    1    2    0    0  0.59046813232E+02 -0.17780558013E+01 -0.12844411599E+03  0.16786217647E+03  0.90499346536E+02 0.  0.
          5    1    1    2  502    0  0.19272909925E+02 -0.43141582224E+02 -0.62540736248E+02  0.78494950566E+02  0.41800000000E+01 0.  1.
         -5    1    1    2    0  502 -0.78319723157E+02  0.44919638026E+02 -0.14855495111E+03  0.17389019183E+03  0.41800000000E+01 0.  1.
        -11    1    3    3    0    0  0.11651619811E+02 -0.22718514320E+02 -0.10990277024E+03  0.11282956192E+03  0.00000000000E+00 0. -1.
         11    1    3    3    0    0  0.47395193421E+02  0.20940458519E+02 -0.18541345750E+02  0.55032614553E+02  0.00000000000E+00 0.  1.
</event>
<event>
 7    1  0.4979367E-006  0.1933339E+03  0.7561462E-02  0.1155488E+00
          2   -1    0    0  501    0  0.00000000000E+00  0.00000000000E+00  0.69739380160E+03  0.69739380160E+03  0.00000000000E+00 0. -1.
         -2   -1    0    0    0  501 -0.00000000000E+00 -0.00000000000E+00 -0.61186576253E+02  0.61186576253E+02  0.00000000000E+00 0.  1.
         23    2    1    2    0    0  0.17327748907E+03 -0.13730375555E+02  0.35269735015E+03  0.40327869654E+03  0.89580549495E+02 0.  0.
          5    1    1    2  502    0 -0.10845254058E+03  0.68084662869E+02  0.15094737255E+03  0.19799004156E+03  0.41800000000E+01 0. -1.
         -5    1    1    2    0  502 -0.64824948482E+02 -0.54354287313E+02  0.13256250265E+03  0.15731163976E+03  0.41800000000E+01 0. -1.
        -11    1    3    3    0    0  0.19931933304E+02 -0.61824658019E+00  0.16905578622E+01  0.20013050242E+02  0.00000000000E+00 0.  1.
         11    1    3    3    0    0  0.15334555576E+03 -0.13112128975E+02  0.35100679229E+03  0.38326564629E+03  0.00000000000E+00 0. -1.
</event>
<event>
 7    1  0.4274778E-006  0.4598297E+03  0.7561462E-02  0.1024831E+00
         -1   -1    0    0    0  501 -0.00000000000E+00  0.00000000000E+00  0.38771943330E+03  0.38771943330E+03  0.00000000000E+00 0.  1.
          1   -1    0    0  501    0  0.00000000000E+00 -0.00000000000E+00 -0.74247798735E+03  0.74247798735E+03  0.00000000000E+00 0. -1.
         23    2    1    2    0    0  0.25129415440E+03  0.37283510661E+03 -0.46214082308E+03  0.65130800416E+03  0.92050025362E+02 0.  0.
          5    1    1    2  502    0 -0.19585691272E+03 -0.19100347554E+03  0.89675084148E+02  0.28792594715E+03  0.41800000000E+01 0. -1.
         -5    1    1    2    0  502 -0.55437241686E+02 -0.18183163107E+03  0.17707184893E+02  0.19096346933E+03  0.41800000000E+01 0. -1.
        -11    1    3    3    0    0  0.13207251647E+03  0.12963587194E+03 -0.15147165961E+03  0.23914905930E+03  0.00000000000E+00 0.  1.
         11    1    3    3    0    0  0.11922163793E+03  0.24319923467E+03 -0.31066916347E+03  0.41215894486E+03  0.00000000000E+00 0. -1.
</event>
<event>
 7    1  0.4274778E-006  0.8339053E+02  0.7561462E-02  0.1319696E+00
         -2   -1    0    0    0  501 -0.00000000000E+00  0.00000000000E+00  0.14488465639E+03  0.14488465639E+03  0.00000000000E+00 0.  1.
          2   -1    0    0  501    0  0.00000000000E+00 -0.00000000000E+00 -0.10261466198E+03  0.10261466198E+03  0.00000000000E+00 0. -1.
         23    2    1    2    0    0  0.32015691357E+02 -0.17640476812E+02 -0.25145393982E+02  0.10078106850E+03  0.90489458032E+02 0.  0.
          5    1    1    2  502    0  0.12447662876E+02 -0.48594567045E+02  0.28737289556E+02  0.57962750697E+02  0.41800000000E+01 0.  1.
         -5    1    1    2    0  502 -0.44463354232E+02  0.66235043857E+02  0.38678098833E+02  0.88755499174E+02  0.41800000000E+01 0.  1.
        -11    1    3    3    0    0  0.11695840199E+02 -0.67840985512E+01 -0.58612028402E+02  0.60151363613E+02  0.00000000000E+00 0. -1.
         11    1    3    3    0    0  0.20319851158E+02 -0.10856378261E+02  0.33466634420E+02  0.40629704890E+02  0.00000000000E+00 0.  1.
</event>
<event>
 7    1  0.4274778E-006  0.2032949E+03  0.7561462E-02  0.1146988E+00
         -1   -1    0    0    0  501 -0.00000000000E+00  0.00000000000E+00  0.43152794794E+03  0.43152794794E+03  0.00000000000E+00 0.  1.
          1   -1    0    0  501    0  0.00000000000E+00 -0.00000000000E+00 -0.10657668452E+03  0.10657668452E+03  0.00000000000E+00 0. -1.
         23    2    1    2    0    0  0.17454578574E+03 -0.36234939200E+02  0.95174054001E+02  0.22152262046E+03  0.90746728202E+02 0.  0.
          5    1    1    2  502    0 -0.69592755788E+02  0.77776153830E+02  0.10114282690E+03  0.14539472341E+03  0.41800000000E+01 0.  1.
         -5    1    1    2    0  502 -0.10495302996E+03 -0.41541214630E+02  0.12863438253E+03  0.17118728860E+03  0.41800000000E+01 0.  1.
        -11    1    3    3    0    0  0.28697905477E+02  0.17664531674E+02 -0.83568751827E+01  0.34719487624E+02  0.00000000000E+00 0. -1.
         11    1    3    3    0    0  0.14584788027E+03 -0.53899470874E+02  0.10353092918E+03  0.18680313283E+03  0.00000000000E+00 0.  1.
</event>
<event>
 7    1  0.4274778E-006  0.1132726E+03  0.7561462E-02  0.1254627E+00
          1   -1    0    0  501    0  0.00000000000E+00  0.00000000000E+00  0.25490640906E+03  0.25490640906E+03  0.00000000000E+00 0. -1.
         -1   -1    0    0    0  501 -0.00000000000E+00 -0.00000000000E+00 -0.72858134875E+02  0.72858134875E+02  0.00000000000E+00 0.  1.
         23    2    1    2    0    0  0.22954694444E+02 -0.41389741377E+02  0.16138874984E+03  0.19243740606E+03  0.93518971285E+02 0.  0.
          5    1    1    2  502    0  0.66113985343E+01 -0.41754677014E+02  0.20065233410E+02  0.46981375405E+02  0.41800000000E+01 0.  1.
         -5    1    1    2    0  502 -0.29566092978E+02  0.83144418390E+02  0.59429093384E+00  0.88345762463E+02  0.41800000000E+01 0.  1.
        -11    1    3    3    0    0  0.51821716653E+02 -0.42217285145E+02  0.70847202383E+02  0.97401825277E+02  0.00000000000E+00 0.  1.
         11    1    3    3    0    0 -0.28867022209E+02  0.82754376834E+00  0.90541547456E+02  0.95035580788E+02  0.00000000000E+00 0. -1.
</event>
<event>
 7    1  0.4274778E-006  0.1123692E+03  0.7561462E-02  0.1256244E+00
         -1   -1    0    0    0  501 -0.00000000000E+00  0.00000000000E+00  0.45410928783E+02  0.45410928783E+02  0.00000000000E+00 0.  1.
          1   -1    0    0  501    0  0.00000000000E+00 -0.00000000000E+00 -0.34193153426E+03  0.34193153426E+03  0.00000000000E+00 0. -1.
         23    2    1    2    0    0  0.18064554476E+02 -0.33307277903E+02 -0.20997589006E+03  0.23058528920E+03  0.87429962241E+02 0.  0.
          5    1    1    2  502    0 -0.95837124225E+01 -0.47364588647E+02 -0.41759182880E+02  0.64004324513E+02  0.41800000000E+01 0.  1.
         -5    1    1    2    0  502 -0.84808420534E+01  0.80671866550E+02 -0.44785532532E+02  0.92752849329E+02  0.41800000000E+01 0.  1.
        -11    1    3    3    0    0  0.41342958092E+02  0.12867210797E+02 -0.86980820657E+02  0.97162073154E+02  0.00000000000E+00 0. -1.
         11    1    3    3    0    0 -0.23278403616E+02 -0.46174488700E+02 -0.12299506940E+03  0.13342321604E+03  0.00000000000E+00 0.  1.
</event>
<event>
 7    1  0.4274778E-006  0.1968807E+03  0.7561462E-02  0.1152398E+00
          2   -1    0    0  501    0  0.00000000000E+00  0.00000000000E+00  0.67144475363E+03  0.67144475363E+03  0.00000000000E+00 0. -1.
         -2   -1    0    0    0  501 -0.00000000000E+00 -0.00000000000E+00 -0.83103001058E+02  0.83103001058E+02  0.00000000000E+00 0.  1.
         23    2    1    2    0    0 -0.13797611391E+03 -0.93737862031E+02  0.48523122469E+03  0.52193958341E+03  0.95642001912E+02 0.  0.
          5    1    1    2  502    0  0.21638831986E+02 -0.26426657390E+02 -0.29179883770E+01  0.34533959035E+02  0.41800000000E+01 0. -1.
         -5    1    1    2    0  502  0.11633728193E+03  0.12016451942E+03  0.10602851626E+03  0.19807421224E+03  0.41800000000E+01 0. -1.
        -11    1    3    3    0    0  0.35778727655E+01 -0.40736917036E+02  0.11423708147E+03  0.12133593189E+03  0.00000000000E+00 0.  1.
         11    1    3    3    0    0 -0.14155398668E+03 -0.53000944996E+02  0.37099414321E+03  0.40060365152E+03  0.00000000000E+00 0. -1.
</event>
<event>
 7    1  0.4274778E-006  0.1224934E+03  0.7561462E-02  0.1239040E+00
         -1   -1    0    0    0  501 -0.00000000000E+00  0.00000000000E+00  0.29777869263E+02  0.29777869263E+02  0.00000000000E+00 0.  1.
          1   -1    0    0  501    0  0.00000000000E+00 -0.00000000000E+00 -0.62589677890E+03  0.62589677890E+03  0.00000000000E+00 0. -1.
         23    2    1    2    0    0  0.49370902898E+02 -0.59845601091E+02 -0.31711491041E+03  0.34022260010E+03  0.95763088900E+02 0.  0.
          5    1    1    2  502    0 -0.38978049947E+02  0.98896814466E+02 -0.20885758987E+03  0.23439034438E+03  0.41800000000E+01 0. -1.
         -5    1    1    2    0  502 -0.10392852952E+02 -0.39051213375E+02 -0.70146409360E+02  0.81061703687E+02  0.41800000000E+01 0. -1.
        -11    1    3    3    0    0  0.51178890051E+02 -0.15330307969E+02 -0.64704453800E+02  0.83910449116E+02  0.00000000000E+00 0.  1.
         11    1    3    3    0    0 -0.18079871525E+01 -0.44515293122E+02 -0.25241045661E+03  0.25631215099E+03  0.00000000000E+00 0. -1.
</event>
<event>
 7    1  0.4274778E-006  0.1539414E+03  0.7561462E-02  0.1195712E+00
         -1   -1    0    0    0  501 -0.00000000000E+00  0.00000000000E+00  0.26519893585E+03  0.26519893585E+03  0.00000000000E+00 0.  1.
          1   -1    0    0  501    0  0.00000000000E+00 -0.00000000000E+00 -0.11425960451E+03  0.11425960451E+03  0.00000000000E+00 0. -1.
         23    2    1    2    0    0  0.10180404142E+03 -0.89588178508E+02  0.76834752398E+02  0.18064065132E+03  0.91309151541E+02 0.  0.
          5    1    1    2  502    0 -0.98026554942E+02  0.97423773604E+02  0.10035577460E+03  0.17084891288E+03  0.41800000000E+01 0.  1.
         -5    1    1    2    0  502 -0.37774864754E+01 -0.78355950960E+01 -0.26251195651E+02  0.27968976165E+02  0.41800000000E+01 0.  1.
        -11    1    3    3    0    0  0.78294802434E+02 -0.10564463343E+03  0.76582987764E+02  0.15217036070E+03  0.00000000000E+00 0.  1.
         11    1    3    3    0    0  0.23509238984E+02  0.16056454924E+02  0.25176463365E+00  0.28470290616E+02  0.00000000000E+00 0. -1.
</event>
<event>
 7    1  0.4274778E-006  0.9596459E+02  0.7561462E-02  0.1289018E+00
          2   -1    0    0  501    0  0.00000000000E+00  0.00000000000E+00  0.71502804905E+03  0.71502804905E+03  0.00000000000E+00 0. -1.
         -2   -1    0    0    0  501 -0.00000000000E+00 -0.00000000000E+00 -0.26455776157E+02  0.26455776157E+02  0.00000000000E+00 0.  1.
         23    2    1    2    0    0  0.45926830902E+02  0.18505514972E+02  0.54043827061E+03  0.55029984007E+03  0.91129916961E+02 0.  0.
          5    1    1    2  502    0  0.73865341863E+01 -0.32825440126E+02  0.12777706935E+03  0.13219879825E+03  0.41800000000E+01 0. -1.
         -5    1    1    2    0  502 -0.53313365089E+02  0.14319925154E+02  0.20356932936E+02  0.58985186887E+02  0.41800000000E+01 0.  1.
        -11    1    3    3    0    0  0.69973663225E+02 -0.35084930903E+01  0.40324511952E+03  0.40928626838E+03  0.00000000000E+00 0. -1.
         11    1    3    3    0    0 -0.24046832322E+02  0.22014008062E+02  0.13719315108E+03  0.14101357169E+03  0.00000000000E+00 0.  1.
</event>
<event>
 7    1  0.4274778E-006  0.2572520E+03  0.7561462E-02  0.1108806E+00
          2   -1    0    0  501    0  0.00000000000E+00  0.00000000000E+00  0.37989042995E+03  0.37989042995E+03  0.00000000000E+00 0. -1.
         -2   -1    0    0    0  501 -0.00000000000E+00 -0.00000000000E+00 -0.18097813468E+03  0.18097813468E+03  0.00000000000E+00 0.  1.
         23    2    1    2    0    0 -0.18631270870E+03 -0.14883925366E+03  0.12722280167E+03  0.28550569504E+03  0.91990824436E+02 0.  0.
          5    1    1    2  502    0  0.18260752421E+03  0.96629872711E+02  0.81161759862E+02  0.22200798153E+03  0.41800000000E+01 0. -1.
         -5    1    1    2    0  502  0.37051844836E+01  0.52209380953E+02 -0.94722662562E+01  0.53354888057E+02  0.41800000000E+01 0.  1.
        -11    1    3    3    0    0 -0.19626857883E+03 -0.13462717619E+03  0.11537373010E+03  0.26449372242E+03  0.00000000000E+00 0.  1.
         11    1    3    3    0    0  0.99558701283E+01 -0.14212077474E+02  0.11849071567E+02  0.21011972614E+02  0.00000000000E+00 0. -1.
</event>
<event>
 7    1  0.4274778E-006  0.1065852E+03  0.7561462E-02  0.1267027E+00
         -1   -1    0    0    0  501 -0.00000000000E+00  0.00000000000E+00  0.20915476367E+03  0.20915476367E+03  0.00000000000E+00 0.  1.
          1   -1    0    0  501    0  0.00000000000E+00 -0.00000000000E+00 -0.10563913527E+03  0.10563913527E+03  0.00000000000E+00 0. -1.
         23    2    1    2    0    0 -0.25795182773E+02  0.96165711813E+02  0.32912018464E+02  0.14002041418E+03  0.92786205039E+02 0.  0.
          5    1    1    2  502    0  0.85013223988E+01 -0.94690500538E+02 -0.67348004048E+01  0.95401222797E+02  0.41800000000E+01 0.  1.
         -5    1    1    2    0  502  0.17293860374E+02 -0.14752112746E+01  0.77338410336E+02  0.79372261957E+02  0.41800000000E+01 0.  1.
        -11    1    3    3    0    0 -0.78130981666E+01  0.50060615863E+02 -0.30840388151E+02  0.59314747786E+02  0.00000000000E+00 0. -1.
         11    1    3    3    0    0 -0.17982084606E+02  0.46105095950E+02  0.63752406615E+02  0.80705666396E+02  0.00000000000E+00 0.  1.
</event>
<event>
 7    1  0.4274778E-006  0.1760890E+03  0.7561462E-02  0.1171643E+00
          2   -1    0    0  501    0  0.00000000000E+00  0.00000000000E+00  0.70678003400E+03  0.70678003400E+03  0.00000000000E+00 0. -1.
         -2   -1    0    0    0  501 -0.00000000000E+00 -0.00000000000E+00 -0.47856493603E+02  0.47856493603E+02  0.00000000000E+00 0.  1.
         23    2    1    2    0    0  0.14273037799E+03 -0.28979332942E+02  0.25629657462E+03  0.30857855921E+03  0.91219682645E+02 0.  0.
          5    1    1    2  502    0 -0.27689936601E+02  0.63311160798E+02  0.11318188219E+03  0.13267496571E+03  0.41800000000E+01 0. -1.
         -5    1    1    2    0  502 -0.11504044139E+03 -0.34331827856E+02  0.28944508359E+03  0.31338300268E+03  0.41800000000E+01 0. -1.
        -11    1    3    3    0    0  0.36849971970E+02  0.24452277711E+02  0.31112932901E+02  0.54072626283E+02  0.00000000000E+00 0.  1.
         11    1    3    3    0    0  0.10588040602E+03 -0.53431610653E+02  0.22518364172E+03  0.25450593293E+03  0.00000000000E+00 0. -1.
</event>
<event>
 7    1  0.4274778E-006  0.1437179E+03  0.7561462E-02  0.1208412E+00
         -3   -1    0    0    0  501 -0.00000000000E+00  0.00000000000E+00  0.22869213226E+03  0.22869213226E+03  0.00000000000E+00 0.  1.
          3   -1    0    0  501    0  0.00000000000E+00 -0.00000000000E+00 -0.93502155624E+02  0.93502155624E+02  0.00000000000E+00 0. -1.
         23    2    1    2    0    0 -0.53330292858E+02  0.15968155671E+01  0.49728129042E+02  0.11581953779E+03  0.89970042569E+02 0.  0.
          5    1    1    2  502    0 -0.62724036415E+02 -0.18393387984E+02  0.84978406023E+01  0.66047764237E+02  0.41800000000E+01 0. -1.
         -5    1    1    2    0  502  0.11605432927E+03  0.16796572417E+02  0.76964006995E+02  0.14032698586E+03  0.41800000000E+01 0.  1.
        -11    1    3    3    0    0 -0.37463235979E+02 -0.43137238897E+02  0.27487763353E+02  0.63402622689E+02  0.00000000000E+00 0. -1.
         11    1    3    3    0    0 -0.15867056879E+02  0.44734054464E+02  0.22240365689E+02  0.52416915102E+02  0.00000000000E+00 0.  1.
</event>
<event>
 7    1  0.4274778E-006  0.1185354E+03  0.7561462E-02  0.1245533E+00
         -1   -1    0    0    0  501 -0.00000000000E+00  0.00000000000E+00  0.31689014672E+02  0.31689014672E+02  0.00000000000E+00 0.  1.
          1   -1    0    0  501    0  0.00000000000E+00 -0.00000000000E+00 -0.49816645431E+03  0.49816645431E+03  0.00000000000E+00 0. -1.
         23    2    1    2    0    0 -0.38036552981E+02  0.97275076367E+01 -0.25645310593E+03  0.27487247316E+03  0.90803508686E+02 0.  0.
          5    1    1    2  502    0 -0.35901252823E+02 -0.45189570386E+02 -0.56466432483E+02  0.80851268532E+02  0.41800000000E+01 0. -1.
         -5    1    1    2    0  502  0.73937805805E+02  0.35462062749E+02 -0.15355790122E+03  0.17413172729E+03  0.41800000000E+01 0.  1.
        -11    1    3    3    0    0  0.12572949911E+02  0.37370957865E+02 -0.79153673832E+02  0.88430603539E+02  0.00000000000E+00 0.  1.
         11    1    3    3    0    0 -0.50609502892E+02 -0.27643450229E+02 -0.17729943210E+03  0.18644186962E+03  0.00000000000E+00 0. -1.
</event>
<event>
 7    1  0.4274778E-006  0.1224887E+03  0.7561462E-02  0.1239047E+00
          1   -1    0    0  501    0  0.00000000000E+00  0.00000000000E+00  0.12034369017E+03  0.12034369017E+03  0.00000000000E+00 0. -1.
         -1   -1    0    0    0  501 -0.00000000000E+00 -0.00000000000E+00 -0.19517870225E+03  0.19517870225E+03  0.00000000000E+00 0.  1.
         23    2    1    2    0    0 -0.55245470600E+02 -0.80442464629E+02  0.36049213696E+02  0.12195962796E+03  0.63651809921E+02 0.  0.
          5    1    1    2  502    0 -0.29072943240E+02  0.46679672587E+02 -0.80729222666E+02  0.97769666327E+02  0.41800000000E+01 0. -1.
         -5    1    1    2    0  502  0.84318413840E+02  0.33762792043E+02 -0.30155003113E+02  0.95793098142E+02  0.41800000000E+01 0. -1.
        -11    1    3    3    0    0 -0.13121776298E+02 -0.32695143013E+02 -0.16968771607E+02  0.39103613640E+02  0.00000000000E+00 0.  1.
         11    1    3    3    0    0 -0.42123694303E+02 -0.47747321616E+02  0.53017985302E+02  0.82856014318E+02  0.00000000000E+00 0. -1.
</event>
<event>
 7    1  0.4274778E-006  0.9360414E+02  0.7561462E-02  0.1294351E+00
          2   -1    0    0  501    0  0.00000000000E+00  0.00000000000E+00  0.66108742731E+02  0.66108742731E+02  0.00000000000E+00 0. -1.
         -2   -1    0    0    0  501 -0.00000000000E+00 -0.00000000000E+00 -0.25808723951E+03  0.25808723951E+03  0.00000000000E+00 0.  1.
         23    2    1    2    0    0  0.57407716533E+02 -0.34134203008E+02 -0.56500959721E+02  0.12807927417E+03  0.93547593714E+02 0.  0.
          5    1    1    2  502    0 -0.60584390577E+01 -0.32314374470E+02 -0.99115612024E+02  0.10450981020E+03  0.41800000000E+01 0.  1.
         -5    1    1    2    0  502 -0.51349277475E+02  0.66448577478E+02 -0.36361925036E+02  0.91606897876E+02  0.41800000000E+01 0.  1.
        -11    1    3    3    0    0  0.38221011019E+02 -0.10684574097E+02 -0.80286466165E+02  0.89559602814E+02  0.00000000000E+00 0.  1.
         11    1    3    3    0    0  0.19186705513E+02 -0.23449628911E+02  0.23785506443E+02  0.38519671355E+02  0.00000000000E+00 0. -1.
</event>
<event>
 7    1  0.4274778E-006  0.1509661E+03  0.7561462E-02  0.1199291E+00
         -3   -1    0    0    0  501 -0.00000000000E+00  0.00000000000E+00  0.36407450286E+02  0.36407450286E+02  0.00000000000E+00 0.  1.
          3   -1    0    0  501    0  0.00000000000E+00 -0.00000000000E+00 -0.90611798994E+03  0.90611798994E+03  0.00000000000E+00 0. -1.
         23    2    1    2    0    0 -0.35364247914E+02  0.12388079716E+03 -0.58345527514E+03  0.60460879607E+03  0.92383203365E+02 0.  0.
          5    1    1    2  502    0  0.41799674300E+02 -0.27590371127E+02 -0.18982211672E+02  0.53723720184E+02  0.41800000000E+01 0.  1.
         -5    1    1    2    0  502 -0.64354263860E+01 -0.96290426033E+02 -0.26727305284E+03  0.28419292397E+03  0.41800000000E+01 0.  1.
        -11    1    3    3    0    0  0.27742783824E+02  0.55371892815E+02 -0.17402811032E+03  0.18472003614E+03  0.00000000000E+00 0.  1.
         11    1    3    3    0    0 -0.63107031738E+02  0.68508904345E+02 -0.40942716482E+03  0.41988875993E+03  0.00000000000E+00 0. -1.
</event>
<event>
 7    1  0.4274778E-006  0.2068906E+03  0.7561462E-02  0.1144052E+00
         -2   -1    0    0    0  501 -0.00000000000E+00  0.00000000000E+00  0.98638174451E+02  0.98638174451E+02  0.00000000000E+00 0.  1.
          2   -1    0    0  501    0  0.00000000000E+00 -0.00000000000E+00 -0.48817494013E+03  0.48817494013E+03  0.00000000000E+00 0. -1.
         23    2    1    2    0    0 -0.18200447049E+03 -0.99694037697E+00 -0.26288382851E+03  0.33222463188E+03  0.90214619442E+02 0.  0.
          5    1    1    2  502    0  0.18608265579E+03 -0.29992253602E+02 -0.10064713586E+03  0.21371384705E+03  0.41800000000E+01 0. -1.
         -5    1    1    2    0  502 -0.40781852958E+01  0.30989193979E+02 -0.26005801296E+02  0.40874635653E+02  0.41800000000E+01 0. -1.
        -11    1    3    3    0    0 -0.87833719575E+02 -0.33629461741E+02 -0.17796389342E+03  0.20128797866E+03  0.00000000000E+00 0. -1.
         11    1    3    3    0    0 -0.94170750919E+02  0.32632521364E+02 -0.84919935092E+02  0.13093665322E+03  0.00000000000E+00 0.  1.
</event>
<event>
 7    1  0.4274778E-006  0.2127321E+03  0.7561462E-02  0.1139421E+00
          1   -1    0    0  501    0  0.00000000000E+00  0.00000000000E+00  0.75277774497E+02  0.75277774497E+02  0.00000000000E+00 0. -1.
         -1   -1    0    0    0  501 -0.00000000000E+00 -0.00000000000E+00 -0.80627666395E+03  0.80627666395E+03  0.00000000000E+00 0.  1.
         23    2    1    2    0    0 -0.17880301898E+03  0.63666353466E+02 -0.15428822693E+03  0.26166084149E+03  0.92938769324E+02 0.  0.
          5    1    1    2  502    0  0.19600246491E+03 -0.46022303839E+02 -0.52900723523E+03  0.56603988024E+03  0.41800000000E+01 0. -1.
         -5    1    1    2    0  502 -0.17199445934E+02 -0.17644049627E+02 -0.47703427302E+02  0.53853716715E+02  0.41800000000E+01 0. -1.
        -11    1    3    3    0    0 -0.95620253851E+01 -0.10601029652E+02  0.74156300774E+01  0.16087440088E+02  0.00000000000E+00 0. -1.
         11    1    3    3    0    0 -0.16924099359E+03  0.74267383118E+02 -0.16170385701E+03  0.24557340141E+03  0.00000000000E+00 0.  1.
</event>
<event>
 7    1  0.4274778E-006  0.1012496E+03  0.7561462E-02  0.1277690E+00
         -4   -1    0    0    0  501 -0.00000000000E+00  0.00000000000E+00  0.33642529818E+03  0.33642529818E+03  0.00000000000E+00 0.  1.
          4   -1    0    0  501    0  0.00000000000E+00 -0.00000000000E+00 -0.38430016747E+02  0.38430016747E+02  0.00000000000E+00 0. -1.
         23    2    1    2    0    0  0.14457807588E+01 -0.35001921003E+01  0.72342451243E+02  0.11682353564E+03  0.91651331693E+02 0.  0.
          5    1    1    2  502    0  0.36223404309E+02  0.50647042734E+02  0.90197350178E+02  0.10968268932E+03  0.41800000000E+01 0.  1.
         -5    1    1    2    0  502 -0.37669185068E+02 -0.47146850634E+02  0.13545548001E+03  0.14834908997E+03  0.41800000000E+01 0.  1.
        -11    1    3    3    0    0 -0.24443684815E+02 -0.32537807216E+02  0.77610940438E+01  0.41429907151E+02  0.00000000000E+00 0. -1.
         11    1    3    3    0    0  0.25889465574E+02  0.29037615116E+02  0.64581357200E+02  0.75393628491E+02  0.00000000000E+00 0.  1.
</event>
<event>
 7    1  0.4274778E-006  0.1725770E+03  0.7561462E-02  0.1175187E+00
         -2   -1    0    0    0  501 -0.00000000000E+00  0.00000000000E+00  0.14190611022E+03  0.14190611022E+03  0.00000000000E+00 0.  1.
          2   -1    0    0  501    0  0.00000000000E+00 -0.00000000000E+00 -0.26986492374E+03  0.26986492374E+03  0.00000000000E+00 0. -1.
         23    2    1    2    0    0  0.12720795333E+03  0.84213976565E+02 -0.12289435580E+03  0.21442168639E+03  0.87176715153E+02 0.  0.
          5    1    1    2  502    0 -0.45359033168E+02  0.20705948550E+02 -0.34782085854E+02  0.60938034852E+02  0.41800000000E+01 0. -1.
         -5    1    1    2    0  502 -0.81848920162E+02 -0.10491992511E+03  0.29717628134E+02  0.13641131273E+03  0.41800000000E+01 0. -1.
        -11    1    3    3    0    0  0.46271401203E+02  0.63262027023E+02 -0.10128541737E+03  0.12806975601E+03  0.00000000000E+00 0. -1.
         11    1    3    3    0    0  0.80936552127E+02  0.20951949542E+02 -0.21608938435E+02  0.86351930379E+02  0.00000000000E+00 0.  1.
</event>
<event>
 7    1  0.4274778E-006  0.8470605E+02  0.7561462E-02  0.1316203E+00
          1   -1    0    0  501    0  0.00000000000E+00  0.00000000000E+00  0.27126693254E+03  0.27126693254E+03  0.00000000000E+00 0. -1.
         -1   -1    0    0    0  501 -0.00000000000E+00 -0.00000000000E+00 -0.51651409338E+02  0.51651409338E+02  0.00000000000E+00 0.  1.
         23    2    1    2    0    0 -0.19338643159E+02  0.39085464425E+01  0.15713040653E+03  0.18170573826E+03  0.89094055956E+02 0.  0.
          5    1    1    2  502    0  0.28176145802E+02 -0.35279842877E+02  0.88408641553E+02  0.99358556787E+02  0.41800000000E+01 0. -1.
         -5    1    1    2    0  502 -0.88375026429E+01  0.31371296434E+02 -0.25923524887E+02  0.41854046823E+02  0.41800000000E+01 0. -1.
        -11    1    3    3    0    0  0.33538762893E+02  0.15702390975E+02  0.66555676069E+02  0.76164766892E+02  0.00000000000E+00 0.  1.
         11    1    3    3    0    0 -0.52877406052E+02 -0.11793844533E+02  0.90574730463E+02  0.10554097137E+03  0.00000000000E+00 0. -1.
</event>
<event>
 7    1  0.4274778E-006  0.1339379E+03  0.7561462E-02  0.1221727E+00
         -4   -1    0    0    0  501 -0.00000000000E+00  0.00000000000E+00  0.99484722692E+03  0.99484722692E+03  0.00000000000E+00 0.  1.
          4   -1    0    0  501    0  0.00000000000E+00 -0.00000000000E+00 -0.20144310506E+02  0.20144310506E+02  0.00000000000E+00 0. -1.
         23    2    1    2    0    0  0.57292093615E+02  0.61848386696E+02  0.29144226658E+03  0.31527889850E+03  0.85758860543E+02 0.  0.
          5    1    1    2  502    0 -0.81232513644E+02 -0.84364096768E+02  0.50725296515E+03  0.52061412308E+03  0.41800000000E+01 0.  1.
         -5    1    1    2    0  502  0.23940420029E+02  0.22515710072E+02  0.17600768468E+03  0.17909851585E+03  0.41800000000E+01 0.  1.
        -11    1    3    3    0    0 -0.62357662743E+01  0.53057862671E+02  0.99934698892E+02  0.11331798452E+03  0.00000000000E+00 0.  1.
         11    1    3    3    0    0  0.63527859890E+02  0.87905240252E+01  0.19150756769E+03  0.20196091398E+03  0.00000000000E+00 0. -1.
</event>
<event>
 7    1  0.4274778E-006  0.1091282E+03  0.7561462E-02  0.1262193E+00
         -1   -1    0    0    0  501 -0.00000000000E+00  0.00000000000E+00  0.18583033719E+04  0.18583033719E+04  0.00000000000E+00 0.  1.
          1   -1    0    0  501    0  0.00000000000E+00 -0.00000000000E+00 -0.14403884196E+02  0.14403884196E+02  0.00000000000E+00 0. -1.
         23    2    1    2    0    0  0.48199073926E+01 -0.72607175518E+01  0.17745126801E+03  0.20039153344E+03  0.92692311582E+02 0.  0.
          5    1    1    2  502    0 -0.58816094097E+02 -0.37110434709E+02  0.88416056093E+03  0.88690128379E+03  0.41800000000E+01 0. -1.
         -5    1    1    2    0  502  0.53996186705E+02  0.44371152261E+02  0.78228765873E+03  0.78541443883E+03  0.41800000000E+01 0.  1.
        -11    1    3    3    0    0  0.40719200780E+02  0.40833755693E+01  0.14507354166E+03  0.15073506479E+03  0.00000000000E+00 0.  1.
         11    1    3    3    0    0 -0.35899293387E+02 -0.11344093121E+02  0.32377726358E+02  0.49656468648E+02  0.00000000000E+00 0. -1.
</event>
<event>
 7    1  0.4274778E-006  0.1114262E+03  0.7561462E-02  0.1257951E+00
         -2   -1    0    0    0  501 -0.00000000000E+00  0.00000000000E+00  0.21122479900E+02  0.21122479900E+02  0.00000000000E+00 0.  1.
          2   -1    0    0  501    0  0.00000000000E+00 -0.00000000000E+00 -0.66825575138E+03  0.66825575138E+03  0.00000000000E+00 0. -1.
         23    2    1    2    0    0 -0.33753115331E+02  0.83911259958E+01 -0.37806347220E+03  0.39062206830E+03  0.91890845250E+02 0.  0.
          5    1    1    2  502    0  0.22057435775E+01  0.55677151993E+02 -0.14710570372E+03  0.15736064001E+03  0.41800000000E+01 0.  1.
         -5    1    1    2    0  502  0.31547371754E+02 -0.64068277989E+02 -0.12196409556E+03  0.14139552297E+03  0.41800000000E+01 0.  1.
        -11    1    3    3    0    0  0.24919575086E+02 -0.18362463522E+02 -0.82745936592E+02  0.88346224094E+02  0.00000000000E+00 0.  1.
         11    1    3    3    0    0 -0.58672690417E+02  0.26753589518E+02 -0.29531753561E+03  0.30227584421E+03  0.00000000000E+00 0. -1.
</event>
<event>
 7    1  0.4274778E-006  0.1878611E+03  0.7561462E-02  0.1160405E+00
         -1   -1    0    0    0  501 -0.00000000000E+00  0.00000000000E+00  0.50422084517E+02  0.50422084517E+02  0.00000000000E+00 0.  1.
          1   -1    0    0  501    0  0.00000000000E+00 -0.00000000000E+00 -0.94539117750E+03  0.94539117750E+03  0.00000000000E+00 0. -1.
         23    2    1    2    0    0  0.51503122483E+02 -0.14688408739E+03 -0.67518317521E+03  0.69886084791E+03  0.91140868416E+02 0.  0.
          5    1    1    2  502    0 -0.90647303830E+02  0.87874030983E+02 -0.16219948788E+03  0.20558435077E+03  0.41800000000E+01 0.  1.
         -5    1    1    2    0  502  0.39144181347E+02  0.59010056409E+02 -0.57586429895E+02  0.91368063341E+02  0.41800000000E+01 0.  1.
        -11    1    3    3    0    0  0.93992516769E+01 -0.13415246313E+03 -0.46137015448E+03  0.48057012885E+03  0.00000000000E+00 0.  1.
         11    1    3    3    0    0  0.42103870806E+02 -0.12731624259E+02 -0.21381302073E+03  0.21829071906E+03  0.00000000000E+00 0. -1.
</event>
<event>
 7    1  0.4274778E-006  0.8144537E+02  0.7561462E-02  0.1324999E+00
          3   -1    0    0  501    0  0.00000000000E+00  0.00000000000E+00  0.24762026636E+03  0.24762026636E+03  0.00000000000E+00 0. -1.
         -3   -1    0    0    0  501 -0.00000000000E+00 -0.00000000000E+00 -0.60009997616E+02  0.60009997616E+02  0.00000000000E+00 0.  1.
         23    2    1    2    0    0  0.36151841620E+02 -0.42020120675E+02  0.86107942760E+02  0.13727013179E+03  0.91410421080E+02 0.  0.
          5    1    1    2  502    0 -0.14495459334E+02  0.68052262507E+02  0.72000924144E+01  0.70075263142E+02  0.41800000000E+01 0.  1.
         -5    1    1    2    0  502 -0.21656382286E+02 -0.26032141832E+02  0.94302233566E+02  0.10028486904E+03  0.41800000000E+01 0.  1.
        -11    1    3    3    0    0  0.24770642471E+02 -0.13172622372E+02 -0.14789209168E+02  0.31714719239E+02  0.00000000000E+00 0.  1.
         11    1    3    3    0    0  0.11381199150E+02 -0.28847498303E+02  0.10089715193E+03  0.10555541255E+03  0.00000000000E+00 0. -1.
</event>
<event>
 7    1  0.4274778E-006  0.1017506E+03  0.7561462E-02  0.1276657E+00
          1   -1    0    0  501    0  0.00000000000E+00  0.00000000000E+00  0.10951712508E+03  0.10951712508E+03  0.00000000000E+00 0. -1.
         -1   -1    0    0    0  501 -0.00000000000E+00 -0.00000000000E+00 -0.14018091171E+03  0.14018091171E+03  0.00000000000E+00 0.  1.
         23    2    1    2    0    0 -0.38024872684E+02 -0.37087595216E+02  0.99492957228E+01  0.10785656982E+03  0.93341686860E+02 0.  0.
          5    1    1    2  502    0  0.61072785765E+02  0.83658772406E+01  0.24866189746E+02  0.66600847259E+02  0.41800000000E+01 0. -1.
         -5    1    1    2    0  502 -0.23047913081E+02  0.28721717975E+02 -0.65479272099E+02  0.75240619718E+02  0.41800000000E+01 0. -1.
        -11    1    3    3    0    0 -0.13341667172E+02  0.30181845498E+02  0.14527637450E+02  0.36055459094E+02  0.00000000000E+00 0.  1.
         11    1    3    3    0    0 -0.24683205512E+02 -0.67269440713E+02 -0.45783417267E+01  0.71801110724E+02  0.00000000000E+00 0. -1.
</event>
<event>
 7    1  0.4274778E-006  0.1598322E+03  0.7561462E-02  0.1188886E+00
          3   -1    0    0  501    0  0.00000000000E+00  0.00000000000E+00  0.10893698349E+03  0.10893698349E+03  0.00000000000E+00 0. -1.
         -3   -1    0    0    0  501 -0.00000000000E+00 -0.00000000000E+00 -0.28005854171E+03  0.28005854171E+03  0.00000000000E+00 0.  1.
         23    2    1    2    0    0  0.77969133671E+02 -0.90761087196E+02 -0.74718031239E+01  0.15078504722E+03  0.91452402207E+02 0.  0.
          5    1    1    2  502    0 -0.73513507089E+02  0.12127011597E+03 -0.13740763556E+03  0.19750698079E+03  0.41800000000E+01 0.  1.
         -5    1    1    2    0  502 -0.44556265813E+01 -0.30509028775E+02 -0.26242119543E+02  0.40703497186E+02  0.41800000000E+01 0.  1.
        -11    1    3    3    0    0  0.66564151013E+02 -0.12673602662E+02  0.13584615154E+02  0.69108235207E+02  0.00000000000E+00 0.  1.
         11    1    3    3    0    0  0.11404982658E+02 -0.78087484534E+02 -0.21056418278E+02  0.81676812015E+02  0.00000000000E+00 0. -1.
</event>
<event>
 7    1  0.4274778E-006  0.1312116E+03  0.7561462E-02  0.1225669E+00
          1   -1    0    0  501    0  0.00000000000E+00  0.00000000000E+00  0.10534701870E+04  0.10534701870E+04  0.00000000000E+00 0. -1.
         -1   -1    0    0    0  501 -0.00000000000E+00 -0.00000000000E+00 -0.32517064772E+02  0.32517064772E+02  0.00000000000E+00 0.  1.
         23    2    1    2    0    0  0.11059803780E+03  0.30464824669E+02  0.76459532596E+03  0.77853509565E+03  0.91382991722E+02 0.  0.
          5    1    1    2  502    0 -0.68361446024E+02 -0.27487380668E+02  0.34345752879E+02  0.81399917318E+02  0.41800000000E+01 0.  1.
         -5    1    1    2    0  502 -0.42236591773E+02 -0.29774440010E+01  0.22201204335E+03  0.22605223876E+03  0.41800000000E+01 0.  1.
        -11    1    3    3    0    0  0.99741333936E+02 -0.13627057224E+02  0.55804355797E+03  0.56705082927E+03  0.00000000000E+00 0.  1.
         11    1    3    3    0    0  0.10856703861E+02  0.44091881893E+02  0.20655176799E+03  0.21148426638E+03  0.00000000000E+00 0. -1.
</event>
<event>
 7    1  0.4274778E-006  0.1159108E+03  0.7561462E-02  0.1250000E+00
         -1   -1    0    0    0  501 -0.00000000000E+00  0.00000000000E+00  0.49795859456E+03  0.49795859456E+03  0.00000000000E+00 0.  1.
          1   -1    0    0  501    0  0.00000000000E+00 -0.00000000000E+00 -0.50369230483E+02  0.50369230483E+02  0.00000000000E+00 0. -1.
         23    2    1    2    0    0 -0.69909419368E+02 -0.91631625892E+02  0.20998171010E+03  0.25611301744E+03  0.90652508757E+02 0.  0.
          5    1    1    2  502    0  0.31718499878E+02  0.30193675859E+02  0.21018320262E+03  0.21473744983E+03  0.41800000000E+01 0. -1.
         -5    1    1    2    0  502  0.38190919489E+02  0.61437950032E+02  0.27424451358E+02  0.77477357776E+02  0.41800000000E+01 0. -1.
        -11    1    3    3    0    0 -0.47262688945E+02 -0.57899747413E+02  0.47335776777E+02  0.88469306994E+02  0.00000000000E+00 0. -1.
         11    1    3    3    0    0 -0.22646730423E+02 -0.33731878479E+02  0.16264593332E+03  0.16764371044E+03  0.00000000000E+00 0.  1.
</event>
<event>
 7    1  0.4274778E-006  0.1438905E+03  0.7561462E-02  0.1208188E+00
          2   -1    0    0  501    0  0.00000000000E+00  0.00000000000E+00  0.39399734911E+03  0.39399734911E+03  0.00000000000E+00 0. -1.
         -2   -1    0    0    0  501 -0.00000000000E+00 -0.00000000000E+00 -0.61119336347E+02  0.61119336347E+02  0.00000000000E+00 0.  1.
         23    2    1    2    0    0  0.67614973156E+02 -0.86863880407E+02  0.17189143220E+03  0.22341929248E+03  0.90842707323E+02 0.  0.
          5    1    1    2  502    0  0.30982589155E+02  0.16470092109E+02  0.75142658622E+01  0.36126463380E+02  0.41800000000E+01 0.  1.
         -5    1    1    2    0  502 -0.98597562311E+02  0.70393788297E+02  0.15347231470E+03  0.19557092960E+03  0.41800000000E+01 0.  1.
        -11    1    3    3    0    0  0.80915450336E+02 -0.58345232033E+02  0.85184462736E+02  0.13117876694E+03  0.00000000000E+00 0.  1.
         11    1    3    3    0    0 -0.13300477180E+02 -0.28518648374E+02  0.86706969462E+02  0.92240525538E+02  0.00000000000E+00 0. -1.
</event>
<event>
 7    1  0.4274778E-006  0.9500042E+02  0.7561462E-02  0.1291175E+00
          2   -1    0    0  501    0  0.00000000000E+00  0.00000000000E+00  0.27298133205E+03  0.27298133205E+03  0.00000000000E+00 0.  1.
         -2   -1    0    0    0  501 -0.00000000000E+00 -0.00000000000E+00 -0.44688734500E+02  0.44688734500E+02  0.00000000000E+00 0. -1.
         23    2    1    2    0    0  0.37557009997E+00 -0.16976189013E+02  0.10980868193E+03  0.14453618751E+03  0.92436090501E+02 0.  0.
          5    1    1    2  502    0  0.12717104547E+02 -0.50307596238E+02  0.76861529055E+02  0.92831815861E+02  0.41800000000E+01 0.  1.
         -5    1    1    2    0  502 -0.13092674647E+02  0.67283785250E+02  0.41622386564E+02  0.80302063176E+02  0.41800000000E+01 0.  1.
        -11    1    3    3    0    0  0.22818895651E+00  0.26146058317E+02  0.95633665941E+02  0.99143665945E+02  0.00000000000E+00 0.  1.
         11    1    3    3    0    0  0.14738114346E+00 -0.43122247329E+02  0.14175015988E+02  0.45392521567E+02  0.00000000000E+00 0. -1.
</event>
<event>
 7    1  0.4274778E-006  0.2827890E+03  0.7561462E-02  0.1094175E+00
          1   -1    0    0  501    0  0.00000000000E+00  0.00000000000E+00  0.28004279120E+03  0.28004279120E+03  0.00000000000E+00 0. -1.
         -1   -1    0    0    0  501 -0.00000000000E+00 -0.00000000000E+00 -0.30519253253E+03  0.30519253253E+03  0.00000000000E+00 0.  1.
         23    2    1    2    0    0 -0.22016714348E+03  0.15351810928E+03  0.29911739319E+02  0.28403829548E+03  0.87986704702E+02 0.  0.
          5    1    1    2  502    0 -0.12385462679E+02 -0.29465633530E+02 -0.10142540125E+02  0.33792998761E+02  0.41800000000E+01 0. -1.
         -5    1    1    2    0  502  0.23255260616E+03 -0.12405247575E+03 -0.44918940528E+02  0.26740402949E+03  0.41800000000E+01 0. -1.
        -11    1    3    3    0    0 -0.56494152964E+02  0.54199218508E+02 -0.29375504882E+02  0.83618567873E+02  0.00000000000E+00 0. -1.
         11    1    3    3    0    0 -0.16367299051E+03  0.99318890769E+02  0.59287244202E+02  0.20041972760E+03  0.00000000000E+00 0.  1.
</event>
<event>
 7    1  0.4274778E-006  0.1207612E+03  0.7561462E-02  0.1241847E+00
          1   -1    0    0  501    0  0.00000000000E+00  0.00000000000E+00  0.75404995430E+02  0.75404995430E+02  0.00000000000E+00 0. -1.
         -1   -1    0    0    0  501 -0.00000000000E+00 -0.00000000000E+00 -0.28913201034E+03  0.28913201034E+03  0.00000000000E+00 0.  1.
         23    2    1    2    0    0  0.64129515837E+01 -0.28461967211E+01 -0.10841691008E+01  0.90546182607E+02  0.90267430329E+02 0.  0.
          5    1    1    2  502    0 -0.61611109735E+02  0.51715239069E+02 -0.48545972855E+02  0.94045620181E+02  0.41800000000E+01 0. -1.
         -5    1    1    2    0  502  0.55198158151E+02 -0.48869042348E+02 -0.16409687295E+03  0.17994520298E+03  0.41800000000E+01 0.  1.
        -11    1    3    3    0    0  0.52350036011E+01 -0.44829545989E+02 -0.12852986436E+02  0.46928591675E+02  0.00000000000E+00 0.  1.
         11    1    3    3    0    0  0.11779479826E+01  0.41983349268E+02  0.11768817335E+02  0.43617590932E+02  0.00000000000E+00 0. -1.
</event>
<event>
 7    1  0.4274778E-006  0.1015564E+03  0.7561462E-02  0.1277057E+00
          2   -1    0    0  501    0  0.00000000000E+00  0.00000000000E+00  0.74336438501E+03  0.74336438501E+03  0.00000000000E+00 0. -1.
         -2   -1    0    0    0  501 -0.00000000000E+00 -0.00000000000E+00 -0.16177771810E+02  0.16177771810E+02  0.00000000000E+00 0.  1.
         23    2    1    2    0    0 -0.26380879587E+01 -0.16466774065E+02  0.33816691164E+03  0.35058745326E+03  0.90975755586E+02 0.  0.
          5    1    1    2  502    0 -0.48036821429E+02  0.31562531699E+02  0.29873153113E+03  0.30423959261E+03  0.41800000000E+01 0. -1.
         -5    1    1    2    0  502  0.50674909388E+02 -0.15095757635E+02  0.90288170431E+02  0.10471511094E+03  0.41800000000E+01 0. -1.
        -11    1    3    3    0    0 -0.42555016675E+02 -0.27942156134E+02  0.19190513134E+03  0.19854287438E+03  0.00000000000E+00 0.  1.
         11    1    3    3    0    0  0.39916928716E+02  0.11475382069E+02  0.14626178030E+03  0.15204457888E+03  0.00000000000E+00 0. -1.
</event>
<event>
 7    1  0.4274778E-006  0.1043690E+03  0.7561462E-02  0.1271368E+00
         -1   -1    0    0    0  501 -0.00000000000E+00  0.00000000000E+00  0.63477421130E+02  0.63477421130E+02  0.00000000000E+00 0.  1.
          1   -1    0    0  501    0  0.00000000000E+00 -0.00000000000E+00 -0.26898763556E+03  0.26898763556E+03  0.00000000000E+00 0. -1.
         23    2    1    2    0    0  0.62753160301E+02 -0.67167733353E+00 -0.13800126922E+03  0.17707116273E+03  0.91495552280E+02 0.  0.
          5    1    1    2  502    0 -0.62803401808E+02 -0.49986899099E+02 -0.13993977202E+02  0.81585912743E+02  0.41800000000E+01 0.  1.
         -5    1    1    2    0  502  0.50241507163E-01  0.50658576432E+02 -0.53514968017E+02  0.73807981223E+02  0.41800000000E+01 0.  1.
        -11    1    3    3    0    0  0.41981991647E+02 -0.22305228769E+02 -0.14092225647E+02  0.49584288609E+02  0.00000000000E+00 0.  1.
         11    1    3    3    0    0  0.20771168654E+02  0.21633551436E+02 -0.12390904357E+03  0.12748687412E+03  0.00000000000E+00 0. -1.
</event>
<event>
 7    1  0.4274778E-006  0.1174859E+03  0.7561462E-02  0.1247303E+00
         -2   -1    0    0    0  501 -0.00000000000E+00  0.00000000000E+00  0.10997011317E+03  0.10997011317E+03  0.00000000000E+00 0. -1.
          2   -1    0    0  501    0  0.00000000000E+00 -0.00000000000E+00 -0.15501989244E+03  0.15501989244E+03  0.00000000000E+00 0.  1.
         23    2    1    2    0    0  0.74942949385E+01  0.50512419280E+02 -0.73059186363E+02  0.12700643892E+03  0.90472768598E+02 0.  0.
          5    1    1    2  502    0 -0.63245680394E+02 -0.15969711232E+02  0.30689775928E+02  0.72210681425E+02  0.41800000000E+01 0. -1.
         -5    1    1    2    0  502  0.55751385455E+02 -0.34542708047E+02 -0.26803688328E+01  0.65772885268E+02  0.41800000000E+01 0. -1.
        -11    1    3    3    0    0  0.40970822873E+02  0.56590822250E+02 -0.48976851795E+02  0.85322104414E+02  0.00000000000E+00 0.  1.
         11    1    3    3    0    0 -0.33476527935E+02 -0.60784029704E+01 -0.24082334568E+02  0.41684334509E+02  0.00000000000E+00 0. -1.
</event>
<event>
 7    1  0.4274778E-006  0.1029326E+03  0.7561462E-02  0.1274247E+00
          1   -1    0    0  501    0  0.00000000000E+00  0.00000000000E+00  0.30371863470E+03  0.30371863470E+03  0.00000000000E+00 0. -1.
         -1   -1    0    0    0  501 -0.00000000000E+00 -0.00000000000E+00 -0.51212955228E+02  0.51212955228E+02  0.00000000000E+00 0.  1.
         23    2    1    2    0    0 -0.25469602333E+02 -0.37950182779E+02  0.17055415661E+03  0.19855953224E+03  0.90819879376E+02 0.  0.
          5    1    1    2  502    0 -0.13355200484E+01 -0.37278644542E+02  0.64333695803E+02  0.74483405993E+02  0.41800000000E+01 0. -1.
         -5    1    1    2    0  502  0.26805122381E+02  0.75228827321E+02  0.17617827055E+02  0.81888651693E+02  0.41800000000E+01 0. -1.
        -11    1    3    3    0    0 -0.52215804129E+02 -0.18941574715E+02  0.53974679535E+02  0.77450238763E+02  0.00000000000E+00 0.  1.
         11    1    3    3    0    0  0.26746201796E+02 -0.19008608064E+02  0.11657947708E+03  0.12110929348E+03  0.00000000000E+00 0. -1.
</event>
<event>
 7    1  0.4274778E-006  0.2117951E+03  0.7561462E-02  0.1140152E+00
         -2   -1    0    0    0  501 -0.00000000000E+00  0.00000000000E+00  0.55956886621E+03  0.55956886621E+03  0.00000000000E+00 0.  1.
          2   -1    0    0  501    0  0.00000000000E+00 -0.00000000000E+00 -0.98673965367E+02  0.98673965367E+02  0.00000000000E+00 0. -1.
         23    2    1    2    0    0 -0.15525448173E+03  0.11846871355E+03  0.12447930354E+03  0.24963438766E+03  0.93184978974E+02 0.  0.
          5    1    1    2  502    0  0.54337575192E+02 -0.85721866244E+02  0.74444878337E+02  0.12593777329E+03  0.41800000000E+01 0.  1.
         -5    1    1    2    0  502  0.10091690654E+03 -0.32746847307E+02  0.26197071896E+03  0.28267067062E+03  0.41800000000E+01 0.  1.
        -11    1    3    3    0    0 -0.29606450112E+02  0.78630461237E+02  0.39834635485E+02  0.92984350870E+02  0.00000000000E+00 0. -1.
         11    1    3    3    0    0 -0.12564803162E+03  0.39838252315E+02  0.84644668053E+02  0.15665003679E+03  0.00000000000E+00 0.  1.
</event>
<event>
 7    1  0.4274778E-006  0.1300991E+03  0.7561462E-02  0.1227309E+00
         -1   -1    0    0    0  501 -0.00000000000E+00  0.00000000000E+00  0.11406897607E+03  0.11406897607E+03  0.00000000000E+00 0.  1.
          1   -1    0    0  501    0  0.00000000000E+00 -0.00000000000E+00 -0.16894606321E+03  0.16894606321E+03  0.00000000000E+00 0. -1.
         23    2    1    2    0    0  0.79614038115E+02  0.50192354445E+01 -0.58925201236E+02  0.13459588416E+03  0.90996070803E+02 0.  0.
          5    1    1    2  502    0 -0.51216529286E+01  0.53258889395E+02  0.27362918890E+01  0.53737327080E+02  0.41800000000E+01 0.  1.
         -5    1    1    2    0  502 -0.74492385186E+02 -0.58278124840E+02  0.13118222070E+01  0.94681828051E+02  0.41800000000E+01 0.  1.
        -11    1    3    3    0    0  0.93190460379E+02  0.15801704328E+02 -0.27057168182E+02  0.98317069298E+02  0.00000000000E+00 0.  1.
         11    1    3    3    0    0 -0.13576422264E+02 -0.10782468884E+02 -0.31868033054E+02  0.36278814858E+02  0.00000000000E+00 0. -1.
</event>
<event>
 7    1  0.4274778E-006  0.1101988E+03  0.7561462E-02  0.1260202E+00
         -1   -1    0    0    0  501 -0.00000000000E+00  0.00000000000E+00  0.17600137727E+04  0.17600137727E+04  0.00000000000E+00 0.  1.
          1   -1    0    0  501    0  0.00000000000E+00 -0.00000000000E+00 -0.12935113752E+02  0.12935113752E+02  0.00000000000E+00 0. -1.
         23    2    1    2    0    0  0.12740195911E+02 -0.30405500132E+02  0.23149962184E+03  0.25251875047E+03  0.95324904387E+02 0.  0.
          5    1    1    2  502    0  0.15932232051E+02 -0.40482255388E+02  0.65141232999E+03  0.65287682229E+03  0.41800000000E+01 0. -1.
         -5    1    1    2    0  502 -0.28672427962E+02  0.70887755520E+02  0.86416670709E+03  0.86755331367E+03  0.41800000000E+01 0.  1.
        -11    1    3    3    0    0 -0.38973453097E+02 -0.28644918659E+02  0.12729433514E+03  0.13617381970E+03  0.00000000000E+00 0.  1.
         11    1    3    3    0    0  0.51713649008E+02 -0.17605814725E+01  0.10420528670E+03  0.11634493077E+03  0.00000000000E+00 0. -1.
</event>
<event>
 7    1  0.4274778E-006  0.4475193E+02  0.7561462E-02  0.1475896E+00
          3   -1    0    0  501    0  0.00000000000E+00  0.00000000000E+00  0.75776775799E+02  0.75776775799E+02  0.00000000000E+00 0. -1.
         -3   -1    0    0    0  501 -0.00000000000E+00 -0.00000000000E+00 -0.19917067979E+03  0.19917067979E+03  0.00000000000E+00 0.  1.
         23    2    1    2    0    0 -0.30467641357E+02 -0.10574050668E+02 -0.20877383267E+01  0.97741766696E+02  0.92244276723E+02 0.  0.
          5    1    1    2  502    0  0.17317320642E+01  0.21140249329E+02  0.21858745646E+02  0.30743880673E+02  0.41800000000E+01 0.  1.
         -5    1    1    2    0  502  0.28735909293E+02 -0.10566198661E+02 -0.14316491131E+03  0.14646180822E+03  0.41800000000E+01 0.  1.
        -11    1    3    3    0    0 -0.58070953721E+01 -0.10867352047E+02 -0.45867362088E+02  0.47493542741E+02  0.00000000000E+00 0.  1.
         11    1    3    3    0    0 -0.24660545985E+02  0.29330137884E+00  0.43779623761E+02  0.50248223955E+02  0.00000000000E+00 0. -1.
</event>
<event>
 7    1  0.4274778E-006  0.1167324E+03  0.7561462E-02  0.1248587E+00
          2   -1    0    0  501    0  0.00000000000E+00  0.00000000000E+00  0.59681468419E+02  0.59681468419E+02  0.00000000000E+00 0. -1.
         -2   -1    0    0    0  501 -0.00000000000E+00 -0.00000000000E+00 -0.28359719138E+03  0.28359719138E+03  0.00000000000E+00 0.  1.
         23    2    1    2    0    0  0.45373424294E+02  0.23389990968E+02 -0.32120291512E+02  0.10867603745E+03  0.90404251449E+02 0.  0.
          5    1    1    2  502    0  0.13572736391E+02 -0.60910877449E+02 -0.11339471715E+03  0.12949976233E+03  0.41800000000E+01 0.  1.
         -5    1    1    2    0  502 -0.58946160685E+02  0.37520886481E+02 -0.78400714295E+02  0.10510286002E+03  0.41800000000E+01 0.  1.
        -11    1    3    3    0    0  0.53006177151E+02 -0.20157227413E+02 -0.52784574450E+01  0.56954637618E+02  0.00000000000E+00 0. -1.
         11    1    3    3    0    0 -0.76327528571E+01  0.43547218381E+02 -0.26841834067E+02  0.51721399836E+02  0.00000000000E+00 0.  1.
</event>
<event>
 7    1  0.4274778E-006  0.1594247E+03  0.7561462E-02  0.1189348E+00
         -2   -1    0    0    0  501 -0.00000000000E+00  0.00000000000E+00  0.20062971304E+03  0.20062971304E+03  0.00000000000E+00 0.  1.
          2   -1    0    0  501    0  0.00000000000E+00 -0.00000000000E+00 -0.16349239721E+03  0.16349239721E+03  0.00000000000E+00 0. -1.
         23    2    1    2    0    0  0.98917039813E+02  0.82968534079E+02 -0.48774754828E+02  0.16488112774E+03  0.90213364660E+02 0.  0.
          5    1    1    2  502    0 -0.18936653074E+02  0.26668457590E+02 -0.82749303918E+01  0.33996328226E+02  0.41800000000E+01 0. -1.
         -5    1    1    2    0  502 -0.79980386739E+02 -0.10963699167E+03  0.94187001045E+02  0.16524465429E+03  0.41800000000E+01 0. -1.
        -11    1    3    3    0    0  0.45162707577E+02  0.85060313517E+02 -0.54706977806E+02  0.11076001315E+03  0.00000000000E+00 0. -1.
         11    1    3    3    0    0  0.53754332236E+02 -0.20917794383E+01  0.59322229778E+01  0.54121114593E+02  0.00000000000E+00 0.  1.
</event>
<event>
 7    1  0.4274778E-006  0.1286729E+03  0.7561462E-02  0.1229438E+00
         -1   -1    0    0    0  501 -0.00000000000E+00  0.00000000000E+00  0.35838293478E+03  0.35838293478E+03  0.00000000000E+00 0.  1.
          1   -1    0    0  501    0  0.00000000000E+00 -0.00000000000E+00 -0.48345640281E+03  0.48345640281E+03  0.00000000000E+00 0. -1.
         23    2    1    2    0    0  0.25808491097E+02  0.74339562801E+02 -0.46223237557E+03  0.47750828501E+03  0.90349014446E+02 0.  0.
          5    1    1    2  502    0 -0.40101815764E+02  0.17974047230E+02  0.12159224882E+03  0.12935752539E+03  0.41800000000E+01 0. -1.
         -5    1    1    2    0  502  0.14293324667E+02 -0.92313610031E+02  0.21556665872E+03  0.23497352719E+03  0.41800000000E+01 0.  1.
        -11    1    3    3    0    0  0.17564898763E+02 -0.19067376554E+02 -0.91596762089E+02  0.95194838843E+02  0.00000000000E+00 0.  1.
         11    1    3    3    0    0  0.82435923342E+01  0.93406939355E+02 -0.37063561348E+03  0.38231344616E+03  0.00000000000E+00 0. -1.
</event>
<event>
 7    1  0.4274778E-006  0.1829904E+03  0.7561462E-02  0.1164940E+00
         -1   -1    0    0    0  501 -0.00000000000E+00  0.00000000000E+00  0.15569609092E+03  0.15569609092E+03  0.00000000000E+00 0.  1.
          1   -1    0    0  501    0  0.00000000000E+00 -0.00000000000E+00 -0.28660267505E+03  0.28660267505E+03  0.00000000000E+00 0. -1.
         23    2    1    2    0    0  0.14403290506E+03 -0.96060584926E+02 -0.36138435457E+02  0.19928893120E+03  0.91853023173E+02 0.  0.
          5    1    1    2  502    0 -0.68091529631E+02  0.94150454758E+02 -0.11577821976E+03  0.16408178787E+03  0.41800000000E+01 0. -1.
         -5    1    1    2    0  502 -0.75941375432E+02  0.19101301685E+01  0.21010071093E+02  0.78928046898E+02  0.41800000000E+01 0.  1.
        -11    1    3    3    0    0  0.12110756673E+03 -0.86329671138E+02  0.76384702462E+01  0.14892347386E+03  0.00000000000E+00 0.  1.
         11    1    3    3    0    0  0.22925338334E+02 -0.97309137881E+01 -0.43776905703E+02  0.50365457348E+02  0.00000000000E+00 0. -1.
</event>
<event>
 7    1  0.4274778E-006  0.1077934E+03  0.7561462E-02  0.1264712E+00
         -1   -1    0    0    0  501 -0.00000000000E+00  0.00000000000E+00  0.13917744845E+02  0.13917744845E+02  0.00000000000E+00 0.  1.
          1   -1    0    0  501    0  0.00000000000E+00 -0.00000000000E+00 -0.92437950425E+03  0.92437950425E+03  0.00000000000E+00 0. -1.
         23    2    1    2    0    0  0.27988492127E+02 -0.23692256325E+02 -0.42691382505E+03  0.43748664124E+03  0.88286287412E+02 0.  0.
          5    1    1    2  502    0  0.39273478344E+02  0.37753612062E+02 -0.29658837861E+03  0.30157897814E+03  0.41800000000E+01 0.  1.
         -5    1    1    2    0  502 -0.67261970471E+02 -0.14061355738E+02 -0.18695955574E+03  0.19923162972E+03  0.41800000000E+01 0.  1.
        -11    1    3    3    0    0 -0.89390550965E+01 -0.47392250701E+02 -0.28133676861E+03  0.28544055336E+03  0.00000000000E+00 0.  1.
         11    1    3    3    0    0  0.36927547224E+02  0.23699994376E+02 -0.14557705644E+03  0.15204608788E+03  0.00000000000E+00 0. -1.
</event>
<event>
 7    1  0.4274778E-006  0.1374419E+03  0.7561462E-02  0.1216813E+00
          1   -1    0    0  501    0  0.00000000000E+00  0.00000000000E+00  0.89346742979E+03  0.89346742979E+03  0.00000000000E+00 0. -1.
         -1   -1    0    0    0  501 -0.00000000000E+00 -0.00000000000E+00 -0.21149925504E+02  0.21149925504E+02  0.00000000000E+00 0.  1.
         23    2    1    2    0    0  0.79835596424E+02  0.20674699000E+02  0.40153438998E+03  0.42056736601E+03  0.94052524561E+02 0.  0.
          5    1    1    2  502    0 -0.14116963055E+02  0.50643800794E+02  0.16935869181E+03  0.17738072639E+03  0.41800000000E+01 0. -1.
         -5    1    1    2    0  502 -0.65718633369E+02 -0.71318499794E+02  0.30142442250E+03  0.31666926290E+03  0.41800000000E+01 0. -1.
        -11    1    3    3    0    0  0.25825489954E+02  0.55219239762E+02  0.19238617788E+03  0.20181318542E+03  0.00000000000E+00 0.  1.
         11    1    3    3    0    0  0.54010106470E+02 -0.34544540762E+02  0.20914821210E+03  0.21875418058E+03  0.00000000000E+00 0. -1.
</event>
<event>
 7    1  0.4274778E-006  0.1086189E+03  0.7561462E-02  0.1263149E+00
         -2   -1    0    0    0  501 -0.00000000000E+00  0.00000000000E+00  0.33183403906E+03  0.33183403906E+03  0.00000000000E+00 0. -1.
          2   -1    0    0  501    0  0.00000000000E+00 -0.00000000000E+00 -0.69136076672E+02  0.69136076672E+02  0.00000000000E+00 0.  1.
         23    2    1    2    0    0  0.51365798288E+02 -0.36415983854E+02  0.76105295827E+01  0.10996847437E+03  0.89836385061E+02 0.  0.
          5    1    1    2  502    0  0.41663138463E+02  0.13097855744E+02  0.86845083012E+02  0.97298056379E+02  0.41800000000E+01 0.  1.
         -5    1    1    2    0  502 -0.93028936751E+02  0.23318128110E+02  0.16824234980E+03  0.19370358499E+03  0.41800000000E+01 0.  1.
        -11    1    3    3    0    0  0.89461883359E+01 -0.33692421104E+02  0.42506157804E+02  0.54972602057E+02  0.00000000000E+00 0. -1.
         11    1    3    3    0    0  0.42419609952E+02 -0.27235627501E+01 -0.34895628221E+02  0.54995872313E+02  0.00000000000E+00 0.  1.
</event>
<event>
 7    1  0.4274778E-006  0.9734831E+02  0.7561462E-02  0.1285973E+00
          2   -1    0    0  501    0  0.00000000000E+00  0.00000000000E+00  0.47104349754E+03  0.47104349754E+03  0.00000000000E+00 0. -1.
         -2   -1    0    0    0  501 -0.00000000000E+00 -0.00000000000E+00 -0.40625345101E+02  0.40625345101E+02  0.00000000000E+00 0.  1.
         23    2    1    2    0    0  0.50421569871E+02  0.36765126680E+02  0.30047585615E+03  0.32081100726E+03  0.93487715803E+02 0.  0.
          5    1    1    2  502    0 -0.22200741358E+02 -0.49335644631E+02  0.14602337521E+03  0.15577925811E+03  0.41800000000E+01 0. -1.
         -5    1    1    2    0  502 -0.28220828513E+02  0.12570517951E+02 -0.16081078926E+02  0.35078577265E+02  0.41800000000E+01 0. -1.
        -11    1    3    3    0    0  0.50094364933E+02  0.64418605106E+02  0.25336901215E+03  0.26618613487E+03  0.00000000000E+00 0.  1.
         11    1    3    3    0    0  0.32720493797E+00 -0.27653478426E+02  0.47106843998E+02  0.54624872390E+02  0.00000000000E+00 0. -1.
</event>
<event>
 7    1  0.4274778E-006  0.1565399E+03  0.7561462E-02  0.1192659E+00
          1   -1    0    0  501    0  0.00000000000E+00  0.00000000000E+00  0.21151399038E+03  0.21151399038E+03  0.00000000000E+00 0. -1.
         -1   -1    0    0    0  501 -0.00000000000E+00 -0.00000000000E+00 -0.17796070042E+03  0.17796070042E+03  0.00000000000E+00 0.  1.
         23    2    1    2    0    0 -0.88079918059E+02  0.90277661439E+02  0.11529677505E+03  0.19392984826E+03  0.91691393222E+02 0.  0.
          5    1    1    2  502    0  0.11107175104E+03 -0.63881191596E+02 -0.93175693492E+02  0.15848319399E+03  0.41800000000E+01 0. -1.
         -5    1    1    2    0  502 -0.22991832986E+02 -0.26396469843E+02  0.11432208402E+02  0.37061648549E+02  0.41800000000E+01 0. -1.
        -11    1    3    3    0    0 -0.60494919907E+02  0.58165669887E+01  0.74543391820E+02  0.96177882333E+02  0.00000000000E+00 0. -1.
         11    1    3    3    0    0 -0.27584998152E+02  0.84461094450E+02  0.40753383228E+02  0.97751965931E+02  0.00000000000E+00 0.  1.
</event>
<event>
 7    1  0.4274778E-006  0.2191119E+03  0.7561462E-02  0.1134547E+00
          2   -1    0    0  501    0  0.00000000000E+00  0.00000000000E+00  0.14091989098E+04  0.14091989098E+04  0.00000000000E+00 0. -1.
         -2   -1    0    0    0  501 -0.00000000000E+00 -0.00000000000E+00 -0.46048424040E+02  0.46048424040E+02  0.00000000000E+00 0.  1.
         23    2    1    2    0    0 -0.75959816456E+02 -0.18880821925E+03  0.96896160003E+03  0.99432303794E+03  0.91505650464E+02 0.  0.
          5    1    1    2  502    0 -0.10206267664E+02  0.12932578180E+03  0.17404630532E+03  0.21711497998E+03  0.41800000000E+01 0. -1.
         -5    1    1    2    0  502  0.86166084120E+02  0.59482437451E+02  0.22014258036E+03  0.24380931587E+03  0.41800000000E+01 0. -1.
        -11    1    3    3    0    0 -0.13840143110E+02 -0.27508384433E+02  0.46264397160E+02  0.55575671116E+02  0.00000000000E+00 0.  1.
         11    1    3    3    0    0 -0.62119673346E+02 -0.16129983482E+03  0.92269720288E+03  0.93874736683E+03  0.00000000000E+00 0. -1.
</event>
<event>
 6    1  0.4274778E-006  0.4330220E+03  0.7561462E-02  0.1032910E+00
          2   -1    0    0  501    0  0.00000000000E+00  0.00000000000E+00  0.45924211578E+03  0.45924211578E+03  0.00000000000E+00 0. -1.
         -2   -1    0    0    0  501 -0.00000000000E+00 -0.00000000000E+00 -0.59673293254E+03  0.59673293254E+03  0.00000000000E+00 0.  1.
          5    1    1    2  502    0  0.26200899269E+02  0.15391776270E+03 -0.14186011355E+03  0.21099509239E+03  0.41800000000E+01 0. -1.
         -5    1    1    2    0  502 -0.33402904009E+02 -0.11230161467E+03 -0.57916803019E+02  0.13076404370E+03  0.41800000000E+01 0.  1.
        -11    1    1    2    0    0  0.25204852709E+03 -0.18152974806E+03  0.22964796711E+03  0.38628965588E+03  0.00000000000E+00 0.  1.
         11    1    1    2    0    0 -0.24484652235E+03  0.13991360002E+03 -0.16736186730E+03  0.32792625636E+03  0.00000000000E+00 0. -1.
</event>
<event>
 7    1  0.4274778E-006  0.1984510E+03  0.7561462E-02  0.1151053E+00
          1   -1    0    0  501    0  0.00000000000E+00  0.00000000000E+00  0.24281302671E+03  0.24281302671E+03  0.00000000000E+00 0. -1.
         -1   -1    0    0    0  501 -0.00000000000E+00 -0.00000000000E+00 -0.16899758999E+03  0.16899758999E+03  0.00000000000E+00 0.  1.
         23    2    1    2    0    0 -0.16295594827E+03 -0.41177310756E+02  0.70870157722E+02  0.20227259775E+03  0.87415173436E+02 0.  0.
          5    1    1    2  502    0  0.15709241972E+03  0.74542652684E+02  0.11621151045E+02  0.17431912963E+03  0.41800000000E+01 0. -1.
         -5    1    1    2    0  502  0.58635285496E+01 -0.33365341928E+02 -0.86758720453E+01  0.35218889318E+02  0.41800000000E+01 0. -1.
        -11    1    3    3    0    0 -0.46864805349E+02 -0.54620500614E+02  0.19162209728E+02  0.74477509017E+02  0.00000000000E+00 0.  1.
         11    1    3    3    0    0 -0.11609114292E+03  0.13443189857E+02  0.51707947994E+02  0.12779508873E+03  0.00000000000E+00 0. -1.
</event>
<event>
 7    1  0.4274778E-006  0.1870363E+03  0.7561462E-02  0.1161162E+00
          1   -1    0    0  501    0  0.00000000000E+00  0.00000000000E+00  0.83167114660E+03  0.83167114660E+03  0.00000000000E+00 0. -1.
         -1   -1    0    0    0  501 -0.00000000000E+00 -0.00000000000E+00 -0.49826581377E+02  0.49826581377E+02  0.00000000000E+00 0.  1.
         23    2    1    2    0    0  0.15757807653E+03  0.21820968475E+02  0.49690908949E+03  0.53200706210E+03  0.10395126762E+03 0.  0.
          5    1    1    2  502    0  0.11838335430E+02 -0.28304915284E+02  0.62781443384E+02  0.70002117457E+02  0.41800000000E+01 0. -1.
         -5    1    1    2    0  502 -0.16941641196E+03  0.64839468096E+01  0.22215403235E+03  0.27948854842E+03  0.41800000000E+01 0. -1.
        -11    1    3    3    0    0  0.13118150764E+03  0.44696365328E+02  0.46311148741E+03  0.48340314727E+03  0.00000000000E+00 0. -1.
         11    1    3    3    0    0  0.26396568893E+02 -0.22875396853E+02  0.33797602075E+02  0.48603914827E+02  0.00000000000E+00 0.  1.
</event>
<event>
 7    1  0.4274778E-006  0.1265125E+03  0.7561462E-02  0.1232724E+00
          3   -1    0    0  501    0  0.00000000000E+00  0.00000000000E+00  0.19058497807E+03  0.19058497807E+03  0.00000000000E+00 0. -1.
         -3   -1    0    0    0  501 -0.00000000000E+00 -0.00000000000E+00 -0.94434366085E+02  0.94434366085E+02  0.00000000000E+00 0.  1.
         23    2    1    2    0    0 -0.19863747857E+01 -0.75026972544E+02  0.68764377034E+02  0.13659290071E+03  0.91082867107E+02 0.  0.
          5    1    1    2  502    0  0.20288656591E+02 -0.30475432720E+02  0.17553954441E+02  0.40816605717E+02  0.41800000000E+01 0. -1.
         -5    1    1    2    0  502 -0.18302281805E+02  0.10550240526E+03  0.98322805054E+01  0.10760983773E+03  0.41800000000E+01 0. -1.
        -11    1    3    3    0    0 -0.39414688636E+02 -0.25527798161E+02  0.43686755910E+01  0.47162182791E+02  0.00000000000E+00 0.  1.
         11    1    3    3    0    0  0.37428313851E+02 -0.49499174384E+02  0.64395701443E+02  0.89430717915E+02  0.00000000000E+00 0. -1.
</event>
<event>
 7    1  0.4274778E-006  0.1422374E+03  0.7561462E-02  0.1210350E+00
         -2   -1    0    0    0  501 -0.00000000000E+00  0.00000000000E+00  0.16358703663E+03  0.16358703663E+03  0.00000000000E+00 0.  1.
          2   -1    0    0  501    0  0.00000000000E+00 -0.00000000000E+00 -0.16085709780E+03  0.16085709780E+03  0.00000000000E+00 0. -1.
         23    2    1    2    0    0  0.43372476764E+02 -0.99365938466E+02 -0.52857907739E+02  0.14982363314E+03  0.88872949582E+02 0.  0.
          5    1    1    2  502    0 -0.42870747617E+00 -0.23220184322E+02  0.36218300084E+02  0.43227287805E+02  0.41800000000E+01 0. -1.
         -5    1    1    2    0  502 -0.42943769288E+02  0.12258612279E+03  0.19369546490E+02  0.13139321349E+03  0.41800000000E+01 0. -1.
        -11    1    3    3    0    0  0.59242932735E+02 -0.98602190043E+02 -0.62823325863E+02  0.13106825410E+03  0.00000000000E+00 0. -1.
         11    1    3    3    0    0 -0.15870455971E+02 -0.76374842338E+00  0.99654181239E+01  0.18755379035E+02  0.00000000000E+00 0.  1.
</event>
<event>
 7    1  0.4274778E-006  0.1568717E+03  0.7561462E-02  0.1192275E+00
          2   -1    0    0  501    0  0.00000000000E+00  0.00000000000E+00  0.99016203626E+02  0.99016203626E+02  0.00000000000E+00 0. -1.
         -2   -1    0    0    0  501 -0.00000000000E+00 -0.00000000000E+00 -0.35934870943E+03  0.35934870943E+03  0.00000000000E+00 0.  1.
         23    2    1    2    0    0 -0.62670400910E+02 -0.11715676235E+03 -0.26989248939E+02  0.16213826813E+03  0.88921945090E+02 0.  0.
          5    1    1    2  502    0 -0.26353914153E+01 -0.23947066533E+02 -0.17027118793E+02  0.29796014127E+02  0.41800000000E+01 0.  1.
         -5    1    1    2    0  502  0.65305792325E+02  0.14110382889E+03 -0.21631613808E+03  0.26643063080E+03  0.41800000000E+01 0.  1.
        -11    1    3    3    0    0 -0.19782255671E+02 -0.53082687553E+02 -0.56096434647E+02  0.79724019827E+02  0.00000000000E+00 0.  1.
         11    1    3    3    0    0 -0.42888145239E+02 -0.64074074801E+02  0.29107185708E+02  0.82414248304E+02  0.00000000000E+00 0. -1.
</event>
<event>
 7    1  0.4274778E-006  0.9656645E+02  0.7561462E-02  0.1287687E+00
          1   -1    0    0  501    0  0.00000000000E+00  0.00000000000E+00  0.19358704259E+03  0.19358704259E+03  0.00000000000E+00 0. -1.
         -1   -1    0    0    0  501 -0.00000000000E+00 -0.00000000000E+00 -0.59805651300E+02  0.59805651300E+02  0.00000000000E+00 0.  1.
         23    2    1    2    0    0  0.14255527490E+02  0.71687847523E+01  0.80280979077E+02  0.12367066256E+03  0.92708066741E+02 0.  0.
          5    1    1    2  502    0 -0.25025634967E+02  0.50743111407E+02  0.13259828485E+02  0.58261833238E+02  0.41800000000E+01 0. -1.
         -5    1    1    2    0  502  0.10770107478E+02 -0.57911896159E+02  0.40240583727E+02  0.71460198086E+02  0.41800000000E+01 0.  1.
        -11    1    3    3    0    0 -0.28041883395E+02  0.18454909236E+02  0.15720780443E+01  0.33606581627E+02  0.00000000000E+00 0.  1.
         11    1    3    3    0    0  0.42297410885E+02 -0.11286124484E+02  0.78708901032E+02  0.90064080938E+02  0.00000000000E+00 0. -1.
</event>
<event>
 7    1  0.4274778E-006  0.9621600E+02  0.7561462E-02  0.1288461E+00
         -2   -1    0    0    0  501 -0.00000000000E+00  0.00000000000E+00  0.57077262580E+02  0.57077262580E+02  0.00000000000E+00 0.  1.
          2   -1    0    0  501    0  0.00000000000E+00 -0.00000000000E+00 -0.34435055698E+03  0.34435055698E+03  0.00000000000E+00 0. -1.
         23    2    1    2    0    0  0.70025467170E+02 -0.53474461287E+02 -0.11496891667E+03  0.17099643330E+03  0.90878184063E+02 0.  0.
          5    1    1    2  502    0 -0.45334995518E+02  0.16767863647E+02  0.39353569414E+01  0.48676303313E+02  0.41800000000E+01 0.  1.
         -5    1    1    2    0  502 -0.24690471651E+02  0.36706597640E+02 -0.17623973467E+03  0.18175508295E+03  0.41800000000E+01 0.  1.
        -11    1    3    3    0    0  0.14637099402E+02 -0.39832163902E+02  0.24188002799E+00  0.42437064766E+02  0.00000000000E+00 0.  1.
         11    1    3    3    0    0  0.55388367768E+02 -0.13642297385E+02 -0.11521079670E+03  0.12855936853E+03  0.00000000000E+00 0. -1.
</event>
<event>
 7    1  0.4274778E-006  0.1736517E+03  0.7561462E-02  0.1174092E+00
         -1   -1    0    0    0  501 -0.00000000000E+00  0.00000000000E+00  0.62066049793E+02  0.62066049793E+02  0.00000000000E+00 0.  1.
          1   -1    0    0  501    0  0.00000000000E+00 -0.00000000000E+00 -0.52566669682E+03  0.52566669682E+03  0.00000000000E+00 0. -1.
         23    2    1    2    0    0  0.13993306146E+03 -0.12022481143E+01 -0.27377068303E+03  0.32077636029E+03  0.91456980815E+02 0.  0.
          5    1    1    2  502    0 -0.26728604656E+02 -0.54525092762E+02 -0.71809217806E+02  0.94135223001E+02  0.41800000000E+01 0.  1.
         -5    1    1    2    0  502 -0.11320445681E+03  0.55727340877E+02 -0.11802074619E+03  0.17282116332E+03  0.41800000000E+01 0.  1.
        -11    1    3    3    0    0  0.14393885447E+03  0.13858552425E+02 -0.26728900290E+03  0.30389778606E+03  0.00000000000E+00 0. -1.
         11    1    3    3    0    0 -0.40057930124E+01 -0.15060800539E+02 -0.64816801372E+01  0.16878574227E+02  0.00000000000E+00 0.  1.
</event>
<event>
 7    1  0.4274778E-006  0.1175341E+03  0.7561462E-02  0.1247221E+00
          1   -1    0    0  501    0  0.00000000000E+00  0.00000000000E+00  0.27665761435E+03  0.27665761435E+03  0.00000000000E+00 0. -1.
         -1   -1    0    0    0  501 -0.00000000000E+00 -0.00000000000E+00 -0.66329927888E+02  0.66329927888E+02  0.00000000000E+00 0.  1.
         23    2    1    2    0    0  0.44219228952E+02 -0.66809921607E+02  0.11127944753E+03  0.16444456346E+03  0.90774408143E+02 0.  0.
          5    1    1    2  502    0 -0.33802414770E+02  0.10133165881E+03  0.51331852162E+02  0.11858810972E+03  0.41800000000E+01 0.  1.
         -5    1    1    2    0  502 -0.10416814182E+02 -0.34521737203E+02  0.47716386767E+02  0.59954869054E+02  0.41800000000E+01 0.  1.
        -11    1    3    3    0    0 -0.28082753938E+01 -0.34947055649E+02  0.10074457094E+03  0.10667076302E+03  0.00000000000E+00 0. -1.
         11    1    3    3    0    0  0.47027504346E+02 -0.31862865958E+02  0.10534876588E+02  0.57773800436E+02  0.00000000000E+00 0.  1.
</event>
<event>
 7    1  0.4274778E-006  0.1073174E+03  0.7561462E-02  0.1265620E+00
          2   -1    0    0  501    0  0.00000000000E+00  0.00000000000E+00  0.73540061443E+02  0.73540061443E+02  0.00000000000E+00 0. -1.
         -2   -1    0    0    0  501 -0.00000000000E+00 -0.00000000000E+00 -0.16529087265E+03  0.16529087265E+03  0.00000000000E+00 0.  1.
         23    2    1    2    0    0  0.18058187800E+02  0.28043791433E+01 -0.39257844124E+02  0.10194244015E+03  0.92288244585E+02 0.  0.
          5    1    1    2  502    0 -0.53769010428E+02  0.41726772614E+02 -0.37065105064E+02  0.77611368037E+02  0.41800000000E+01 0.  1.
         -5    1    1    2    0  502  0.35710822628E+02 -0.44531151757E+02 -0.15427862016E+02  0.59277125909E+02  0.41800000000E+01 0.  1.
        -11    1    3    3    0    0 -0.34675342674E+02  0.97571607959E+01 -0.32144698990E+02  0.48279014587E+02  0.00000000000E+00 0.  1.
         11    1    3    3    0    0  0.52733530474E+02 -0.69527816526E+01 -0.71131451342E+01  0.53663425558E+02  0.00000000000E+00 0. -1.
</event>
<event>
 7    1  0.4274778E-006  0.1428014E+03  0.7561462E-02  0.1209608E+00
         -1   -1    0    0    0  501 -0.00000000000E+00  0.00000000000E+00  0.27419525899E+03  0.27419525899E+03  0.00000000000E+00 0.  1.
          1   -1    0    0  501    0  0.00000000000E+00 -0.00000000000E+00 -0.16724034728E+03  0.16724034728E+03  0.00000000000E+00 0. -1.
         23    2    1    2    0    0 -0.64720602222E+02  0.95415171544E+02 -0.97032919524E+02  0.17582143593E+03  0.90581336653E+02 0.  0.
          5    1    1    2  502    0  0.95937888111E+02 -0.43903386648E+02  0.10033057442E+03  0.14565466795E+03  0.41800000000E+01 0. -1.
         -5    1    1    2    0  502 -0.31217285889E+02 -0.51511784896E+02  0.10365725681E+03  0.11995950238E+03  0.41800000000E+01 0. -1.
        -11    1    3    3    0    0 -0.64478726460E+02  0.73719437460E+02 -0.11251276875E+03  0.14916831016E+03  0.00000000000E+00 0. -1.
         11    1    3    3    0    0 -0.24187576198E+00  0.21695734084E+02  0.15479849225E+02  0.26653125771E+02  0.00000000000E+00 0.  1.
</event>
<event>
 7    1  0.4274778E-006  0.1245920E+03  0.7561462E-02  0.1235708E+00
         -1   -1    0    0    0  501 -0.00000000000E+00  0.00000000000E+00  0.19401860418E+03  0.19401860418E+03  0.00000000000E+00 0.  1.
          1   -1    0    0  501    0  0.00000000000E+00 -0.00000000000E+00 -0.11400234059E+03  0.11400234059E+03  0.00000000000E+00 0. -1.
         23    2    1    2    0    0  0.47305637561E+02  0.46339067393E+02 -0.43385906542E+02  0.12024289049E+03  0.90503498907E+02 0.  0.
          5    1    1    2  502    0  0.26889032847E+02 -0.56334474581E+02  0.78496509550E+02  0.10037812274E+03  0.41800000000E+01 0. -1.
         -5    1    1    2    0  502 -0.74194670408E+02  0.99954071883E+01  0.44905660573E+02  0.87399931541E+02  0.41800000000E+01 0. -1.
        -11    1    3    3    0    0  0.28379810264E+02  0.73355566338E+02 -0.25293462768E+02  0.82620893254E+02  0.00000000000E+00 0.  1.
         11    1    3    3    0    0  0.18925827297E+02 -0.27016498945E+02 -0.18092443774E+02  0.37621997233E+02  0.00000000000E+00 0. -1.
</event>
<event>
 7    1  0.4274778E-006  0.1226210E+03  0.7561462E-02  0.1238835E+00
         -1   -1    0    0    0  501 -0.00000000000E+00  0.00000000000E+00  0.43820047229E+03  0.43820047229E+03  0.00000000000E+00 0.  1.
          1   -1    0    0  501    0  0.00000000000E+00 -0.00000000000E+00 -0.38717699793E+02  0.38717699793E+02  0.00000000000E+00 0. -1.
         23    2    1    2    0    0  0.63908562615E+02  0.21862710414E+02  0.13352135275E+03  0.17534639268E+03  0.91411833499E+02 0.  0.
          5    1    1    2  502    0 -0.59246461383E+02  0.41091855801E+02  0.18653385914E+03  0.20002759011E+03  0.41800000000E+01 0. -1.
         -5    1    1    2    0  502 -0.46621012314E+01 -0.62954566215E+02  0.79427560601E+02  0.10154418929E+03  0.41800000000E+01 0. -1.
        -11    1    3    3    0    0  0.16627115922E+02  0.51387936189E+02  0.88560386001E+02  0.10373101242E+03  0.00000000000E+00 0.  1.
         11    1    3    3    0    0  0.47281446693E+02 -0.29525225776E+02  0.44960966754E+02  0.71615380261E+02  0.00000000000E+00 0. -1.
</event>
<event>
 7    1  0.4274778E-006  0.5481695E+02  0.7561462E-02  0.1420967E+00
          1   -1    0    0  501    0  0.00000000000E+00  0.00000000000E+00  0.13983776362E+03  0.13983776362E+03  0.00000000000E+00 0. -1.
         -1   -1    0    0    0  501 -0.00000000000E+00 -0.00000000000E+00 -0.10740699956E+03  0.10740699956E+03  0.00000000000E+00 0.  1.
         23    2    1    2    0    0  0.11497503875E+02  0.39866524991E+02 -0.16435613495E+02  0.10668471748E+03  0.96901842822E+02 0.  0.
          5    1    1    2  502    0 -0.18823587007E+02 -0.30618856709E+01  0.85649453944E+02  0.87846479340E+02  0.41800000000E+01 0. -1.
         -5    1    1    2    0  502  0.73260831314E+01 -0.36804639320E+02 -0.36783076387E+02  0.52713566357E+02  0.41800000000E+01 0. -1.
        -11    1    3    3    0    0  0.22572609011E+02  0.29808344199E+02 -0.54324798095E+02  0.65948796422E+02  0.00000000000E+00 0.  1.
         11    1    3    3    0    0 -0.11075105135E+02  0.10058180792E+02  0.37889184600E+02  0.40735921056E+02  0.00000000000E+00 0. -1.
</event>
<event>
 7    1  0.4274778E-006  0.2427996E+03  0.7561462E-02  0.1117942E+00
          2   -1    0    0  501    0  0.00000000000E+00  0.00000000000E+00  0.10873965625E+04  0.10873965625E+04  0.00000000000E+00 0. -1.
         -2   -1    0    0    0  501 -0.00000000000E+00 -0.00000000000E+00 -0.64373000318E+02  0.64373000318E+02  0.00000000000E+00 0.  1.
         23    2    1    2    0    0  0.20064241460E+03  0.12737415166E+03  0.58737508895E+03  0.63998068416E+03  0.89912334676E+02 0.  0.
          5    1    1    2  502    0 -0.24508763266E+02  0.50806768090E+01  0.14398364960E+03  0.14620279240E+03  0.41800000000E+01 0.  1.
         -5    1    1    2    0  502 -0.17613365134E+03 -0.13245482847E+03  0.29166482360E+03  0.36558608623E+03  0.41800000000E+01 0.  1.
        -11    1    3    3    0    0  0.90198927983E+02  0.76210001312E+02  0.39552659013E+03  0.41277729396E+03  0.00000000000E+00 0. -1.
         11    1    3    3    0    0  0.11044348662E+03  0.51164150345E+02  0.19184849882E+03  0.22720339020E+03  0.00000000000E+00 0.  1.
</event>
<event>
 7    1  0.4274778E-006  0.7754095E+02  0.7561462E-02  0.1336178E+00
          2   -1    0    0  501    0  0.00000000000E+00  0.00000000000E+00  0.43879523952E+03  0.43879523952E+03  0.00000000000E+00 0. -1.
         -2   -1    0    0    0  501 -0.00000000000E+00 -0.00000000000E+00 -0.33305442981E+02  0.33305442981E+02  0.00000000000E+00 0.  1.
         23    2    1    2    0    0 -0.31736316125E+02  0.17833917590E+02  0.25111422546E+03  0.27009982150E+03  0.92576006444E+02 0.  0.
          5    1    1    2  502    0  0.41220660762E+02 -0.18167820925E+02  0.17401075719E+03  0.17979551888E+03  0.41800000000E+01 0. -1.
         -5    1    1    2    0  502 -0.94843446364E+01  0.33390333481E+00 -0.19635186117E+02  0.22205342115E+02  0.41800000000E+01 0. -1.
        -11    1    3    3    0    0  0.14675927664E+01  0.51888281284E+02  0.13236990918E+03  0.14218417781E+03  0.00000000000E+00 0. -1.
         11    1    3    3    0    0 -0.33203908892E+02 -0.34054363694E+02  0.11874431628E+03  0.12791564370E+03  0.00000000000E+00 0.  1.
</event>
<event>
 7    1  0.4274778E-006  0.2690738E+03  0.7561462E-02  0.1101811E+00
          2   -1    0    0  501    0  0.00000000000E+00  0.00000000000E+00  0.13472250584E+03  0.13472250584E+03  0.00000000000E+00 0. -1.
         -2   -1    0    0    0  501 -0.00000000000E+00 -0.00000000000E+00 -0.57187798158E+03  0.57187798158E+03  0.00000000000E+00 0.  1.
         23    2    1    2    0    0  0.10281224727E+03 -0.23326622338E+03 -0.22907475580E+03  0.35456554652E+03  0.90873504796E+02 0.  0.
          5    1    1    2  502    0  0.27580660453E+02  0.61265657329E+02 -0.60713421969E+02  0.90651892458E+02  0.41800000000E+01 0.  1.
         -5    1    1    2    0  502 -0.13039290773E+03  0.17200056605E+03 -0.14736729797E+03  0.26138304845E+03  0.41800000000E+01 0.  1.
        -11    1    3    3    0    0  0.46464681529E+02 -0.11042259789E+03 -0.16779125516E+03  0.20616988641E+03  0.00000000000E+00 0.  1.
         11    1    3    3    0    0  0.56347565745E+02 -0.12284362548E+03 -0.61283500642E+02  0.14839566011E+03  0.00000000000E+00 0. -1.
</event>
<event>
 7    1  0.4274778E-006  0.8303587E+02  0.7561462E-02  0.1320650E+00
         -2   -1    0    0    0  501 -0.00000000000E+00  0.00000000000E+00  0.12327718839E+03  0.12327718839E+03  0.00000000000E+00 0.  1.
          2   -1    0    0  501    0  0.00000000000E+00 -0.00000000000E+00 -0.12928919769E+03  0.12928919769E+03  0.00000000000E+00 0. -1.
         23    2    1    2    0    0  0.14733783765E+02  0.29845191706E+02 -0.11376041959E+02  0.97388401920E+02  0.90814462757E+02 0.  0.
          5    1    1    2  502    0 -0.35884412948E+01 -0.50209035232E+02 -0.64220574680E+02  0.81704214959E+02  0.41800000000E+01 0. -1.
         -5    1    1    2    0  502 -0.11145342470E+02  0.20363843526E+02  0.69584607338E+02  0.73473769199E+02  0.41800000000E+01 0.  1.
        -11    1    3    3    0    0  0.17719039321E+02  0.59544399121E+02 -0.21698274579E+02  0.65805128530E+02  0.00000000000E+00 0. -1.
         11    1    3    3    0    0 -0.29852555553E+01 -0.29699207414E+02  0.10322232620E+02  0.31583273390E+02  0.00000000000E+00 0.  1.
</event>
<event>
 7    1  0.4274778E-006  0.1974618E+03  0.7561462E-02  0.1151898E+00
         -1   -1    0    0    0  501 -0.00000000000E+00  0.00000000000E+00  0.14097092715E+03  0.14097092715E+03  0.00000000000E+00 0.  1.
          1   -1    0    0  501    0  0.00000000000E+00 -0.00000000000E+00 -0.34198345844E+03  0.34198345844E+03  0.00000000000E+00 0. -1.
         23    2    1    2    0    0 -0.68194497712E+02 -0.17005318222E+03 -0.15347369342E+03  0.25607101873E+03  0.91921802440E+02 0.  0.
          5    1    1    2  502    0  0.77342499954E+02  0.97774332247E+02 -0.78748558794E+02  0.14751437305E+03  0.41800000000E+01 0.  1.
         -5    1    1    2    0  502 -0.91480022414E+01  0.72278849968E+02  0.31209720921E+02  0.79368993805E+02  0.41800000000E+01 0.  1.
        -11    1    3    3    0    0 -0.30269547761E+02 -0.87476845277E+01 -0.20075331836E+01  0.31572103125E+02  0.00000000000E+00 0.  1.
         11    1    3    3    0    0 -0.37924949952E+02 -0.16130549769E+03 -0.15146616023E+03  0.22449891561E+03  0.00000000000E+00 0. -1.
</event>
<event>
 7    1  0.4274778E-006  0.1297321E+03  0.7561462E-02  0.1227854E+00
          2   -1    0    0  501    0  0.00000000000E+00  0.00000000000E+00  0.21893112014E+03  0.21893112014E+03  0.00000000000E+00 0. -1.
         -2   -1    0    0    0  501 -0.00000000000E+00 -0.00000000000E+00 -0.80673784410E+02  0.80673784410E+02  0.00000000000E+00 0.  1.
         23    2    1    2    0    0  0.76654831785E+02  0.12245578087E+01  0.60620733069E+02  0.13361081334E+03  0.91101665105E+02 0.  0.
          5    1    1    2  502    0  0.17971014353E+02  0.39138836391E+02  0.16888627845E+02  0.46448939938E+02  0.41800000000E+01 0.  1.
         -5    1    1    2    0  502 -0.94625846138E+02 -0.40363394199E+02  0.60747974814E+02  0.11954515127E+03  0.41800000000E+01 0.  1.
        -11    1    3    3    0    0  0.66811751677E+02 -0.35190409144E+02  0.19874632351E+02  0.78084416301E+02  0.00000000000E+00 0.  1.
         11    1    3    3    0    0  0.98430801084E+01  0.36414966953E+02  0.40746100717E+02  0.55526397037E+02  0.00000000000E+00 0. -1.
</event>
<event>
 7    1  0.4274778E-006  0.2342703E+03  0.7561462E-02  0.1123670E+00
         -1   -1    0    0    0  501 -0.00000000000E+00  0.00000000000E+00  0.21742807492E+03  0.21742807492E+03  0.00000000000E+00 0.  1.
          1   -1    0    0  501    0  0.00000000000E+00 -0.00000000000E+00 -0.25367491814E+03  0.25367491814E+03  0.00000000000E+00 0. -1.
         23    2    1    2    0    0 -0.20789085866E+03 -0.51600315132E+00 -0.13365205351E+02  0.22740087352E+03  0.91179236600E+02 0.  0.
          5    1    1    2  502    0  0.27384476476E+02 -0.47383188382E+02 -0.14231092158E+02  0.56701609123E+02  0.41800000000E+01 0.  1.
         -5    1    1    2    0  502  0.18050638219E+03  0.47899191533E+02 -0.86505457087E+01  0.18700051043E+03  0.41800000000E+01 0.  1.
        -11    1    3    3    0    0 -0.65422421914E+02  0.42521401308E+02 -0.62000984417E+00  0.78029143725E+02  0.00000000000E+00 0.  1.
         11    1    3    3    0    0 -0.14246843675E+03 -0.43037404459E+02 -0.12745195507E+02  0.14937172979E+03  0.00000000000E+00 0. -1.
</event>
<event>
 7    1  0.4274778E-006  0.1078933E+03  0.7561462E-02  0.1264522E+00
          1   -1    0    0  501    0  0.00000000000E+00  0.00000000000E+00  0.40865439407E+02  0.40865439407E+02  0.00000000000E+00 0. -1.
         -1   -1    0    0    0  501 -0.00000000000E+00 -0.00000000000E+00 -0.37084849706E+03  0.37084849706E+03  0.00000000000E+00 0.  1.
         23    2    1    2    0    0 -0.90604712100E+01  0.29246130841E+02 -0.65082523305E+02  0.11717409072E+03  0.92501915592E+02 0.  0.
          5    1    1    2  502    0  0.23299836942E+02 -0.73862893176E+02 -0.12666632503E+03  0.14852757214E+03  0.41800000000E+01 0.  1.
         -5    1    1    2    0  502 -0.14239365732E+02  0.44616762335E+02 -0.13823420931E+03  0.14601227360E+03  0.41800000000E+01 0.  1.
        -11    1    3    3    0    0  0.38293366406E+02  0.71806704732E+01 -0.48816553909E+02  0.62457984876E+02  0.00000000000E+00 0.  1.
         11    1    3    3    0    0 -0.47353837616E+02  0.22065460368E+02 -0.16265969396E+02  0.54716105843E+02  0.00000000000E+00 0. -1.
</event>
<event>
 7    1  0.4274778E-006  0.1142167E+03  0.7561462E-02  0.1252955E+00
         -1   -1    0    0    0  501 -0.00000000000E+00  0.00000000000E+00  0.68441499445E+02  0.68441499445E+02  0.00000000000E+00 0.  1.
          1   -1    0    0  501    0  0.00000000000E+00 -0.00000000000E+00 -0.26656720511E+03  0.26656720511E+03  0.00000000000E+00 0. -1.
         23    2    1    2    0    0  0.56631792820E+02 -0.28548792974E+02 -0.15093232636E+03  0.18704326552E+03  0.90456743800E+02 0.  0.
          5    1    1    2  502    0 -0.31894019160E+02 -0.43432179814E+02 -0.47172251269E+02  0.71737552170E+02  0.41800000000E+01 0.  1.
         -5    1    1    2    0  502 -0.24737773661E+02  0.71980972789E+02 -0.21128038225E-01  0.76227886864E+02  0.41800000000E+01 0.  1.
        -11    1    3    3    0    0  0.73033692504E+02 -0.10523479833E+02 -0.14383910220E+03  0.16166122352E+03  0.00000000000E+00 0. -1.
         11    1    3    3    0    0 -0.16401899683E+02 -0.18025313142E+02 -0.70932241544E+01  0.25382041998E+02  0.00000000000E+00 0.  1.
</event>
<event>
 7    1  0.4274778E-006  0.1014405E+03  0.7561462E-02  0.1277296E+00
          2   -1    0    0  501    0  0.00000000000E+00  0.00000000000E+00  0.11107109842E+03  0.11107109842E+03  0.00000000000E+00 0. -1.
         -2   -1    0    0    0  501 -0.00000000000E+00 -0.00000000000E+00 -0.11843804345E+03  0.11843804345E+03  0.00000000000E+00 0.  1.
         23    2    1    2    0    0 -0.12976887321E+02 -0.33786135780E+02 -0.79710863580E+01  0.99289685933E+02  0.92114064830E+02 0.  0.
          5    1    1    2  502    0  0.62843778440E+00 -0.43805627191E+02  0.21258042746E+02  0.48874376610E+02  0.41800000000E+01 0. -1.
         -5    1    1    2    0  502  0.12348449537E+02  0.77591762971E+02 -0.20653901423E+02  0.81345079328E+02  0.41800000000E+01 0. -1.
        -11    1    3    3    0    0  0.24867368464E+02  0.56864128842E+01 -0.30834916686E+02  0.40018912939E+02  0.00000000000E+00 0.  1.
         11    1    3    3    0    0 -0.37844255785E+02 -0.39472548664E+02  0.22863830329E+02  0.59270772994E+02  0.00000000000E+00 0. -1.
</event>
<event>
 7    1  0.4274778E-006  0.1588022E+03  0.7561462E-02  0.1190056E+00
         -2   -1    0    0    0  501 -0.00000000000E+00  0.00000000000E+00  0.42946278303E+02  0.42946278303E+02  0.00000000000E+00 0.  1.
          2   -1    0    0  501    0  0.00000000000E+00 -0.00000000000E+00 -0.71967449875E+03  0.71967449875E+03  0.00000000000E+00 0. -1.
         23    2    1    2    0    0  0.15114248072E+02  0.96462043733E+02 -0.37979751145E+03  0.40197860458E+03  0.88358827856E+02 0.  0.
          5    1    1    2  502    0  0.77834897431E+02 -0.75131712414E+02 -0.14025986542E+03  0.17718167997E+03  0.41800000000E+01 0. -1.
         -5    1    1    2    0  502 -0.92949145503E+02 -0.21330331319E+02 -0.15667084358E+03  0.18346049251E+03  0.41800000000E+01 0.  1.
        -11    1    3    3    0    0  0.36813740583E+02  0.45718808319E+02 -0.29514431447E+03  0.30092462062E+03  0.00000000000E+00 0.  1.
         11    1    3    3    0    0 -0.21699492511E+02  0.50743235414E+02 -0.84653196975E+02  0.10105398396E+03  0.00000000000E+00 0. -1.
</event>
<event>
 7    1  0.4274778E-006  0.1654477E+03  0.7561462E-02  0.1182680E+00
          1   -1    0    0  501    0  0.00000000000E+00  0.00000000000E+00  0.65674694057E+03  0.65674694057E+03  0.00000000000E+00 0. -1.
         -1   -1    0    0    0  501 -0.00000000000E+00 -0.00000000000E+00 -0.65945151781E+02  0.65945151781E+02  0.00000000000E+00 0.  1.
         23    2    1    2    0    0  0.13853826105E+03  0.69373673186E+02  0.43275370800E+03  0.46846402074E+03  0.90427930631E+02 0.  0.
          5    1    1    2  502    0 -0.73103578341E+02 -0.49717676397E+02  0.16312530825E+03  0.18558911365E+03  0.41800000000E+01 0. -1.
         -5    1    1    2    0  502 -0.65434682708E+02 -0.19655996789E+02 -0.50772274640E+01  0.68638957958E+02  0.41800000000E+01 0. -1.
        -11    1    3    3    0    0  0.48113159045E+02 -0.14861992483E+02  0.78400066408E+02  0.93178996059E+02  0.00000000000E+00 0.  1.
         11    1    3    3    0    0  0.90425102003E+02  0.84235665669E+02  0.35435364159E+03  0.37528502469E+03  0.00000000000E+00 0. -1.
</event>
<event>
 7    1  0.4274778E-006  0.1315690E+03  0.7561462E-02  0.1225146E+00
         -1   -1    0    0    0  501 -0.00000000000E+00  0.00000000000E+00  0.65295007512E+03  0.65295007512E+03  0.00000000000E+00 0.  1.
          1   -1    0    0  501    0  0.00000000000E+00 -0.00000000000E+00 -0.31014193836E+02  0.31014193836E+02  0.00000000000E+00 0. -1.
         23    2    1    2    0    0 -0.61176952766E+02  0.62393115254E+02  0.20800067206E+03  0.24280000767E+03  0.89733180973E+02 0.  0.
          5    1    1    2  502    0 -0.31816945185E+02 -0.40934347949E+02  0.95971726628E+02  0.10916035707E+03  0.41800000000E+01 0.  1.
         -5    1    1    2    0  502  0.92993897951E+02 -0.21458767305E+02  0.31796348260E+03  0.33200390422E+03  0.41800000000E+01 0.  1.
        -11    1    3    3    0    0 -0.65118417156E+02  0.76781559961E+02  0.13565533820E+03  0.16893249239E+03  0.00000000000E+00 0. -1.
         11    1    3    3    0    0  0.39414643900E+01 -0.14388444707E+02  0.72345333861E+02  0.73867515283E+02  0.00000000000E+00 0.  1.
</event>
<event>
 7    1  0.4274778E-006  0.9494580E+02  0.7561462E-02  0.1291298E+00
          2   -1    0    0  501    0  0.00000000000E+00  0.00000000000E+00  0.16362264742E+03  0.16362264742E+03  0.00000000000E+00 0. -1.
         -2   -1    0    0    0  501 -0.00000000000E+00 -0.00000000000E+00 -0.10450908949E+03  0.10450908949E+03  0.00000000000E+00 0.  1.
         23    2    1    2    0    0 -0.49731984122E+02 -0.33080970340E+02  0.68917559484E+02  0.12916672102E+03  0.91470164380E+02 0.  0.
          5    1    1    2  502    0  0.18983942170E+02  0.54744801497E+02  0.44216873118E+02  0.73006764205E+02  0.41800000000E+01 0.  1.
         -5    1    1    2    0  502  0.30748041952E+02 -0.21663831157E+02 -0.54020874678E+02  0.65958251684E+02  0.41800000000E+01 0.  1.
        -11    1    3    3    0    0 -0.53430699132E+02  0.68351104228E+01  0.55060819837E+01  0.54146793839E+02  0.00000000000E+00 0.  1.
         11    1    3    3    0    0  0.36987150099E+01 -0.39916080763E+02  0.63411477500E+02  0.75019927185E+02  0.00000000000E+00 0. -1.
</event>
<event>
 7    1  0.4274778E-006  0.1529006E+03  0.7561462E-02  0.1196953E+00
          2   -1    0    0  501    0  0.00000000000E+00  0.00000000000E+00  0.11502701812E+03  0.11502701812E+03  0.00000000000E+00 0. -1.
         -2   -1    0    0    0  501 -0.00000000000E+00 -0.00000000000E+00 -0.26457215763E+03  0.26457215763E+03  0.00000000000E+00 0.  1.
         23    2    1    2    0    0 -0.99490491476E+02 -0.22601518917E+02 -0.20742817256E+02  0.13815823289E+03  0.90819856288E+02 0.  0.
          5    1    1    2  502    0  0.13272898016E+03  0.66119176335E+01 -0.30569217467E+02  0.13642818289E+03  0.41800000000E+01 0. -1.
         -5    1    1    2    0  502 -0.33238488688E+02  0.15989601284E+02 -0.98233104790E+02  0.10501275997E+03  0.41800000000E+01 0.  1.
        -11    1    3    3    0    0 -0.10618305924E+03  0.59949056345E+01 -0.97458676545E+01  0.10679776636E+03  0.00000000000E+00 0.  1.
         11    1    3    3    0    0  0.66925677643E+01 -0.28596424552E+02 -0.10996949602E+02  0.31360466530E+02  0.00000000000E+00 0. -1.
</event>
<event>
 7    1  0.4274778E-006  0.1157308E+03  0.7561462E-02  0.1250311E+00
          1   -1    0    0  501    0  0.00000000000E+00  0.00000000000E+00  0.84491860265E+03  0.84491860265E+03  0.00000000000E+00 0. -1.
         -1   -1    0    0    0  501 -0.00000000000E+00 -0.00000000000E+00 -0.19284515004E+02  0.19284515004E+02  0.00000000000E+00 0.  1.
         23    2    1    2    0    0  0.59439663690E+02  0.14332810783E+02  0.46156973000E+03  0.47442296199E+03  0.91060573958E+02 0.  0.
          5    1    1    2  502    0  0.36344568384E+02  0.28601653099E+01  0.58407854466E+02  0.68978678300E+02  0.41800000000E+01 0. -1.
         -5    1    1    2    0  502 -0.95784232074E+02 -0.17192976093E+02  0.30565650318E+03  0.32080147736E+03  0.41800000000E+01 0. -1.
        -11    1    3    3    0    0 -0.18327048984E+02  0.24582251504E+00  0.26424377576E+02  0.32158807246E+02  0.00000000000E+00 0.  1.
         11    1    3    3    0    0  0.77766712674E+02  0.14086988268E+02  0.43514535242E+03  0.44226415475E+03  0.00000000000E+00 0. -1.
</event>
<event>
 7    1  0.4274778E-006  0.1569112E+03  0.7561462E-02  0.1192229E+00
         -1   -1    0    0    0  501 -0.00000000000E+00  0.00000000000E+00  0.57204988629E+03  0.57204988629E+03  0.00000000000E+00 0.  1.
          1   -1    0    0  501    0  0.00000000000E+00 -0.00000000000E+00 -0.55680463474E+02  0.55680463474E+02  0.00000000000E+00 0. -1.
         23    2    1    2    0    0 -0.11760019922E+03  0.11365505814E+02  0.10981477963E+03  0.18626353828E+03  0.93144180108E+02 0.  0.
          5    1    1    2  502    0  0.11371965472E+03 -0.55506911496E+02  0.27944905826E+03  0.30679378360E+03  0.41800000000E+01 0. -1.
         -5    1    1    2    0  502  0.38805444938E+01  0.44141405682E+02  0.12710558493E+03  0.13467302789E+03  0.41800000000E+01 0. -1.
        -11    1    3    3    0    0 -0.76234854527E+02  0.45752211994E+02  0.38379281108E+02  0.96840008082E+02  0.00000000000E+00 0. -1.
         11    1    3    3    0    0 -0.41365344688E+02 -0.34386706180E+02  0.71435498524E+02  0.89423530195E+02  0.00000000000E+00 0.  1.
</event>
<event>
 7    1  0.4274778E-006  0.1764897E+03  0.7561462E-02  0.1171244E+00
          2   -1    0    0  501    0  0.00000000000E+00  0.00000000000E+00  0.12880292241E+04  0.12880292241E+04  0.00000000000E+00 0. -1.
         -2   -1    0    0    0  501 -0.00000000000E+00 -0.00000000000E+00 -0.34252649765E+02  0.34252649765E+02  0.00000000000E+00 0.  1.
         23    2    1    2    0    0 -0.15719849111E+03  0.74403541458E+02  0.78013679644E+03  0.80244556042E+03  0.71121049487E+02 0.  0.
          5    1    1    2  502    0  0.14588993501E+03 -0.57381858426E+02  0.47369227795E+03  0.49897735160E+03  0.41800000000E+01 0.  1.
         -5    1    1    2    0  502  0.11308556097E+02 -0.17021683032E+02 -0.52500036126E-01  0.20858961875E+02  0.41800000000E+01 0.  1.
        -11    1    3    3    0    0 -0.10906732988E+03  0.40160565134E+02  0.63838100187E+03  0.64887507040E+03  0.00000000000E+00 0.  1.
         11    1    3    3    0    0 -0.48131161229E+02  0.34242976324E+02  0.14175579457E+03  0.15357049001E+03  0.00000000000E+00 0. -1.
</event>
<event>
 7    1  0.4274778E-006  0.1277847E+03  0.7561462E-02  0.1230780E+00
          4   -1    0    0  501    0  0.00000000000E+00  0.00000000000E+00  0.11175088589E+03  0.11175088589E+03  0.00000000000E+00 0. -1.
         -4   -1    0    0    0  501 -0.00000000000E+00 -0.00000000000E+00 -0.39724805402E+03  0.39724805402E+03  0.00000000000E+00 0.  1.
         23    2    1    2    0    0  0.52399576688E+02 -0.65633752615E+02  0.56035392683E+02  0.13570946473E+03  0.90684003363E+02 0.  0.
          5    1    1    2  502    0 -0.80983136232E+02  0.24620699838E+02 -0.28673857068E+03  0.29899987882E+03  0.41800000000E+01 0.  1.
         -5    1    1    2    0  502  0.28583559544E+02  0.41013052778E+02 -0.54793990128E+02  0.74289596368E+02  0.41800000000E+01 0.  1.
        -11    1    3    3    0    0  0.66834593381E+02 -0.15664960871E+02  0.46282796506E+02  0.82791008714E+02  0.00000000000E+00 0.  1.
         11    1    3    3    0    0 -0.14435016693E+02 -0.49968791745E+02  0.97525961767E+01  0.52918456020E+02  0.00000000000E+00 0. -1.
</event>
<event>
 7    1  0.4274778E-006  0.7669539E+02  0.7561462E-02  0.1338700E+00
         -2   -1    0    0    0  501 -0.00000000000E+00  0.00000000000E+00  0.26987720169E+03  0.26987720169E+03  0.00000000000E+00 0.  1.
          2   -1    0    0  501    0  0.00000000000E+00 -0.00000000000E+00 -0.66167056029E+02  0.66167056029E+02  0.00000000000E+00 0. -1.
         23    2    1    2    0    0 -0.69108907351E+02 -0.21033701700E+02  0.57940100773E+02  0.13082574985E+03  0.92411383841E+02 0.  0.
          5    1    1    2  502    0  0.17765955479E+02 -0.31274064744E+00  0.14828207035E+03  0.14940137807E+03  0.41800000000E+01 0. -1.
         -5    1    1    2    0  502  0.51342951873E+02  0.21346442347E+02 -0.25120254608E+01  0.55817129806E+02  0.41800000000E+01 0. -1.
        -11    1    3    3    0    0 -0.59568220547E+02 -0.38138089627E+01 -0.96159553823E+01  0.60459777008E+02  0.00000000000E+00 0. -1.
         11    1    3    3    0    0 -0.95406868047E+01 -0.17219892737E+02  0.67556056155E+02  0.70365972841E+02  0.00000000000E+00 0.  1.
</event>
<event>
 7    1  0.4274778E-006  0.1432978E+03  0.7561462E-02  0.1208959E+00
          3   -1    0    0  501    0  0.00000000000E+00  0.00000000000E+00  0.23145021342E+03  0.23145021342E+03  0.00000000000E+00 0. -1.
         -3   -1    0    0    0  501 -0.00000000000E+00 -0.00000000000E+00 -0.10321179861E+03  0.10321179861E+03  0.00000000000E+00 0.  1.
         23    2    1    2    0    0 -0.55803937568E+02 -0.90730627004E+02  0.89307805400E+02  0.16581302398E+03  0.90398831247E+02 0.  0.
          5    1    1    2  502    0 -0.24081757800E+02  0.66432143759E+02 -0.10750657650E+02  0.71597554589E+02  0.41800000000E+01 0. -1.
         -5    1    1    2    0  502  0.79885695368E+02  0.24298483245E+02  0.49681267062E+02  0.97251433457E+02  0.41800000000E+01 0. -1.
        -11    1    3    3    0    0  0.33185450611E+01  0.12669244053E+02 -0.48665686477E+01  0.13971613243E+02  0.00000000000E+00 0. -1.
         11    1    3    3    0    0 -0.59122482629E+02 -0.10339987106E+03  0.94174374047E+02  0.15184141074E+03  0.00000000000E+00 0.  1.
</event>
<event>
 7    1  0.4274778E-006  0.1972778E+03  0.7561462E-02  0.1152056E+00
         -1   -1    0    0    0  501 -0.00000000000E+00  0.00000000000E+00  0.76291858103E+02  0.76291858103E+02  0.00000000000E+00 0.  1.
          1   -1    0    0  501    0  0.00000000000E+00 -0.00000000000E+00 -0.71800973207E+03  0.71800973207E+03  0.00000000000E+00 0. -1.
         23    2    1    2    0    0  0.11190697765E+01 -0.18907393344E+03 -0.45356761724E+03  0.49968711454E+03  0.90627944925E+02 0.  0.
          5    1    1    2  502    0 -0.19855157028E+02  0.11239983437E+03 -0.18259999277E+03  0.21537915356E+03  0.41800000000E+01 0.  1.
         -5    1    1    2    0  502  0.18736087252E+02  0.76674099078E+02 -0.55502639542E+01  0.79235322079E+02  0.41800000000E+01 0.  1.
        -11    1    3    3    0    0  0.34897796900E+02 -0.85195245343E+02 -0.27863710697E+03  0.29345310262E+03  0.00000000000E+00 0. -1.
         11    1    3    3    0    0 -0.33778727123E+02 -0.10387868810E+03 -0.17493051026E+03  0.20623401191E+03  0.00000000000E+00 0.  1.
</event>
<event>
 7    1  0.4274778E-006  0.1905020E+03  0.7561462E-02  0.1158009E+00
         -2   -1    0    0    0  501 -0.00000000000E+00  0.00000000000E+00  0.92522781096E+03  0.92522781096E+03  0.00000000000E+00 0.  1.
          2   -1    0    0  501    0  0.00000000000E+00 -0.00000000000E+00 -0.48709621510E+02  0.48709621510E+02  0.00000000000E+00 0. -1.
         23    2    1    2    0    0 -0.11845122248E+03  0.13055890094E+03  0.32210468210E+03  0.37887591132E+03  0.93376716748E+02 0.  0.
          5    1    1    2  502    0  0.82844021919E+02 -0.13808913127E+03  0.32489218377E+03  0.36263500054E+03  0.41800000000E+01 0. -1.
         -5    1    1    2    0  502  0.35607200562E+02  0.75302303229E+01  0.22952132358E+03  0.23242652060E+03  0.41800000000E+01 0. -1.
        -11    1    3    3    0    0 -0.61618557760E+02  0.10322648963E+03  0.13179035282E+03  0.17838512247E+03  0.00000000000E+00 0.  1.
         11    1    3    3    0    0 -0.56832664721E+02  0.27332411312E+02  0.19031432928E+03  0.20049078885E+03  0.00000000000E+00 0. -1.
</event>
<event>
 7    1  0.4274778E-006  0.1404595E+03  0.7561462E-02  0.1212712E+00
          2   -1    0    0  501    0  0.00000000000E+00  0.00000000000E+00  0.12823022173E+04  0.12823022173E+04  0.00000000000E+00 0. -1.
         -2   -1    0    0    0  501 -0.00000000000E+00 -0.00000000000E+00 -0.17087989834E+02  0.17087989834E+02  0.00000000000E+00 0.  1.
         23    2    1    2    0    0 -0.89347301205E+02 -0.36847592902E+02  0.70090290338E+03  0.71335683325E+03  0.90952769285E+02 0.  0.
          5    1    1    2  502    0  0.18290344049E+02 -0.40841157858E+02  0.26342018926E+03  0.26722687995E+03  0.41800000000E+01 0.  1.
         -5    1    1    2    0  502  0.71056957156E+02  0.77688750760E+02  0.30089113481E+03  0.31880649392E+03  0.41800000000E+01 0.  1.
        -11    1    3    3    0    0 -0.82557874944E+02 -0.62833942178E+02  0.60185999988E+03  0.61073674072E+03  0.00000000000E+00 0.  1.
         11    1    3    3    0    0 -0.67894262610E+01  0.25986349276E+02  0.99042903500E+02  0.10262009253E+03  0.00000000000E+00 0. -1.
</event>
<event>
 7    1  0.4274778E-006  0.1280024E+03  0.7561462E-02  0.1230450E+00
          1   -1    0    0  501    0  0.00000000000E+00  0.00000000000E+00  0.48887930941E+03  0.48887930941E+03  0.00000000000E+00 0. -1.
         -1   -1    0    0    0  501 -0.00000000000E+00 -0.00000000000E+00 -0.40488380235E+02  0.40488380235E+02  0.00000000000E+00 0.  1.
         23    2    1    2    0    0 -0.14834049335E+01  0.87737462968E+02  0.23067524739E+03  0.26338307157E+03  0.91975593138E+02 0.  0.
          5    1    1    2  502    0 -0.37115994420E+02 -0.10412663523E+03  0.15512116690E+03  0.19052559415E+03  0.41800000000E+01 0. -1.
         -5    1    1    2    0  502  0.38599399354E+02  0.16389172262E+02  0.62594514882E+02  0.75459023922E+02  0.41800000000E+01 0. -1.
        -11    1    3    3    0    0 -0.27547631438E+02  0.36238082268E+02  0.29865781546E+02  0.54442956493E+02  0.00000000000E+00 0.  1.
         11    1    3    3    0    0  0.26064226505E+02  0.51499380700E+02  0.20080946585E+03  0.20894011508E+03  0.00000000000E+00 0. -1.
</event>
<event>
 7    1  0.4274778E-006  0.1015977E+03  0.7561462E-02  0.1276972E+00
         -2   -1    0    0    0  501 -0.00000000000E+00  0.00000000000E+00  0.16988658847E+03  0.16988658847E+03  0.00000000000E+00 0.  1.
          2   -1    0    0  501    0  0.00000000000E+00 -0.00000000000E+00 -0.92978439631E+02  0.92978439631E+02  0.00000000000E+00 0. -1.
         23    2    1    2    0    0  0.13033801691E+02  0.45292665275E+02 -0.19838198751E+02  0.97851800116E+02  0.83427304536E+02 0.  0.
          5    1    1    2  502    0  0.43729566621E+02 -0.25099761282E+02  0.91292372416E+02  0.10437453078E+03  0.41800000000E+01 0.  1.
         -5    1    1    2    0  502 -0.56763368312E+02 -0.20192903993E+02  0.54539751700E+01  0.60638697206E+02  0.41800000000E+01 0.  1.
        -11    1    3    3    0    0  0.46209379423E+02  0.19364224439E+02  0.25430230398E+01  0.50167189487E+02  0.00000000000E+00 0. -1.
         11    1    3    3    0    0 -0.33175577732E+02  0.25928440835E+02 -0.22381221790E+02  0.47684610629E+02  0.00000000000E+00 0.  1.
</event>
<event>
 7    1  0.4274778E-006  0.1469218E+03  0.7561462E-02  0.1204307E+00
         -2   -1    0    0    0  501 -0.00000000000E+00  0.00000000000E+00  0.16962440936E+04  0.16962440936E+04  0.00000000000E+00 0. -1.
          2   -1    0    0  501    0  0.00000000000E+00 -0.00000000000E+00 -0.18043032409E+02  0.18043032409E+02  0.00000000000E+00 0.  1.
         23    2    1    2    0    0 -0.13419941966E+03  0.54373407430E+00  0.65353043486E+03  0.67332247087E+03  0.90836890084E+02 0.  0.
          5    1    1    2  502    0  0.24524988609E+02  0.15596163949E+02  0.37732287618E+02  0.47811225932E+02  0.41800000000E+01 0.  1.
         -5    1    1    2    0  502  0.10967443105E+03 -0.16139898023E+02  0.98693833868E+03  0.99315342918E+03  0.41800000000E+01 0.  1.
        -11    1    3    3    0    0 -0.79010708483E+02  0.37162099549E+02  0.26031456803E+03  0.27456763834E+03  0.00000000000E+00 0.  1.
         11    1    3    3    0    0 -0.55188711179E+02 -0.36618365474E+02  0.39321586683E+03  0.39875483252E+03  0.00000000000E+00 0. -1.
</event>
<event>
 7    1  0.4274778E-006  0.2054486E+03  0.7561462E-02  0.1145222E+00
         -1   -1    0    0    0  501 -0.00000000000E+00  0.00000000000E+00  0.33226612963E+03  0.33226612963E+03  0.00000000000E+00 0.  1.
          1   -1    0    0  501    0  0.00000000000E+00 -0.00000000000E+00 -0.14516540252E+03  0.14516540252E+03  0.00000000000E+00 0. -1.
         23    2    1    2    0    0  0.18834184018E+03 -0.30716646788E+02  0.83728869917E+02  0.22761133200E+03  0.91543616080E+02 0.  0.
          5    1    1    2  502    0 -0.53387216455E+02  0.40645973946E+02 -0.16243908666E+02  0.69163769761E+02  0.41800000000E+01 0. -1.
         -5    1    1    2    0  502 -0.13495462372E+03 -0.99293271576E+01  0.11961576585E+03  0.18065643039E+03  0.41800000000E+01 0.  1.
        -11    1    3    3    0    0  0.91911282415E+02 -0.57233141522E+02  0.63677808259E+02  0.12561122397E+03  0.00000000000E+00 0.  1.
         11    1    3    3    0    0  0.96430557761E+02  0.26516494734E+02  0.20051061658E+02  0.10200010802E+03  0.00000000000E+00 0. -1.
</event>
<event>
 7    1  0.4274778E-006  0.1286875E+03  0.7561462E-02  0.1229416E+00
          1   -1    0    0  501    0  0.00000000000E+00  0.00000000000E+00  0.41540875772E+03  0.41540875772E+03  0.00000000000E+00 0. -1.
         -1   -1    0    0    0  501 -0.00000000000E+00 -0.00000000000E+00 -0.52671131629E+02  0.52671131629E+02  0.00000000000E+00 0.  1.
         23    2    1    2    0    0 -0.52291148910E+02 -0.50501767899E+02  0.27372477246E+03  0.29768070215E+03  0.91672005338E+02 0.  0.
          5    1    1    2  502    0 -0.19394707139E+02 -0.28723766827E+02  0.69060217801E+01  0.35586162796E+02  0.41800000000E+01 0. -1.
         -5    1    1    2    0  502  0.71685856049E+02  0.79225534726E+02  0.82106831850E+02  0.13481302440E+03  0.41800000000E+01 0.  1.
        -11    1    3    3    0    0  0.24124459899E+01  0.23439315403E+02  0.38828351708E+02  0.45418743913E+02  0.00000000000E+00 0.  1.
         11    1    3    3    0    0 -0.54703594900E+02 -0.73941083302E+02  0.23489642075E+03  0.25226195824E+03  0.00000000000E+00 0. -1.
</event>
<event>
 7    1  0.4274778E-006  0.1070360E+03  0.7561462E-02  0.1266159E+00
         -2   -1    0    0    0  501 -0.00000000000E+00  0.00000000000E+00  0.76674625541E+02  0.76674625541E+02  0.00000000000E+00 0.  1.
          2   -1    0    0  501    0  0.00000000000E+00 -0.00000000000E+00 -0.25896616867E+03  0.25896616867E+03  0.00000000000E+00 0. -1.
         23    2    1    2    0    0  0.38405179243E+02  0.72724985996E+02 -0.12550419335E+03  0.17551525309E+03  0.91051744295E+02 0.  0.
          5    1    1    2  502    0  0.26770581305E+02 -0.22744513200E+02 -0.68461509321E+02  0.77061193623E+02  0.41800000000E+01 0. -1.
         -5    1    1    2    0  502 -0.65175760548E+02 -0.49980472797E+02  0.11674159540E+02  0.83064347496E+02  0.41800000000E+01 0. -1.
        -11    1    3    3    0    0 -0.77107085344E+01  0.37878420869E+02 -0.10862821899E+03  0.11530099633E+03  0.00000000000E+00 0. -1.
         11    1    3    3    0    0  0.46115887778E+02  0.34846565127E+02 -0.16875974356E+02  0.60214256760E+02  0.00000000000E+00 0.  1.
</event>
<event>
 7    1  0.4274778E-006  0.1023665E+03  0.7561462E-02  0.1275397E+00
         -1   -1    0    0    0  501 -0.00000000000E+00  0.00000000000E+00  0.26011575386E+03  0.26011575386E+03  0.00000000000E+00 0.  1.
          1   -1    0    0  501    0  0.00000000000E+00 -0.00000000000E+00 -0.64210054442E+02  0.64210054442E+02  0.00000000000E+00 0. -1.
         23    2    1    2    0    0  0.11644060362E+02 -0.27323558576E+01  0.18952560509E+01  0.93171038394E+02  0.92380736572E+02 0.  0.
          5    1    1    2  502    0 -0.66786714163E+02  0.13875492913E+02  0.92287478151E+02  0.11483660355E+03  0.41800000000E+01 0.  1.
         -5    1    1    2    0  502  0.55142653802E+02 -0.11143137056E+02  0.10172296522E+03  0.11631816636E+03  0.41800000000E+01 0.  1.
        -11    1    3    3    0    0 -0.36299844272E+01 -0.39760092726E+02 -0.22935623107E+02  0.46044376072E+02  0.00000000000E+00 0. -1.
         11    1    3    3    0    0  0.15274044789E+02  0.37027736869E+02  0.24830879158E+02  0.47126662322E+02  0.00000000000E+00 0.  1.
</event>
<event>
 7    1  0.4274778E-006  0.1080708E+03  0.7561462E-02  0.1264185E+00
          1   -1    0    0  501    0  0.00000000000E+00  0.00000000000E+00  0.40596662265E+03  0.40596662265E+03  0.00000000000E+00 0. -1.
         -1   -1    0    0    0  501 -0.00000000000E+00 -0.00000000000E+00 -0.36259041428E+02  0.36259041428E+02  0.00000000000E+00 0.  1.
         23    2    1    2    0    0  0.44897297682E+02 -0.16769864368E+02  0.21215273597E+03  0.23541828893E+03  0.90088798939E+02 0.  0.
          5    1    1    2  502    0 -0.33054807831E+02 -0.53131179008E+02  0.67884812944E+02  0.92419493247E+02  0.41800000000E+01 0.  1.
         -5    1    1    2    0  502 -0.11842489851E+02  0.69901043376E+02  0.89670032307E+02  0.11438788190E+03  0.41800000000E+01 0.  1.
        -11    1    3    3    0    0 -0.16337111212E+02 -0.13314902959E+02  0.84907590409E+01  0.22721814026E+02  0.00000000000E+00 0.  1.
         11    1    3    3    0    0  0.61234408894E+02 -0.34549614094E+01  0.20366197693E+03  0.21269647491E+03  0.00000000000E+00 0. -1.
</event>
<event>
 7    1  0.4274778E-006  0.1374732E+03  0.7561462E-02  0.1216770E+00
          4   -1    0    0  501    0  0.00000000000E+00  0.00000000000E+00  0.58937006791E+03  0.58937006791E+03  0.00000000000E+00 0. -1.
         -4   -1    0    0    0  501 -0.00000000000E+00 -0.00000000000E+00 -0.50227349610E+02  0.50227349610E+02  0.00000000000E+00 0.  1.
         23    2    1    2    0    0 -0.37205884327E+02  0.10345537759E+03  0.39238741734E+03  0.41762352041E+03  0.91401458045E+02 0.  0.
          5    1    1    2  502    0  0.28305205161E+02  0.22589812497E+02  0.54067899956E+02  0.65209619487E+02  0.41800000000E+01 0.  1.
         -5    1    1    2    0  502  0.89006791652E+01 -0.12604519009E+03  0.92687400998E+02  0.15676427762E+03  0.41800000000E+01 0.  1.
        -11    1    3    3    0    0 -0.14488900127E+02  0.15482277205E+02  0.80316855577E+01  0.22674591666E+02  0.00000000000E+00 0.  1.
         11    1    3    3    0    0 -0.22716984200E+02  0.87973100384E+02  0.38435573178E+03  0.39494892875E+03  0.00000000000E+00 0. -1.
</event>
<event>
 7    1  0.4274778E-006  0.1069792E+03  0.7561462E-02  0.1266268E+00
          1   -1    0    0  501    0  0.00000000000E+00  0.00000000000E+00  0.89644190631E+02  0.89644190631E+02  0.00000000000E+00 0. -1.
         -1   -1    0    0    0  501 -0.00000000000E+00 -0.00000000000E+00 -0.19259660774E+03  0.19259660774E+03  0.00000000000E+00 0.  1.
         23    2    1    2    0    0 -0.35728809384E+02  0.45612608014E+01  0.17609015126E+02  0.10481419619E+03  0.96843096759E+02 0.  0.
          5    1    1    2  502    0  0.23929028130E+02 -0.64008766208E+02 -0.74556304322E+02  0.10122171433E+03  0.41800000000E+01 0.  1.
         -5    1    1    2    0  502  0.11799781254E+02  0.59447505407E+02 -0.46005127914E+02  0.76204887842E+02  0.41800000000E+01 0.  1.
        -11    1    3    3    0    0 -0.42579472298E+02  0.34018801400E+02 -0.18645117292E+02  0.57601481827E+02  0.00000000000E+00 0.  1.
         11    1    3    3    0    0  0.68506629135E+01 -0.29457540599E+02  0.36254132418E+02  0.47212714367E+02  0.00000000000E+00 0. -1.
</event>
<event>
 7    1  0.4274778E-006  0.9935395E+02  0.7561462E-02  0.1281660E+00
         -2   -1    0    0    0  501 -0.00000000000E+00  0.00000000000E+00  0.62211522435E+02  0.62211522435E+02  0.00000000000E+00 0. -1.
          2   -1    0    0  501    0  0.00000000000E+00 -0.00000000000E+00 -0.40333753669E+03  0.40333753669E+03  0.00000000000E+00 0.  1.
         23    2    1    2    0    0  0.77655321719E+02 -0.72213091597E+01 -0.28377267088E+03  0.30737705964E+03  0.88719962587E+02 0.  0.
          5    1    1    2  502    0 -0.60073234762E+02 -0.32055956453E+02  0.18658074993E+02  0.70724635321E+02  0.41800000000E+01 0. -1.
         -5    1    1    2    0  502 -0.17582086957E+02  0.39277265612E+02 -0.76011418373E+02  0.87447364162E+02  0.41800000000E+01 0. -1.
        -11    1    3    3    0    0  0.32440343176E+02 -0.22552990284E+02 -0.31232626743E+02  0.50363580189E+02  0.00000000000E+00 0.  1.
         11    1    3    3    0    0  0.45214978543E+02  0.15331681124E+02 -0.25254004413E+03  0.25701347945E+03  0.00000000000E+00 0. -1.
</event>
<event>
 7    1  0.4274779E-006  0.1551981E+03  0.7561462E-02  0.1194227E+00
         -1   -1    0    0    0  501 -0.00000000000E+00  0.00000000000E+00  0.52734022860E+02  0.52734022860E+02  0.00000000000E+00 0.  1.
          1   -1    0    0  501    0  0.00000000000E+00 -0.00000000000E+00 -0.74687505762E+03  0.74687505762E+03  0.00000000000E+00 0. -1.
         23    2    1    2    0    0  0.13407148994E+03  0.62449717695E+02 -0.48168415191E+03  0.51210176603E+03  0.91397291586E+02 0.  0.
          5    1    1    2  502    0 -0.12074647672E+02  0.13598661693E+02  0.11079834388E+02  0.21701517143E+02  0.41800000000E+01 0.  1.
         -5    1    1    2    0  502 -0.12199684227E+03 -0.76048379388E+02 -0.22353671724E+03  0.26580579731E+03  0.41800000000E+01 0.  1.
        -11    1    3    3    0    0  0.75871333041E+02  0.34215598624E+02 -0.39649468464E+03  0.40513602816E+03  0.00000000000E+00 0. -1.
         11    1    3    3    0    0  0.58200156900E+02  0.28234119070E+02 -0.85189467270E+02  0.10696573786E+03  0.00000000000E+00 0.  1.
</event>
<event>
 7    1  0.4274778E-006  0.1475964E+03  0.7561462E-02  0.1203458E+00
          2   -1    0    0  501    0  0.00000000000E+00  0.00000000000E+00  0.20182240833E+03  0.20182240833E+03  0.00000000000E+00 0. -1.
         -2   -1    0    0    0  501 -0.00000000000E+00 -0.00000000000E+00 -0.16246015075E+03  0.16246015075E+03  0.00000000000E+00 0.  1.
         23    2    1    2    0    0  0.24209912424E+02 -0.13303937348E+03  0.70008804161E+02  0.17754130885E+03  0.91291231397E+02 0.  0.
          5    1    1    2  502    0 -0.22112532563E+02  0.43488803356E+02  0.47185998851E+02  0.68001698517E+02  0.41800000000E+01 0. -1.
         -5    1    1    2    0  502 -0.20973798616E+01  0.89550570128E+02 -0.77832545430E+02  0.11873955171E+03  0.41800000000E+01 0. -1.
        -11    1    3    3    0    0  0.38651597068E+02 -0.21789451875E+02  0.43778860420E+02  0.62332293304E+02  0.00000000000E+00 0. -1.
         11    1    3    3    0    0 -0.14441684643E+02 -0.11124992161E+03  0.26229943741E+02  0.11520901554E+03  0.00000000000E+00 0.  1.
</event>
<event>
 7    1  0.4274778E-006  0.1594716E+03  0.7561462E-02  0.1189295E+00
          1   -1    0    0  501    0  0.00000000000E+00  0.00000000000E+00  0.16273061199E+03  0.16273061199E+03  0.00000000000E+00 0. -1.
         -1   -1    0    0    0  501 -0.00000000000E+00 -0.00000000000E+00 -0.24135018415E+03  0.24135018415E+03  0.00000000000E+00 0.  1.
         23    2    1    2    0    0 -0.14163050873E+03  0.56050020388E+02  0.10192474868E+02  0.18791593423E+03  0.10957967879E+03 0.  0.
          5    1    1    2  502    0  0.12980982373E+03 -0.70037144912E+02 -0.11277382424E+03  0.18571806546E+03  0.41800000000E+01 0. -1.
         -5    1    1    2    0  502  0.11820685004E+02  0.13987124524E+02  0.23961777219E+02  0.30446796447E+02  0.41800000000E+01 0. -1.
        -11    1    3    3    0    0 -0.84932574506E+02  0.28690527142E+02 -0.48430896166E+02  0.10189327879E+03  0.00000000000E+00 0.  1.
         11    1    3    3    0    0 -0.56697934228E+02  0.27359493246E+02  0.58623371034E+02  0.86022655434E+02  0.00000000000E+00 0. -1.
</event>
<event>
 7    1  0.4274778E-006  0.1858935E+03  0.7561462E-02  0.1162218E+00
         -1   -1    0    0    0  501 -0.00000000000E+00  0.00000000000E+00  0.49920682428E+02  0.49920682428E+02  0.00000000000E+00 0.  1.
          1   -1    0    0  501    0  0.00000000000E+00 -0.00000000000E+00 -0.84749142512E+03  0.84749142512E+03  0.00000000000E+00 0. -1.
         23    2    1    2    0    0  0.17973955761E+02 -0.15187316940E+03 -0.56405248069E+03  0.59152636935E+03  0.91431515338E+02 0.  0.
          5    1    1    2  502    0 -0.47978737112E+02  0.60230856306E+01 -0.53808640330E+02  0.72464328808E+02  0.41800000000E+01 0. -1.
         -5    1    1    2    0  502  0.30004781351E+02  0.14585008377E+03 -0.17970962167E+03  0.23342140939E+03  0.41800000000E+01 0. -1.
        -11    1    3    3    0    0  0.39127266723E+02 -0.26768519699E+02 -0.10395675064E+03  0.11425630246E+03  0.00000000000E+00 0.  1.
         11    1    3    3    0    0 -0.21153310962E+02 -0.12510464970E+03 -0.46009573005E+03  0.47727006689E+03  0.00000000000E+00 0. -1.
</event>
<event>
 7    1  0.4274778E-006  0.1490149E+03  0.7561462E-02  0.1201689E+00
          2   -1    0    0  501    0  0.00000000000E+00  0.00000000000E+00  0.84118210660E+03  0.84118210660E+03  0.00000000000E+00 0. -1.
         -2   -1    0    0    0  501 -0.00000000000E+00 -0.00000000000E+00 -0.31738762466E+02  0.31738762466E+02  0.00000000000E+00 0.  1.
         23    2    1    2    0    0 -0.36644715165E+02 -0.10980301363E+03  0.47919508825E+03  0.50128709311E+03  0.90891584628E+02 0.  0.
          5    1    1    2  502    0  0.50395211198E+02  0.12833413782E+03  0.31440471160E+03  0.34333238023E+03  0.41800000000E+01 0.  1.
         -5    1    1    2    0  502 -0.13750496033E+02 -0.18531124188E+02  0.15843544286E+02  0.28301395732E+02  0.41800000000E+01 0.  1.
        -11    1    3    3    0    0  0.14356210757E+02 -0.71319374788E+02  0.16003301734E+03  0.17579283446E+03  0.00000000000E+00 0.  1.
         11    1    3    3    0    0 -0.51000925922E+02 -0.38483638842E+02  0.31916207091E+03  0.32549425865E+03  0.00000000000E+00 0. -1.
</event>
<event>
 7    1  0.4274778E-006  0.8453261E+02  0.7561462E-02  0.1316659E+00
         -1   -1    0    0    0  501 -0.00000000000E+00  0.00000000000E+00  0.76292163862E+03  0.76292163862E+03  0.00000000000E+00 0.  1.
          1   -1    0    0  501    0  0.00000000000E+00 -0.00000000000E+00 -0.22157497261E+02  0.22157497261E+02  0.00000000000E+00 0. -1.
         23    2    1    2    0    0  0.45390206605E+02  0.26018693001E+02  0.18296461014E+03  0.21103967334E+03  0.91238434440E+02 0.  0.
          5    1    1    2  502    0 -0.11093302469E+02 -0.55856155914E+02  0.11017053715E+03  0.12408864239E+03  0.41800000000E+01 0.  1.
         -5    1    1    2    0  502 -0.34296904136E+02  0.29837462913E+02  0.44762899407E+03  0.44995082015E+03  0.41800000000E+01 0.  1.
        -11    1    3    3    0    0  0.17448992605E+02  0.33163299516E+02  0.14591153304E+02  0.40214096191E+02  0.00000000000E+00 0. -1.
         11    1    3    3    0    0  0.27941214000E+02 -0.71446065151E+01  0.16837345683E+03  0.17082557715E+03  0.00000000000E+00 0.  1.
</event>
<event>
 7    1  0.4274778E-006  0.1180438E+03  0.7561462E-02  0.1246360E+00
         -2   -1    0    0    0  501 -0.00000000000E+00  0.00000000000E+00  0.85597474525E+03  0.85597474525E+03  0.00000000000E+00 0.  1.
          2   -1    0    0  501    0  0.00000000000E+00 -0.00000000000E+00 -0.16497760290E+02  0.16497760290E+02  0.00000000000E+00 0. -1.
         23    2    1    2    0    0  0.39132097863E+02 -0.28689774576E+02  0.35387811960E+03  0.36867759759E+03  0.91318252179E+02 0.  0.
          5    1    1    2  502    0  0.35223099292E+01 -0.46204037759E+02  0.13741561065E+03  0.14507840026E+03  0.41800000000E+01 0. -1.
         -5    1    1    2    0  502 -0.42654407792E+02  0.74893812335E+02  0.34818325471E+03  0.35871650769E+03  0.41800000000E+01 0. -1.
        -11    1    3    3    0    0 -0.41956131432E+01 -0.53284698346E+02  0.19264629808E+03  0.19992363145E+03  0.00000000000E+00 0.  1.
         11    1    3    3    0    0  0.43327711006E+02  0.24594923769E+02  0.16123182152E+03  0.16875396614E+03  0.00000000000E+00 0. -1.
</event>
<event>
 7    1  0.4274778E-006  0.1088942E+03  0.7561462E-02  0.1262631E+00
         -1   -1    0    0    0  501 -0.00000000000E+00  0.00000000000E+00  0.23452704886E+03  0.23452704886E+03  0.00000000000E+00 0.  1.
          1   -1    0    0  501    0  0.00000000000E+00 -0.00000000000E+00 -0.73146134202E+02  0.73146134202E+02  0.00000000000E+00 0. -1.
         23    2    1    2    0    0 -0.65116884045E+02  0.10808222079E+01  0.32266165585E+02  0.11646762724E+03  0.91006735958E+02 0.  0.
          5    1    1    2  502    0  0.66998267783E+01  0.52756231346E+02  0.21813738361E+02  0.57631755187E+02  0.41800000000E+01 0.  1.
         -5    1    1    2    0  502  0.58417057267E+02 -0.53837053553E+02  0.10730101071E+03  0.13357380063E+03  0.41800000000E+01 0.  1.
        -11    1    3    3    0    0 -0.53932676064E+02 -0.22775928787E+02 -0.16685008737E+02  0.60875824398E+02  0.00000000000E+00 0. -1.
         11    1    3    3    0    0 -0.11184207981E+02  0.23856750995E+02  0.48951174322E+02  0.55591802846E+02  0.00000000000E+00 0.  1.
</event>
<event>
 7    1  0.5158783E-006  0.4414069E+03  0.7561462E-02  0.1030316E+00
         -1   -1    0    0    0  501 -0.00000000000E+00  0.00000000000E+00  0.15704593762E+03  0.15704593762E+03  0.00000000000E+00 0.  1.
          1   -1    0    0  501    0  0.00000000000E+00 -0.00000000000E+00 -0.15495391102E+04  0.15495391102E+04  0.00000000000E+00 0. -1.
         23    2    1    2    0    0  0.40383884769E+03 -0.16302960847E+03 -0.10440784029E+04  0.11350045083E+04  0.92038331145E+02 0.  0.
          5    1    1    2  502    0 -0.14918740286E+03  0.10804001134E+03 -0.91698672857E+02  0.20580486929E+03  0.41800000000E+01 0.  1.
         -5    1    1    2    0  502 -0.25465144483E+03  0.54989597135E+02 -0.25671609685E+03  0.36577567022E+03  0.41800000000E+01 0.  1.
        -11    1    3    3    0    0  0.20251919599E+03 -0.56542964244E+02 -0.60282558436E+03  0.63844327603E+03  0.00000000000E+00 0. -1.
         11    1    3    3    0    0  0.20131965170E+03 -0.10648664423E+03 -0.44125281853E+03  0.49656123230E+03  0.00000000000E+00 0.  1.
</event>
<event>
 7    1  0.4274778E-006  0.1657650E+03  0.7561462E-02  0.1182338E+00
          2   -1    0    0  501    0  0.00000000000E+00  0.00000000000E+00  0.52250738571E+03  0.52250738571E+03  0.00000000000E+00 0. -1.
         -2   -1    0    0    0  501 -0.00000000000E+00 -0.00000000000E+00 -0.79641571593E+02  0.79641571593E+02  0.00000000000E+00 0.  1.
         23    2    1    2    0    0  0.27327870776E+01  0.16354143880E+03  0.29319561625E+03  0.34758438171E+03  0.89988680906E+02 0.  0.
          5    1    1    2  502    0 -0.18271104488E+02 -0.10179977685E+03  0.13758132426E+02  0.10442119724E+03  0.41800000000E+01 0. -1.
         -5    1    1    2    0  502  0.15538317410E+02 -0.61741661952E+02  0.13591206544E+03  0.15014337835E+03  0.41800000000E+01 0. -1.
        -11    1    3    3    0    0 -0.60632787785E+01  0.66753288597E+02  0.44188138807E+02  0.80282977643E+02  0.00000000000E+00 0. -1.
         11    1    3    3    0    0  0.87960658561E+01  0.96788150206E+02  0.24900747744E+03  0.26730140407E+03  0.00000000000E+00 0.  1.
</event>
<event>
 7    1  0.4274778E-006  0.1924064E+03  0.7561462E-02  0.1156309E+00
         -1   -1    0    0    0  501 -0.00000000000E+00  0.00000000000E+00  0.33152444773E+03  0.33152444773E+03  0.00000000000E+00 0.  1.
          1   -1    0    0  501    0  0.00000000000E+00 -0.00000000000E+00 -0.19194176190E+03  0.19194176190E+03  0.00000000000E+00 0. -1.
         23    2    1    2    0    0  0.12335868587E+03  0.11237143956E+03 -0.98508255693E+02  0.20695514262E+03  0.72676329075E+02 0.  0.
          5    1    1    2  502    0 -0.13207418512E+03 -0.12833575380E+03  0.23327988142E+03  0.29723834132E+03  0.41800000000E+01 0. -1.
         -5    1    1    2    0  502  0.87154992466E+01  0.15964314239E+02  0.48110601039E+01  0.19272725691E+02  0.41800000000E+01 0. -1.
        -11    1    3    3    0    0  0.59496367237E+02  0.10079278639E+03 -0.60796778946E+02  0.13189106047E+03  0.00000000000E+00 0. -1.
         11    1    3    3    0    0  0.63862318632E+02  0.11578653179E+02 -0.37711476747E+02  0.75064082149E+02  0.00000000000E+00 0.  1.
</event>
<event>
 7    1  0.4274778E-006  0.1290763E+03  0.7561462E-02  0.1228833E+00
         -2   -1    0    0    0  501 -0.00000000000E+00  0.00000000000E+00  0.80858891119E+03  0.80858891119E+03  0.00000000000E+00 0.  1.
          2   -1    0    0  501    0  0.00000000000E+00 -0.00000000000E+00 -0.28554482447E+02  0.28554482447E+02  0.00000000000E+00 0. -1.
         23    2    1    2    0    0  0.76462745751E+02  0.31742202808E+02  0.17583039525E+03  0.21459502312E+03  0.90997676484E+02 0.  0.
          5    1    1    2  502    0  0.29204546437E+02 -0.12965184426E+02  0.62710239896E+02  0.70505660252E+02  0.41800000000E+01 0. -1.
         -5    1    1    2    0  502 -0.10566729219E+03 -0.18777018382E+02  0.54149379360E+03  0.55204271027E+03  0.41800000000E+01 0. -1.
        -11    1    3    3    0    0 -0.18747340890E+02  0.80951115346E+01  0.56729244249E+02  0.60292626201E+02  0.00000000000E+00 0. -1.
         11    1    3    3    0    0  0.95210086641E+02  0.23647091274E+02  0.11910115100E+03  0.15430239691E+03  0.00000000000E+00 0.  1.
</event>
<event>
 7    1  0.4274778E-006  0.9414882E+02  0.7561462E-02  0.1293105E+00
         -2   -1    0    0    0  501 -0.00000000000E+00  0.00000000000E+00  0.73957456433E+03  0.73957456433E+03  0.00000000000E+00 0.  1.
          2   -1    0    0  501    0  0.00000000000E+00 -0.00000000000E+00 -0.16968870225E+02  0.16968870225E+02  0.00000000000E+00 0. -1.
         23    2    1    2    0    0 -0.27068419172E+00  0.16892622790E+02  0.24225030314E+03  0.25987979991E+03  0.92557371702E+02 0.  0.
          5    1    1    2  502    0 -0.42313115933E+02 -0.28605175047E+02  0.88197999021E+02  0.10200497660E+03  0.41800000000E+01 0.  1.
         -5    1    1    2    0  502  0.42583800124E+02  0.11712552257E+02  0.39215739194E+03  0.39465865804E+03  0.41800000000E+01 0.  1.
        -11    1    3    3    0    0 -0.28032382242E+02 -0.28183027780E+02  0.82307731635E+02  0.91403830313E+02  0.00000000000E+00 0.  1.
         11    1    3    3    0    0  0.27761698050E+02  0.45075650569E+02  0.15994257150E+03  0.16847596960E+03  0.00000000000E+00 0. -1.
</event>
<event>
 7    1  0.4274778E-006  0.8452825E+02  0.7561462E-02  0.1316671E+00
          2   -1    0    0  501    0  0.00000000000E+00  0.00000000000E+00  0.88423835833E+02  0.88423835833E+02  0.00000000000E+00 0. -1.
         -2   -1    0    0    0  501 -0.00000000000E+00 -0.00000000000E+00 -0.13808566490E+03  0.13808566490E+03  0.00000000000E+00 0.  1.
         23    2    1    2    0    0  0.16015541944E+02 -0.21750601379E+02 -0.22877938946E+02  0.95682826147E+02  0.88894414250E+02 0.  0.
          5    1    1    2  502    0  0.32329724446E+02  0.57658991777E+02 -0.41845439000E+01  0.66368314903E+02  0.41800000000E+01 0.  1.
         -5    1    1    2    0  502 -0.48345266390E+02 -0.35908390398E+02 -0.22599346219E+02  0.64458359682E+02  0.41800000000E+01 0.  1.
        -11    1    3    3    0    0  0.23905506539E+02 -0.57108572515E+01  0.30627771335E+02  0.39270186024E+02  0.00000000000E+00 0. -1.
         11    1    3    3    0    0 -0.78899645946E+01 -0.16039744127E+02 -0.53505710281E+02  0.56412640123E+02  0.00000000000E+00 0.  1.
</event>
<event>
 7    1  0.4274778E-006  0.1246071E+03  0.7561462E-02  0.1235685E+00
          1   -1    0    0  501    0  0.00000000000E+00  0.00000000000E+00  0.17402010568E+03  0.17402010568E+03  0.00000000000E+00 0. -1.
         -1   -1    0    0    0  501 -0.00000000000E+00 -0.00000000000E+00 -0.10302578432E+03  0.10302578432E+03  0.00000000000E+00 0.  1.
         23    2    1    2    0    0 -0.53386750088E+02  0.53652056758E+02  0.47221921937E+02  0.12890683365E+03  0.93050381891E+02 0.  0.
          5    1    1    2  502    0 -0.17972573386E+02 -0.69798012064E+02  0.19244835638E+02  0.74716878822E+02  0.41800000000E+01 0. -1.
         -5    1    1    2    0  502  0.71359323474E+02  0.16145955305E+02  0.45275637836E+01  0.73422177530E+02  0.41800000000E+01 0. -1.
        -11    1    3    3    0    0 -0.22379732070E+02 -0.15988497667E+02  0.44882357675E+02  0.52639438595E+02  0.00000000000E+00 0.  1.
         11    1    3    3    0    0 -0.31007018018E+02  0.69640554425E+02  0.23395642624E+01  0.76267395052E+02  0.00000000000E+00 0. -1.
</event>
<event>
 7    1  0.4274778E-006  0.9258999E+02  0.7561462E-02  0.1296698E+00
         -1   -1    0    0    0  501 -0.00000000000E+00  0.00000000000E+00  0.28913471873E+03  0.28913471873E+03  0.00000000000E+00 0.  1.
          1   -1    0    0  501    0  0.00000000000E+00 -0.00000000000E+00 -0.61702217618E+02  0.61702217618E+02  0.00000000000E+00 0. -1.
         23    2    1    2    0    0 -0.44648223635E+02 -0.39343482324E+02  0.96595744446E+02  0.14877657231E+03  0.96241140621E+02 0.  0.
          5    1    1    2  502    0 -0.13035861429E+02  0.71744482371E+01 -0.26888202727E+02  0.31013774949E+02  0.41800000000E+01 0. -1.
         -5    1    1    2    0  502  0.57684085064E+02  0.32169034087E+02  0.15772495939E+03  0.17104658909E+03  0.41800000000E+01 0.  1.
        -11    1    3    3    0    0 -0.21436800297E+02 -0.65296850871E+02  0.32921032781E+02  0.76203737048E+02  0.00000000000E+00 0. -1.
         11    1    3    3    0    0 -0.23211423338E+02  0.25953368547E+02  0.63674711664E+02  0.72572835261E+02  0.00000000000E+00 0.  1.
</event>
<event>
 7    1  0.4274778E-006  0.9873125E+02  0.7561462E-02  0.1282987E+00
          1   -1    0    0  501    0  0.00000000000E+00  0.00000000000E+00  0.14814683177E+03  0.14814683177E+03  0.00000000000E+00 0. -1.
         -1   -1    0    0    0  501 -0.00000000000E+00 -0.00000000000E+00 -0.87686282034E+02  0.87686282034E+02  0.00000000000E+00 0.  1.
         23    2    1    2    0    0 -0.37446533402E+01 -0.36604808168E+01  0.61065392289E+02  0.11060670817E+03  0.92073015638E+02 0.  0.
          5    1    1    2  502    0 -0.46419939598E+02 -0.20345336851E+02 -0.33102338773E+02  0.60679327255E+02  0.41800000000E+01 0. -1.
         -5    1    1    2    0  502  0.50164592938E+02  0.24005817668E+02  0.32497496224E+02  0.64547078380E+02  0.41800000000E+01 0. -1.
        -11    1    3    3    0    0  0.23184056810E+02  0.36048037594E+02  0.38392772970E+02  0.57540998608E+02  0.00000000000E+00 0. -1.
         11    1    3    3    0    0 -0.26928710150E+02 -0.39708518410E+02  0.22672619319E+02  0.53065709564E+02  0.00000000000E+00 0.  1.
</event>
<event>
 7    1  0.4274778E-006  0.1818690E+03  0.7561462E-02  0.1166006E+00
          1   -1    0    0  501    0  0.00000000000E+00  0.00000000000E+00  0.32438259538E+03  0.32438259538E+03  0.00000000000E+00 0. -1.
         -1   -1    0    0    0  501 -0.00000000000E+00 -0.00000000000E+00 -0.11727668246E+03  0.11727668246E+03  0.00000000000E+00 0.  1.
         23    2    1    2    0    0  0.10416941980E+02  0.15814669278E+03  0.12001699133E+03  0.21754166295E+03  0.88325578358E+02 0.  0.
          5    1    1    2  502    0 -0.30528468437E+02  0.48220012608E+00  0.51868271083E+02  0.60332494124E+02  0.41800000000E+01 0. -1.
         -5    1    1    2    0  502  0.20111526457E+02 -0.15862889291E+03  0.35220650501E+02  0.16378512076E+03  0.41800000000E+01 0.  1.
        -11    1    3    3    0    0  0.35572650942E+02  0.13189898211E+03  0.11899723396E+03  0.18117145654E+03  0.00000000000E+00 0.  1.
         11    1    3    3    0    0 -0.25155708962E+02  0.26247710673E+02  0.10197573756E+01  0.36370206407E+02  0.00000000000E+00 0. -1.
</event>
<event>
 7    1  0.4274778E-006  0.1950758E+03  0.7561462E-02  0.1153961E+00
          2   -1    0    0  501    0  0.00000000000E+00  0.00000000000E+00  0.19986139844E+03  0.19986139844E+03  0.00000000000E+00 0. -1.
         -2   -1    0    0    0  501 -0.00000000000E+00 -0.00000000000E+00 -0.21017983286E+03  0.21017983286E+03  0.00000000000E+00 0.  1.
         23    2    1    2    0    0 -0.23367036541E+02  0.16035968932E+03  0.57879232342E+02  0.19426306229E+03  0.90149228947E+02 0.  0.
          5    1    1    2  502    0  0.60454559453E+02 -0.27195199101E+02 -0.22312827946E+02  0.70069018145E+02  0.41800000000E+01 0.  1.
         -5    1    1    2    0  502 -0.37087522912E+02 -0.13316449022E+03 -0.45884838824E+02  0.14570915086E+03  0.41800000000E+01 0.  1.
        -11    1    3    3    0    0  0.34432969877E+02  0.47916084844E+02  0.17689517041E+02  0.61599509856E+02  0.00000000000E+00 0. -1.
         11    1    3    3    0    0 -0.57800006418E+02  0.11244360447E+03  0.40189715302E+02  0.13266355244E+03  0.00000000000E+00 0.  1.
</event>
<event>
 7    1  0.4274778E-006  0.2888327E+03  0.7561462E-02  0.1090960E+00
          2   -1    0    0  501    0  0.00000000000E+00  0.00000000000E+00  0.19594488544E+03  0.19594488544E+03  0.00000000000E+00 0. -1.
         -2   -1    0    0    0  501 -0.00000000000E+00 -0.00000000000E+00 -0.59877244751E+03  0.59877244751E+03  0.00000000000E+00 0.  1.
         23    2    1    2    0    0 -0.63555462337E+02  0.23426461310E+02  0.17650653748E+02  0.11530978295E+03  0.91633534171E+02 0.  0.
          5    1    1    2  502    0  0.86843226454E+02  0.22351907052E+03 -0.69671484916E+02  0.24974809124E+03  0.41800000000E+01 0. -1.
         -5    1    1    2    0  502 -0.23287764117E+02 -0.24694553183E+03 -0.35080673090E+03  0.42965945875E+03  0.41800000000E+01 0.  1.
        -11    1    3    3    0    0 -0.72964315740E+02  0.10422463898E+02  0.42981379217E+02  0.85321849983E+02  0.00000000000E+00 0.  1.
         11    1    3    3    0    0  0.94088534030E+01  0.13003997412E+02 -0.25330725469E+02  0.29987932970E+02  0.00000000000E+00 0. -1.
</event>
<event>
 7    1  0.4274778E-006  0.1617531E+03  0.7561462E-02  0.1186732E+00
          1   -1    0    0  501    0  0.00000000000E+00  0.00000000000E+00  0.47781490289E+03  0.47781490289E+03  0.00000000000E+00 0. -1.
         -1   -1    0    0    0  501 -0.00000000000E+00 -0.00000000000E+00 -0.56925547636E+02  0.56925547636E+02  0.00000000000E+00 0.  1.
         23    2    1    2    0    0 -0.91055569224E+02 -0.55868993309E+02  0.20788435555E+03  0.25123374978E+03  0.92141362289E+02 0.  0.
          5    1    1    2  502    0  0.28542320046E+02 -0.52858094194E+02  0.85799388344E+02  0.10482199004E+03  0.41800000000E+01 0. -1.
         -5    1    1    2    0  502  0.62513249178E+02  0.10872708750E+03  0.12720561136E+03  0.17868471071E+03  0.41800000000E+01 0.  1.
        -11    1    3    3    0    0 -0.68758804534E+02  0.88722384832E+01  0.77652255737E+02  0.10409785126E+03  0.00000000000E+00 0. -1.
         11    1    3    3    0    0 -0.22296764690E+02 -0.64741231792E+02  0.13023209981E+03  0.14713589851E+03  0.00000000000E+00 0.  1.
</event>
<event>
 7    1  0.4274778E-006  0.1701638E+03  0.7561462E-02  0.1177677E+00
          2   -1    0    0  501    0  0.00000000000E+00  0.00000000000E+00  0.11522111749E+04  0.11522111749E+04  0.00000000000E+00 0. -1.
         -2   -1    0    0    0  501 -0.00000000000E+00 -0.00000000000E+00 -0.29213223977E+02  0.29213223977E+02  0.00000000000E+00 0.  1.
         23    2    1    2    0    0 -0.85911234015E+02 -0.10985612155E+03  0.68669120275E+03  0.70659850708E+03  0.91035897872E+02 0.  0.
          5    1    1    2  502    0 -0.90707673150E+01  0.88724726247E+02  0.22864107111E+03  0.24545583648E+03  0.41800000000E+01 0.  1.
         -5    1    1    2    0  502  0.94982001330E+02  0.21131395306E+02  0.20766567711E+03  0.22937005536E+03  0.41800000000E+01 0.  1.
        -11    1    3    3    0    0 -0.31791293547E+02 -0.68469536770E+00  0.57404833906E+02  0.65623700817E+02  0.00000000000E+00 0.  1.
         11    1    3    3    0    0 -0.54119940468E+02 -0.10917142619E+03  0.62928636884E+03  0.64097480626E+03  0.00000000000E+00 0. -1.
</event>
<event>
 7    1  0.4274778E-006  0.1104571E+03  0.7561462E-02  0.1259726E+00
         -1   -1    0    0    0  501 -0.00000000000E+00  0.00000000000E+00  0.61239711832E+02  0.61239711832E+02  0.00000000000E+00 0.  1.
          1   -1    0    0  501    0  0.00000000000E+00 -0.00000000000E+00 -0.23979427465E+03  0.23979427465E+03  0.00000000000E+00 0. -1.
         23    2    1    2    0    0 -0.75133698151E+01 -0.33504037475E+02 -0.13275313443E+03  0.16347052959E+03  0.88995775691E+02 0.  0.
          5    1    1    2  502    0 -0.56541284613E+02  0.79655112564E-01 -0.13333420243E+02  0.58242387537E+02  0.41800000000E+01 0.  1.
         -5    1    1    2    0  502  0.64054654428E+02  0.33424382363E+02 -0.32468008142E+02  0.79321069350E+02  0.41800000000E+01 0.  1.
        -11    1    3    3    0    0 -0.46355954544E+02 -0.14267620059E+02 -0.47795014656E+02  0.68094074116E+02  0.00000000000E+00 0. -1.
         11    1    3    3    0    0  0.38842584729E+02 -0.19236417416E+02 -0.84958119777E+02  0.95376455478E+02  0.00000000000E+00 0.  1.
</event>
<event>
 6    1  0.4274778E-006  0.2464042E+03  0.7561462E-02  0.1115599E+00
         -2   -1    0    0    0  501 -0.00000000000E+00  0.00000000000E+00  0.68529996851E+02  0.68529996851E+02  0.00000000000E+00 0.  1.
          2   -1    0    0  501    0  0.00000000000E+00 -0.00000000000E+00 -0.95358012524E+03  0.95358012524E+03  0.00000000000E+00 0. -1.
          5    1    1    2  502    0  0.78280401996E+02 -0.13428217908E+03 -0.23350041668E+03  0.28053420816E+03  0.41800000000E+01 0. -1.
         -5    1    1    2    0  502 -0.23988925848E+02  0.12470112826E+02 -0.40973366470E+02  0.49267245074E+02  0.41800000000E+01 0. -1.
        -11    1    1    2    0    0  0.11446470485E+03  0.32299369667E+02 -0.34679040930E+03  0.36661833822E+03  0.00000000000E+00 0. -1.
         11    1    1    2    0    0 -0.16875618100E+03  0.89512696584E+02 -0.26378593594E+03  0.32569033065E+03  0.00000000000E+00 0.  1.
</event>
<event>
 7    1  0.4274778E-006  0.2066467E+03  0.7561462E-02  0.1144249E+00
         -2   -1    0    0    0  501 -0.00000000000E+00  0.00000000000E+00  0.49182466313E+02  0.49182466313E+02  0.00000000000E+00 0.  1.
          2   -1    0    0  501    0  0.00000000000E+00 -0.00000000000E+00 -0.10059108608E+04  0.10059108608E+04  0.00000000000E+00 0. -1.
         23    2    1    2    0    0 -0.18694811740E+03 -0.50130910092E+02 -0.44942250928E+03  0.49789671827E+03  0.91966534485E+02 0.  0.
          5    1    1    2  502    0  0.12017295456E+02 -0.10929435682E+02  0.34265833842E+00  0.16776703166E+02  0.41800000000E+01 0. -1.
         -5    1    1    2    0  502  0.17493082195E+03  0.61060345774E+02 -0.50764854354E+03  0.54041990568E+03  0.41800000000E+01 0. -1.
        -11    1    3    3    0    0 -0.44401973107E+02 -0.52329335397E+02 -0.18789765358E+03  0.20003855324E+03  0.00000000000E+00 0. -1.
         11    1    3    3    0    0 -0.14254614430E+03  0.21984253046E+01 -0.26152485570E+03  0.29785816503E+03  0.00000000000E+00 0.  1.
</event>
<event>
 7    1  0.4274778E-006  0.2458190E+03  0.7561462E-02  0.1115976E+00
         -2   -1    0    0    0  501 -0.00000000000E+00  0.00000000000E+00  0.48414538103E+02  0.48414538103E+02  0.00000000000E+00 0.  1.
          2   -1    0    0  501    0  0.00000000000E+00 -0.00000000000E+00 -0.13894967164E+04  0.13894967164E+04  0.00000000000E+00 0. -1.
         23    2    1    2    0    0 -0.36264691035E+02  0.23004894446E+03 -0.73434142462E+03  0.77608324165E+03  0.93862800894E+02 0.  0.
          5    1    1    2  502    0  0.75493672873E+02 -0.17010332175E+03 -0.36599914290E+03  0.41061816779E+03  0.41800000000E+01 0. -1.
         -5    1    1    2    0  502 -0.39228981839E+02 -0.59945622716E+02 -0.24074161080E+03  0.25120984509E+03  0.41800000000E+01 0. -1.
        -11    1    3    3    0    0 -0.54264609113E+01  0.96897875680E+02 -0.17320068983E+03  0.19853746182E+03  0.00000000000E+00 0.  1.
         11    1    3    3    0    0 -0.30838230123E+02  0.13315106878E+03 -0.56114073479E+03  0.57754577983E+03  0.00000000000E+00 0. -1.
</event>
<event>
 7    1  0.4274778E-006  0.1023920E+03  0.7561462E-02  0.1275345E+00
          2   -1    0    0  501    0  0.00000000000E+00  0.00000000000E+00  0.60649785932E+03  0.60649785932E+03  0.00000000000E+00 0. -1.
         -2   -1    0    0    0  501 -0.00000000000E+00 -0.00000000000E+00 -0.22575549148E+02  0.22575549148E+02  0.00000000000E+00 0.  1.
         23    2    1    2    0    0  0.34049440088E+02 -0.17500255091E+02  0.28104897387E+03  0.29915711177E+03  0.95083271458E+02 0.  0.
          5    1    1    2  502    0 -0.47020853361E+02  0.58409942464E+02  0.11641802824E+03  0.13853992829E+03  0.41800000000E+01 0. -1.
         -5    1    1    2    0  502  0.12971413272E+02 -0.40909687373E+02  0.18645530806E+03  0.19137636841E+03  0.41800000000E+01 0. -1.
        -11    1    3    3    0    0 -0.17722968778E+02  0.16831520150E+02  0.22403146162E+02  0.33155763463E+02  0.00000000000E+00 0.  1.
         11    1    3    3    0    0  0.51772408866E+02 -0.34331775241E+02  0.25864582771E+03  0.26600134831E+03  0.00000000000E+00 0. -1.
</event>
<event>
 7    1  0.4274778E-006  0.1166786E+03  0.7561462E-02  0.1248679E+00
         -1   -1    0    0    0  501 -0.00000000000E+00  0.00000000000E+00  0.63734179696E+03  0.63734179696E+03  0.00000000000E+00 0.  1.
          1   -1    0    0  501    0  0.00000000000E+00 -0.00000000000E+00 -0.50743880277E+02  0.50743880277E+02  0.00000000000E+00 0. -1.
         23    2    1    2    0    0  0.80327858429E+02 -0.10180279940E+00  0.52515051444E+02  0.13369974176E+03  0.93087137211E+02 0.  0.
          5    1    1    2  502    0 -0.63059453129E+02 -0.59015345413E+02  0.33284137915E+03  0.34388975225E+03  0.41800000000E+01 0. -1.
         -5    1    1    2    0  502 -0.17268405300E+02  0.59117148212E+02  0.20124148609E+03  0.21049618324E+03  0.41800000000E+01 0. -1.
        -11    1    3    3    0    0  0.71080287151E+02  0.96357845666E+01  0.77335057372E+02  0.10547969788E+03  0.00000000000E+00 0.  1.
         11    1    3    3    0    0  0.92475712776E+01 -0.97375873660E+01 -0.24820005928E+02  0.28220043879E+02  0.00000000000E+00 0. -1.
</event>
<event>
 7    1  0.4274778E-006  0.1061149E+03  0.7561462E-02  0.1267938E+00
          2   -1    0    0  501    0  0.00000000000E+00  0.00000000000E+00  0.27383220394E+03  0.27383220394E+03  0.00000000000E+00 0. -1.
         -2   -1    0    0    0  501 -0.00000000000E+00 -0.00000000000E+00 -0.50250520704E+02  0.50250520704E+02  0.00000000000E+00 0.  1.
         23    2    1    2    0    0  0.38607415154E+02  0.11065736856E+02  0.11439256421E+03  0.15326181413E+03  0.93757889741E+02 0.  0.
          5    1    1    2  502    0 -0.65209619726E+02 -0.37265547035E+02  0.10997660099E+03  0.13324166265E+03  0.41800000000E+01 0.  1.
         -5    1    1    2    0  502  0.26602204572E+02  0.26199810179E+02 -0.78748196499E+00  0.37579247855E+02  0.41800000000E+01 0.  1.
        -11    1    3    3    0    0  0.47010234467E+02  0.44638741108E+02  0.90016683630E+02  0.11093053089E+03  0.00000000000E+00 0.  1.
         11    1    3    3    0    0 -0.84028193136E+01 -0.33573004252E+02  0.24375880576E+02  0.42331283240E+02  0.00000000000E+00 0. -1.
</event>
<event>
 7    1  0.4274778E-006  0.1044987E+03  0.7561462E-02  0.1271110E+00
         -1   -1    0    0    0  501 -0.00000000000E+00  0.00000000000E+00  0.13705950629E+03  0.13705950629E+03  0.00000000000E+00 0.  1.
          1   -1    0    0  501    0  0.00000000000E+00 -0.00000000000E+00 -0.13267332186E+03  0.13267332186E+03  0.00000000000E+00 0. -1.
         23    2    1    2    0    0 -0.41801288261E+01 -0.66985171857E+02 -0.43332644828E+02  0.11996702203E+03  0.89497941548E+02 0.  0.
          5    1    1    2  502    0  0.37818623870E+02 -0.91041487543E+01  0.53486892166E+02  0.66268045614E+02  0.41800000000E+01 0. -1.
         -5    1    1    2    0  502 -0.33638495044E+02  0.76089320611E+02 -0.57680629036E+01  0.83497760506E+02  0.41800000000E+01 0. -1.
        -11    1    3    3    0    0 -0.18275183997E+02 -0.15498058006E+00  0.19809029237E+02  0.26951883208E+02  0.00000000000E+00 0.  1.
         11    1    3    3    0    0  0.14095055171E+02 -0.66830191277E+02 -0.63141674065E+02  0.93015138823E+02  0.00000000000E+00 0. -1.
</event>
<event>
 7    1  0.4274778E-006  0.1021984E+03  0.7561462E-02  0.1275740E+00
          2   -1    0    0  501    0  0.00000000000E+00  0.00000000000E+00  0.31682991095E+03  0.31682991095E+03  0.00000000000E+00 0. -1.
         -2   -1    0    0    0  501 -0.00000000000E+00 -0.00000000000E+00 -0.58647034445E+02  0.58647034445E+02  0.00000000000E+00 0.  1.
         23    2    1    2    0    0  0.80231953888E+02  0.42070213482E+01  0.13550483554E+03  0.18272543116E+03  0.92585945392E+02 0.  0.
          5    1    1    2  502    0 -0.45179614323E+02 -0.34916451866E+02 -0.43135884511E+01  0.57414594021E+02  0.41800000000E+01 0. -1.
         -5    1    1    2    0  502 -0.35052339565E+02  0.30709430518E+02  0.12699162942E+03  0.13533692022E+03  0.41800000000E+01 0. -1.
        -11    1    3    3    0    0  0.42004008148E+02 -0.27906263926E+02  0.15512944829E+02  0.52761233155E+02  0.00000000000E+00 0.  1.
         11    1    3    3    0    0  0.38227945740E+02  0.32113285274E+02  0.11999189071E+03  0.12996419800E+03  0.00000000000E+00 0. -1.
</event>
<event>
 7    1  0.4274778E-006  0.1654800E+03  0.7561462E-02  0.1182645E+00
          1   -1    0    0  501    0  0.00000000000E+00  0.00000000000E+00  0.87477965499E+03  0.87477965499E+03  0.00000000000E+00 0. -1.
         -1   -1    0    0    0  501 -0.00000000000E+00 -0.00000000000E+00 -0.38895662711E+02  0.38895662711E+02  0.00000000000E+00 0.  1.
         23    2    1    2    0    0  0.52872806088E+02  0.12998600604E+03  0.51628943692E+03  0.54289549546E+03  0.92134906121E+02 0.  0.
          5    1    1    2  502    0  0.41866475912E+01  0.10753800646E+02  0.11652441621E+03  0.11716904121E+03  0.41800000000E+01 0.  1.
         -5    1    1    2    0  502 -0.57059453679E+02 -0.14073980668E+03  0.20307013915E+03  0.25361078103E+03  0.41800000000E+01 0.  1.
        -11    1    3    3    0    0  0.14475258247E+02  0.12746242465E+03  0.36900555814E+03  0.39066776772E+03  0.00000000000E+00 0.  1.
         11    1    3    3    0    0  0.38397547841E+02  0.25235813835E+01  0.14728387878E+03  0.15222772774E+03  0.00000000000E+00 0. -1.
</event>
<event>
 7    1  0.4274778E-006  0.1719217E+03  0.7561462E-02  0.1175858E+00
          1   -1    0    0  501    0  0.00000000000E+00  0.00000000000E+00  0.57097614021E+03  0.57097614021E+03  0.00000000000E+00 0. -1.
         -1   -1    0    0    0  501 -0.00000000000E+00 -0.00000000000E+00 -0.52852159719E+02  0.52852159719E+02  0.00000000000E+00 0.  1.
         23    2    1    2    0    0 -0.10024268681E+03 -0.89718748088E+02  0.22265607911E+03  0.27592124914E+03  0.91971496361E+02 0.  0.
          5    1    1    2  502    0  0.12887712760E+03  0.73812868813E+02  0.21932705811E+03  0.26491410766E+03  0.41800000000E+01 0. -1.
         -5    1    1    2    0  502 -0.28634440788E+02  0.15905879275E+02  0.76140843276E+02  0.82992943131E+02  0.41800000000E+01 0. -1.
        -11    1    3    3    0    0 -0.17748905078E+02  0.18850171793E+02  0.45703911010E+02  0.52528088579E+02  0.00000000000E+00 0. -1.
         11    1    3    3    0    0 -0.82493781734E+02 -0.10856891988E+03  0.17695216810E+03  0.22339316056E+03  0.00000000000E+00 0.  1.
</event>
<event>
 7    1  0.4274778E-006  0.8603941E+02  0.7561462E-02  0.1312737E+00
         -2   -1    0    0    0  501 -0.00000000000E+00  0.00000000000E+00  0.22825976767E+03  0.22825976767E+03  0.00000000000E+00 0.  1.
          2   -1    0    0  501    0  0.00000000000E+00 -0.00000000000E+00 -0.11830490381E+03  0.11830490381E+03  0.00000000000E+00 0. -1.
         23    2    1    2    0    0  0.57903742047E+00  0.68423169855E+01 -0.56955458377E+02  0.11038260747E+03  0.94303993591E+02 0.  0.
          5    1    1    2  502    0  0.21140645625E+02  0.60713277021E+02  0.11713640320E+02  0.65480612960E+02  0.41800000000E+01 0. -1.
         -5    1    1    2    0  502 -0.21719683045E+02 -0.67555594006E+02  0.15519668192E+03  0.17070145105E+03  0.41800000000E+01 0.  1.
        -11    1    3    3    0    0 -0.17519855898E+02  0.98681343489E+00 -0.79195925459E+02  0.81116667589E+02  0.00000000000E+00 0. -1.
         11    1    3    3    0    0  0.18098893318E+02  0.58555035506E+01  0.22240467082E+02  0.29265939883E+02  0.00000000000E+00 0.  1.
</event>
<event>
 7    1  0.4274778E-006  0.9986110E+02  0.7561462E-02  0.1280588E+00
          2   -1    0    0  501    0  0.00000000000E+00  0.00000000000E+00  0.38382902853E+03  0.38382902853E+03  0.00000000000E+00 0.  1.
         -2   -1    0    0    0  501 -0.00000000000E+00 -0.00000000000E+00 -0.30216221614E+02  0.30216221614E+02  0.00000000000E+00 0. -1.
         23    2    1    2    0    0  0.45392764241E+01  0.53043730961E+01  0.15598497582E+03  0.18005135051E+03  0.89657318359E+02 0.  0.
          5    1    1    2  502    0  0.15727268389E+02 -0.61021558674E+02  0.12581047668E+03  0.14077189363E+03  0.41800000000E+01 0. -1.
         -5    1    1    2    0  502 -0.20266544813E+02  0.55717185577E+02  0.71817354414E+02  0.93222005998E+02  0.41800000000E+01 0. -1.
        -11    1    3    3    0    0 -0.22261646648E+01  0.40869138066E+02  0.12773095745E+03  0.13412844496E+03  0.00000000000E+00 0.  1.
         11    1    3    3    0    0  0.67654410889E+01 -0.35564764969E+02  0.28254018364E+02  0.45922905550E+02  0.00000000000E+00 0. -1.
</event>
<event>
 7    1  0.4274778E-006  0.1644678E+03  0.7561462E-02  0.1183743E+00
          1   -1    0    0  501    0  0.00000000000E+00  0.00000000000E+00  0.50956083552E+03  0.50956083552E+03  0.00000000000E+00 0. -1.
         -1   -1    0    0    0  501 -0.00000000000E+00 -0.00000000000E+00 -0.73556468257E+02  0.73556468257E+02  0.00000000000E+00 0.  1.
         23    2    1    2    0    0 -0.10308693245E+03 -0.12152502797E+03  0.19857330714E+03  0.27100178838E+03  0.92818979379E+02 0.  0.
          5    1    1    2  502    0  0.24742042414E+02  0.26563335752E+02  0.16547019745E+03  0.16945689161E+03  0.41800000000E+01 0. -1.
         -5    1    1    2    0  502  0.78344890037E+02  0.94961692215E+02  0.71960862668E+02  0.14265862378E+03  0.41800000000E+01 0. -1.
        -11    1    3    3    0    0  0.60437095068E+01 -0.17239901076E+02 -0.36749275336E+01  0.18634529940E+02  0.00000000000E+00 0.  1.
         11    1    3    3    0    0 -0.10913064196E+03 -0.10428512689E+03  0.20224823467E+03  0.25236725844E+03  0.00000000000E+00 0. -1.
</event>
<event>
 7    1  0.4274778E-006  0.1756156E+03  0.7561462E-02  0.1172115E+00
          2   -1    0    0  501    0  0.00000000000E+00  0.00000000000E+00  0.17820978332E+03  0.17820978332E+03  0.00000000000E+00 0. -1.
         -2   -1    0    0    0  501 -0.00000000000E+00 -0.00000000000E+00 -0.31350589986E+03  0.31350589986E+03  0.00000000000E+00 0.  1.
         23    2    1    2    0    0 -0.15544310450E+03 -0.32963435097E+02  0.75081428223E+02  0.19990121113E+03  0.95258209921E+02 0.  0.
          5    1    1    2  502    0  0.81707171695E+02  0.70437717337E+02 -0.69493473628E+02  0.12839139070E+03  0.41800000000E+01 0.  1.
         -5    1    1    2    0  502  0.73735932801E+02 -0.37474282240E+02 -0.14088407114E+03  0.16342308135E+03  0.41800000000E+01 0.  1.
        -11    1    3    3    0    0 -0.97110595510E+02 -0.31544158167E+02 -0.33322555583E+01  0.10215970635E+03  0.00000000000E+00 0.  1.
         11    1    3    3    0    0 -0.58332508986E+02 -0.14192769302E+01  0.78413683781E+02  0.97741504776E+02  0.00000000000E+00 0. -1.
</event>
<event>
 7    1  0.4274778E-006  0.1083619E+03  0.7561462E-02  0.1263634E+00
         -1   -1    0    0    0  501 -0.00000000000E+00  0.00000000000E+00  0.13860234118E+03  0.13860234118E+03  0.00000000000E+00 0.  1.
          1   -1    0    0  501    0  0.00000000000E+00 -0.00000000000E+00 -0.11294836007E+03  0.11294836007E+03  0.00000000000E+00 0. -1.
         23    2    1    2    0    0 -0.55199463362E+02  0.18891713844E+02 -0.14249488576E+02  0.10785395861E+03  0.89585438857E+02 0.  0.
          5    1    1    2  502    0  0.70965403646E+02  0.23447218685E+02  0.58155301609E+02  0.94791202567E+02  0.41800000000E+01 0. -1.
         -5    1    1    2    0  502 -0.15765940284E+02 -0.42338932530E+02 -0.18251831926E+02  0.48905540069E+02  0.41800000000E+01 0. -1.
        -11    1    3    3    0    0  0.47307915134E+01 -0.22932129527E+02 -0.24693888201E+02  0.34030149390E+02  0.00000000000E+00 0. -1.
         11    1    3    3    0    0 -0.59930254876E+02  0.41823843371E+02  0.10444399626E+02  0.73823809217E+02  0.00000000000E+00 0.  1.
</event>
<event>
 7    1  0.4274778E-006  0.1089842E+03  0.7561462E-02  0.1262463E+00
         -3   -1    0    0    0  501 -0.00000000000E+00  0.00000000000E+00  0.69199365116E+02  0.69199365116E+02  0.00000000000E+00 0.  1.
          3   -1    0    0  501    0  0.00000000000E+00 -0.00000000000E+00 -0.25692639817E+03  0.25692639817E+03  0.00000000000E+00 0. -1.
         23    2    1    2    0    0  0.76935123083E+02  0.13105639287E+01 -0.10221577589E+03  0.15616809425E+03  0.89552655332E+02 0.  0.
          5    1    1    2  502    0 -0.70491852245E+02  0.50799614479E+02 -0.77834957349E+02  0.11672812450E+03  0.41800000000E+01 0. -1.
         -5    1    1    2    0  502 -0.64432708388E+01 -0.52110178408E+02 -0.76762998092E+01  0.53229544537E+02  0.41800000000E+01 0. -1.
        -11    1    3    3    0    0  0.22477103750E+02  0.70235472666E+01 -0.98510428554E+02  0.10128600566E+03  0.00000000000E+00 0. -1.
         11    1    3    3    0    0  0.54458019333E+02 -0.57129833379E+01 -0.37053473402E+01  0.54882088583E+02  0.00000000000E+00 0.  1.
</event>
<event>
 7    1  0.4274778E-006  0.1149175E+03  0.7561462E-02  0.1251725E+00
         -2   -1    0    0    0  501 -0.00000000000E+00  0.00000000000E+00  0.23904528643E+03  0.23904528643E+03  0.00000000000E+00 0.  1.
          2   -1    0    0  501    0  0.00000000000E+00 -0.00000000000E+00 -0.97637096792E+02  0.97637096792E+02  0.00000000000E+00 0. -1.
         23    2    1    2    0    0  0.94921233174E+02 -0.49330969105E+02  0.55753032916E+02  0.15107261368E+03  0.90944757430E+02 0.  0.
          5    1    1    2  502    0 -0.33326173397E+02  0.32223684784E+02  0.10812699521E+03  0.11771966356E+03  0.41800000000E+01 0.  1.
         -5    1    1    2    0  502 -0.61595059777E+02  0.17107284322E+02 -0.22471838491E+02  0.67890105987E+02  0.41800000000E+01 0.  1.
        -11    1    3    3    0    0  0.53021844398E+02  0.18848028545E+01  0.65386776537E+02  0.84203913276E+02  0.00000000000E+00 0.  1.
         11    1    3    3    0    0  0.41899388776E+02 -0.51215771960E+02 -0.96337436211E+01  0.66868700402E+02  0.00000000000E+00 0. -1.
</event>
<event>
 7    1  0.4274778E-006  0.1238081E+03  0.7561462E-02  0.1236944E+00
          2   -1    0    0  501    0  0.00000000000E+00  0.00000000000E+00  0.59614966466E+03  0.59614966466E+03  0.00000000000E+00 0. -1.
         -2   -1    0    0    0  501 -0.00000000000E+00 -0.00000000000E+00 -0.28425927845E+02  0.28425927845E+02  0.00000000000E+00 0.  1.
         23    2    1    2    0    0  0.10044404131E+02 -0.70208422985E+02  0.25542299947E+03  0.28075475142E+03  0.92478154560E+02 0.  0.
          5    1    1    2  502    0  0.68353780527E+01 -0.31101727457E+02  0.32307758723E+02  0.45555499313E+02  0.41800000000E+01 0.  1.
         -5    1    1    2    0  502 -0.16879782184E+02  0.10131015044E+03  0.27999297862E+03  0.29826534178E+03  0.41800000000E+01 0.  1.
        -11    1    3    3    0    0  0.48633478006E+02 -0.30880264166E+02  0.94661857339E+02  0.11081368658E+03  0.00000000000E+00 0.  1.
         11    1    3    3    0    0 -0.38589073875E+02 -0.39328158819E+02  0.16076114213E+03  0.16994106484E+03  0.00000000000E+00 0. -1.
</event>
<event>
 7    1  0.4274778E-006  0.2582518E+03  0.7561462E-02  0.1108198E+00
          4   -1    0    0  501    0  0.00000000000E+00  0.00000000000E+00  0.11027486728E+03  0.11027486728E+03  0.00000000000E+00 0. -1.
         -4   -1    0    0    0  501 -0.00000000000E+00 -0.00000000000E+00 -0.11372076759E+04  0.11372076759E+04  0.00000000000E+00 0.  1.
         23    2    1    2    0    0  0.15561482008E+03  0.19747165044E+03 -0.11090861976E+03  0.28938055785E+03  0.90715822045E+02 0.  0.
          5    1    1    2  502    0 -0.99021481712E+02 -0.14454889858E+03 -0.40607183971E+03  0.44227983147E+03  0.41800000000E+01 0.  1.
         -5    1    1    2    0  502 -0.56593338364E+02 -0.52922751859E+02 -0.50995234914E+03  0.51582215386E+03  0.41800000000E+01 0.  1.
        -11    1    3    3    0    0  0.13305685792E+03  0.10799421765E+03 -0.48912736094E+02  0.17821148739E+03  0.00000000000E+00 0.  1.
         11    1    3    3    0    0  0.22557962156E+02  0.89477432793E+02 -0.61995883664E+02  0.11116907046E+03  0.00000000000E+00 0. -1.
</event>
<event>
 7    1  0.4274778E-006  0.1031048E+03  0.7561462E-02  0.1273899E+00
         -1   -1    0    0    0  501 -0.00000000000E+00  0.00000000000E+00  0.97930542846E+03  0.97930542846E+03  0.00000000000E+00 0.  1.
          1   -1    0    0  501    0  0.00000000000E+00 -0.00000000000E+00 -0.12777137249E+02  0.12777137249E+02  0.00000000000E+00 0. -1.
         23    2    1    2    0    0 -0.13591277838E+02 -0.88979280074E+01  0.32184403723E+03  0.33517336046E+03  0.92161278778E+02 0.  0.
          5    1    1    2  502    0  0.26569564015E+02  0.63764396190E+02  0.38069354325E+03  0.38693266369E+03  0.41800000000E+01 0.  1.
         -5    1    1    2    0  502 -0.12978286177E+02 -0.54866468183E+02  0.26399071072E+03  0.26997654156E+03  0.41800000000E+01 0.  1.
        -11    1    3    3    0    0 -0.39406807633E+02 -0.28011681489E+02  0.26917161730E+03  0.27347926859E+03  0.00000000000E+00 0.  1.
         11    1    3    3    0    0  0.25815529795E+02  0.19113753482E+02  0.52672419936E+02  0.61694091878E+02  0.00000000000E+00 0. -1.
</event>
<event>
 7    1  0.4274778E-006  0.1052352E+03  0.7561462E-02  0.1269657E+00
          1   -1    0    0  501    0  0.00000000000E+00  0.00000000000E+00  0.32415574937E+03  0.32415574937E+03  0.00000000000E+00 0. -1.
         -1   -1    0    0    0  501 -0.00000000000E+00 -0.00000000000E+00 -0.62536949585E+02  0.62536949585E+02  0.00000000000E+00 0.  1.
         23    2    1    2    0    0  0.44230243219E+02  0.57966840516E+02  0.19515942314E+03  0.22739970546E+03  0.91142507040E+02 0.  0.
          5    1    1    2  502    0 -0.13776999032E+02  0.33693293762E+02 -0.77096492465E+01  0.37442687382E+02  0.41800000000E+01 0.  1.
         -5    1    1    2    0  502 -0.30453244187E+02 -0.91660134278E+02  0.74169025891E+02  0.12185030611E+03  0.41800000000E+01 0.  1.
        -11    1    3    3    0    0  0.15035742325E+02  0.40337019412E+02  0.17455296529E+02  0.46452514024E+02  0.00000000000E+00 0.  1.
         11    1    3    3    0    0  0.29194500894E+02  0.17629821105E+02  0.17770412661E+03  0.18094719144E+03  0.00000000000E+00 0. -1.
</event>
<event>
 7    1  0.4274778E-006  0.1517269E+03  0.7561462E-02  0.1198367E+00
         -2   -1    0    0    0  501 -0.00000000000E+00  0.00000000000E+00  0.12086707711E+03  0.12086707711E+03  0.00000000000E+00 0.  1.
          2   -1    0    0  501    0  0.00000000000E+00 -0.00000000000E+00 -0.26387131181E+03  0.26387131181E+03  0.00000000000E+00 0. -1.
         23    2    1    2    0    0  0.96948942773E+02 -0.84874296840E+02 -0.13006927629E+03  0.20468893574E+03  0.91524860065E+02 0.  0.
          5    1    1    2  502    0  0.17662621355E+02  0.34832738039E+02  0.28176525300E+02  0.48339185041E+02  0.41800000000E+01 0. -1.
         -5    1    1    2    0  502 -0.11461156413E+03  0.50041558801E+02 -0.41111483711E+02  0.13171026813E+03  0.41800000000E+01 0. -1.
        -11    1    3    3    0    0  0.88574409164E+02 -0.92248590624E+02 -0.74488690221E+02  0.14799930203E+03  0.00000000000E+00 0.  1.
         11    1    3    3    0    0  0.83745336095E+01  0.73742937842E+01 -0.55580586070E+02  0.56689633708E+02  0.00000000000E+00 0. -1.
</event>
<event>
 7    1  0.4274778E-006  0.1226321E+03  0.7561462E-02  0.1238817E+00
          3   -1    0    0  501    0  0.00000000000E+00  0.00000000000E+00  0.42960501214E+03  0.42960501214E+03  0.00000000000E+00 0. -1.
         -3   -1    0    0    0  501 -0.00000000000E+00 -0.00000000000E+00 -0.48023235001E+02  0.48023235001E+02  0.00000000000E+00 0.  1.
         23    2    1    2    0    0 -0.28057538440E+02 -0.62529357878E+02  0.27875017069E+03  0.30178592757E+03  0.93144738769E+02 0.  0.
          5    1    1    2  502    0 -0.19831037503E+01  0.89383607827E+02  0.10147845494E+03  0.13530968652E+03  0.41800000000E+01 0.  1.
         -5    1    1    2    0  502  0.30040642190E+02 -0.26854249949E+02  0.13531515156E+01  0.40532633057E+02  0.41800000000E+01 0.  1.
        -11    1    3    3    0    0 -0.59385787631E+02 -0.59021387518E+02  0.21314311216E+03  0.22899821444E+03  0.00000000000E+00 0.  1.
         11    1    3    3    0    0  0.31328249191E+02 -0.35079703598E+01  0.65607058531E+02  0.72787713129E+02  0.00000000000E+00 0. -1.
</event>
<event>
 7    1  0.4274778E-006  0.1009402E+03  0.7561462E-02  0.1278331E+00
          1   -1    0    0  501    0  0.00000000000E+00  0.00000000000E+00  0.65587272135E+03  0.65587272135E+03  0.00000000000E+00 0. -1.
         -1   -1    0    0    0  501 -0.00000000000E+00 -0.00000000000E+00 -0.29894866099E+02  0.29894866099E+02  0.00000000000E+00 0.  1.
         23    2    1    2    0    0 -0.24602060684E+02  0.57438564794E+02  0.43854840407E+03  0.45192695756E+03  0.89492022814E+02 0.  0.
          5    1    1    2  502    0 -0.45377780512E+01  0.18111916187E+02  0.13705355908E+03  0.13838274240E+03  0.41800000000E+01 0. -1.
         -5    1    1    2    0  502  0.29139838735E+02 -0.75550480981E+02  0.50375892104E+02  0.95457887486E+02  0.41800000000E+01 0. -1.
        -11    1    3    3    0    0 -0.48321036529E+02  0.60847807530E+02  0.39140585593E+03  0.39904375989E+03  0.00000000000E+00 0.  1.
         11    1    3    3    0    0  0.23718975845E+02 -0.34092427364E+01  0.47142548141E+02  0.52883197676E+02  0.00000000000E+00 0. -1.
</event>
<event>
 7    1  0.4274778E-006  0.1209384E+03  0.7561462E-02  0.1241557E+00
          1   -1    0    0  501    0  0.00000000000E+00  0.00000000000E+00  0.16108482976E+03  0.16108482976E+03  0.00000000000E+00 0.  1.
         -1   -1    0    0    0  501 -0.00000000000E+00 -0.00000000000E+00 -0.97073454315E+02  0.97073454315E+02  0.00000000000E+00 0. -1.
         23    2    1    2    0    0 -0.39269431749E+02  0.46727463715E+02  0.49963906192E+02  0.11826509513E+03  0.88117516250E+02 0.  0.
          5    1    1    2  502    0 -0.33876324727E+02  0.20426718765E+02  0.28871036009E+01  0.39883129061E+02  0.41800000000E+01 0.  1.
         -5    1    1    2    0  502  0.73145756476E+02 -0.67154182479E+02  0.11160365648E+02  0.10001005988E+03  0.41800000000E+01 0.  1.
        -11    1    3    3    0    0 -0.64106277692E+02  0.43941276012E+02  0.51484750530E+02  0.93226230827E+02  0.00000000000E+00 0. -1.
         11    1    3    3    0    0  0.24836845943E+02  0.27861877028E+01 -0.15208443381E+01  0.25038864308E+02  0.00000000000E+00 0.  1.
</event>
<event>
 7    1  0.4274778E-006  0.1005998E+03  0.7561462E-02  0.1279040E+00
          4   -1    0    0  501    0  0.00000000000E+00  0.00000000000E+00  0.15288574467E+03  0.15288574467E+03  0.00000000000E+00 0. -1.
         -4   -1    0    0    0  501 -0.00000000000E+00 -0.00000000000E+00 -0.10016864274E+03  0.10016864274E+03  0.00000000000E+00 0.  1.
         23    2    1    2    0    0 -0.18602855777E+01 -0.54506023421E+00  0.84755481992E+02  0.12391122850E+03  0.90370034124E+02 0.  0.
          5    1    1    2  502    0  0.57970566948E+02  0.40119887481E+00 -0.42382880239E+02  0.71934195833E+02  0.41800000000E+01 0. -1.
         -5    1    1    2    0  502 -0.56110281370E+02  0.14386135940E+00  0.10344500179E+02  0.57208963069E+02  0.41800000000E+01 0. -1.
        -11    1    3    3    0    0 -0.24383567556E+02  0.36239364009E+02  0.25361490929E+02  0.50507970586E+02  0.00000000000E+00 0.  1.
         11    1    3    3    0    0  0.22523281978E+02 -0.36784424244E+02  0.59393991063E+02  0.73403257914E+02  0.00000000000E+00 0. -1.
</event>
<event>
 7    1  0.4274778E-006  0.9909735E+02  0.7561462E-02  0.1282206E+00
         -2   -1    0    0    0  501 -0.00000000000E+00  0.00000000000E+00  0.50972468049E+02  0.50972468049E+02  0.00000000000E+00 0.  1.
          2   -1    0    0  501    0  0.00000000000E+00 -0.00000000000E+00 -0.23461849879E+03  0.23461849879E+03  0.00000000000E+00 0. -1.
         23    2    1    2    0    0  0.13780126897E+02  0.10418302391E+02 -0.95424571037E+02  0.13154651673E+03  0.88883093918E+02 0.  0.
          5    1    1    2  502    0 -0.45273685234E+02  0.43992090372E+02 -0.45096014869E+02  0.77692557861E+02  0.41800000000E+01 0. -1.
         -5    1    1    2    0  502  0.31493558337E+02 -0.54410392763E+02 -0.43125444833E+02  0.76351892245E+02  0.41800000000E+01 0. -1.
        -11    1    3    3    0    0  0.49595809433E+01 -0.30074530625E+02 -0.34611764378E+01  0.30676612880E+02  0.00000000000E+00 0.  1.
         11    1    3    3    0    0  0.88205459537E+01  0.40492833016E+02 -0.91963394600E+02  0.10086990385E+03  0.00000000000E+00 0. -1.
</event>
<event>
 7    1  0.4274778E-006  0.1395778E+03  0.7561462E-02  0.1213898E+00
          3   -1    0    0  501    0  0.00000000000E+00  0.00000000000E+00  0.78573975999E+03  0.78573975999E+03  0.00000000000E+00 0.  1.
         -3   -1    0    0    0  501 -0.00000000000E+00 -0.00000000000E+00 -0.28796271607E+02  0.28796271607E+02  0.00000000000E+00 0. -1.
         23    2    1    2    0    0 -0.96366205399E+02 -0.21924653430E+02  0.43218620201E+03  0.45276016831E+03  0.91867953235E+02 0.  0.
          5    1    1    2  502    0  0.11373129170E+01 -0.34872733511E+02  0.27933309414E+02  0.44890346379E+02  0.41800000000E+01 0. -1.
         -5    1    1    2    0  502  0.95228892482E+02  0.56797386941E+02  0.29682397696E+03  0.31688551690E+03  0.41800000000E+01 0. -1.
        -11    1    3    3    0    0 -0.87282337927E+01 -0.42208019564E+02  0.17738978867E+03  0.18255091374E+03  0.00000000000E+00 0.  1.
         11    1    3    3    0    0 -0.87637971606E+02  0.20283366134E+02  0.25479641333E+03  0.27020925457E+03  0.00000000000E+00 0. -1.
</event>
<event>
 7    1  0.4274778E-006  0.1039054E+03  0.7561462E-02  0.1272291E+00
          1   -1    0    0  501    0  0.00000000000E+00  0.00000000000E+00  0.70717999326E+02  0.70717999326E+02  0.00000000000E+00 0. -1.
         -1   -1    0    0    0  501 -0.00000000000E+00 -0.00000000000E+00 -0.25322576222E+03  0.25322576222E+03  0.00000000000E+00 0.  1.
         23    2    1    2    0    0 -0.28933674308E+02 -0.65986332260E+02 -0.45208259234E+02  0.12472172009E+03  0.91216046867E+02 0.  0.
          5    1    1    2  502    0  0.62144160708E+02  0.32018397544E+02 -0.13427077951E+03  0.15143707974E+03  0.41800000000E+01 0. -1.
         -5    1    1    2    0  502 -0.33210486400E+02  0.33967934716E+02 -0.30287241542E+01  0.47784961711E+02  0.41800000000E+01 0. -1.
        -11    1    3    3    0    0 -0.44416229489E+02 -0.39649590558E+02 -0.65135288492E+02  0.88246797564E+02  0.00000000000E+00 0.  1.
         11    1    3    3    0    0  0.15482555181E+02 -0.26336741702E+02  0.19927029258E+02  0.36474922529E+02  0.00000000000E+00 0. -1.
</event>
<event>
 6    1  0.4274778E-006  0.1255319E+03  0.7561462E-02  0.1234240E+00
          2   -1    0    0  501    0  0.00000000000E+00  0.00000000000E+00  0.13081816348E+03  0.13081816348E+03  0.00000000000E+00 0.  1.
         -2   -1    0    0    0  501 -0.00000000000E+00 -0.00000000000E+00 -0.16355471520E+03  0.16355471520E+03  0.00000000000E+00 0. -1.
          5    1    1    2  502    0 -0.43698293439E+02 -0.16561535831E+02 -0.38748532456E+02  0.60850197092E+02  0.41800000000E+01 0. -1.
         -5    1    1    2    0  502  0.82092529039E+02 -0.97978356136E+01 -0.21078392477E+02  0.85422198147E+02  0.41800000000E+01 0. -1.
        -11    1    1    2    0    0 -0.67603054524E+02  0.49757375163E+02  0.55917863178E+02  0.10086018435E+03  0.00000000000E+00 0.  1.
         11    1    1    2    0    0  0.29208818924E+02 -0.23398003718E+02 -0.28827489959E+02  0.47240299092E+02  0.00000000000E+00 0. -1.
</event>
<event>
 7    1  0.4274778E-006  0.9073454E+02  0.7561462E-02  0.1301083E+00
          1   -1    0    0  501    0  0.00000000000E+00  0.00000000000E+00  0.18538823543E+03  0.18538823543E+03  0.00000000000E+00 0. -1.
         -1   -1    0    0    0  501 -0.00000000000E+00 -0.00000000000E+00 -0.66526537546E+02  0.66526537546E+02  0.00000000000E+00 0.  1.
         23    2    1    2    0    0  0.87172224459E+01  0.68441630831E+01  0.75646744130E+02  0.11911044897E+03  0.91334750343E+02 0.  0.
          5    1    1    2  502    0 -0.36983316974E+02 -0.34410272225E+02  0.68885714787E+02  0.85525123038E+02  0.41800000000E+01 0.  1.
         -5    1    1    2    0  502  0.28266094528E+02  0.27566109142E+02 -0.25670761029E+02  0.47279200976E+02  0.41800000000E+01 0.  1.
        -11    1    3    3    0    0  0.40826121121E+02 -0.23324706522E+02  0.30599729464E+02  0.56099532471E+02  0.00000000000E+00 0.  1.
         11    1    3    3    0    0 -0.32108898675E+02  0.30168869605E+02  0.45047014665E+02  0.63010916496E+02  0.00000000000E+00 0. -1.
</event>
<event>
 7    1  0.4274778E-006  0.1181372E+03  0.7561462E-02  0.1246202E+00
          1   -1    0    0  501    0  0.00000000000E+00  0.00000000000E+00  0.77208653628E+02  0.77208653628E+02  0.00000000000E+00 0. -1.
         -1   -1    0    0    0  501 -0.00000000000E+00 -0.00000000000E+00 -0.27879286790E+03  0.27879286790E+03  0.00000000000E+00 0.  1.
         23    2    1    2    0    0  0.55615200229E+02  0.65787981377E+02 -0.31854175493E+02  0.12823693932E+03  0.89492542255E+02 0.  0.
          5    1    1    2  502    0  0.33259868076E+02 -0.41334453621E+02 -0.95552061023E+02  0.10937286979E+03  0.41800000000E+01 0. -1.
         -5    1    1    2    0  502 -0.88875068305E+02 -0.24453527756E+02 -0.74177977759E+02  0.11839171242E+03  0.41800000000E+01 0. -1.
        -11    1    3    3    0    0  0.54603114658E+02  0.47223428903E+02 -0.60429953307E+02  0.94145268731E+02  0.00000000000E+00 0.  1.
         11    1    3    3    0    0  0.10120855706E+01  0.18564552474E+02  0.28575777814E+02  0.34091670587E+02  0.00000000000E+00 0. -1.
</event>
<event>
 7    1  0.4736635E-006  0.2737458E+03  0.7561462E-02  0.1099155E+00
         -2   -1    0    0    0  501 -0.00000000000E+00  0.00000000000E+00  0.82157416572E+02  0.82157416572E+02  0.00000000000E+00 0.  1.
          2   -1    0    0  501    0  0.00000000000E+00 -0.00000000000E+00 -0.10733477466E+04  0.10733477466E+04  0.00000000000E+00 0. -1.
         23    2    1    2    0    0 -0.21666440720E+03 -0.16294369507E+03 -0.58954827964E+03  0.65504780996E+03  0.89589877787E+02 0.  0.
          5    1    1    2  502    0  0.12668866024E+03  0.63057336482E+02 -0.10997295233E+03  0.17927009500E+03  0.41800000000E+01 0.  1.
         -5    1    1    2    0  502  0.89975746957E+02  0.99886358589E+02 -0.29166909810E+03  0.32118725824E+03  0.41800000000E+01 0.  1.
        -11    1    3    3    0    0 -0.81609377868E+02 -0.69396907003E+02 -0.33827784255E+03  0.35483506030E+03  0.00000000000E+00 0. -1.
         11    1    3    3    0    0 -0.13505502933E+03 -0.93546788067E+02 -0.25127043709E+03  0.30021274966E+03  0.00000000000E+00 0.  1.
</event>
<event>
 7    1  0.4274778E-006  0.9827751E+02  0.7561462E-02  0.1283960E+00
         -2   -1    0    0    0  501 -0.00000000000E+00  0.00000000000E+00  0.17568277654E+03  0.17568277654E+03  0.00000000000E+00 0.  1.
          2   -1    0    0  501    0  0.00000000000E+00 -0.00000000000E+00 -0.86527867275E+02  0.86527867275E+02  0.00000000000E+00 0. -1.
         23    2    1    2    0    0 -0.16096101798E+02 -0.26017406131E+02 -0.15111109967E+02  0.96514219184E+02  0.90280999913E+02 0.  0.
          5    1    1    2  502    0 -0.49888734786E+02  0.50861425920E+01  0.14709584426E+02  0.52427082496E+02  0.41800000000E+01 0. -1.
         -5    1    1    2    0  502  0.65984836585E+02  0.20931263539E+02  0.89556434805E+02  0.11326934213E+03  0.41800000000E+01 0. -1.
        -11    1    3    3    0    0 -0.39918234196E+02  0.21697526993E+01  0.20761855639E+02  0.45046952146E+02  0.00000000000E+00 0.  1.
         11    1    3    3    0    0  0.23822132397E+02 -0.28187158831E+02 -0.35872965606E+02  0.51467267037E+02  0.00000000000E+00 0. -1.
</event>
<event>
 7    1  0.4274778E-006  0.1205743E+03  0.7561462E-02  0.1242153E+00
         -1   -1    0    0    0  501 -0.00000000000E+00  0.00000000000E+00  0.13820175363E+03  0.13820175363E+03  0.00000000000E+00 0.  1.
          1   -1    0    0  501    0  0.00000000000E+00 -0.00000000000E+00 -0.11709214438E+03  0.11709214438E+03  0.00000000000E+00 0. -1.
         23    2    1    2    0    0 -0.27052808292E+02  0.47467885282E+02 -0.29526250860E+02  0.10970493714E+03  0.90434059809E+02 0.  0.
          5    1    1    2  502    0  0.27892751313E+02  0.39984121656E+02  0.17185950434E+02  0.51861014767E+02  0.41800000000E+01 0.  1.
         -5    1    1    2    0  502 -0.83994302030E+00 -0.87452006938E+02  0.33449909679E+02  0.93727946095E+02  0.41800000000E+01 0.  1.
        -11    1    3    3    0    0  0.33072070266E+02  0.14758000505E+02 -0.17453405282E+02  0.40201763226E+02  0.00000000000E+00 0. -1.
         11    1    3    3    0    0 -0.60124878558E+02  0.32709884777E+02 -0.12072845578E+02  0.69503173914E+02  0.00000000000E+00 0.  1.
</event>
<event>
 7    1  0.4274778E-006  0.1059759E+03  0.7561462E-02  0.1268209E+00
          2   -1    0    0  501    0  0.00000000000E+00  0.00000000000E+00  0.25996625304E+03  0.25996625304E+03  0.00000000000E+00 0. -1.
         -2   -1    0    0    0  501 -0.00000000000E+00 -0.00000000000E+00 -0.79092612353E+02  0.79092612353E+02  0.00000000000E+00 0.  1.
         23    2    1    2    0    0  0.11599934273E+02 -0.20906763667E+02  0.18917807914E+03  0.21143325683E+03  0.91345636034E+02 0.  0.
          5    1    1    2  502    0  0.13553200290E+02  0.70306325162E+02 -0.62739214041E+01  0.71996549124E+02  0.41800000000E+01 0. -1.
         -5    1    1    2    0  502 -0.25153134563E+02 -0.49399561496E+02 -0.20305170576E+01  0.55629059437E+02  0.41800000000E+01 0. -1.
        -11    1    3    3    0    0  0.44450648657E+02 -0.25843653585E+02  0.15691757197E+03  0.16512685726E+03  0.00000000000E+00 0. -1.
         11    1    3    3    0    0 -0.32850714384E+02  0.49368899183E+01  0.32260507175E+02  0.46306399567E+02  0.00000000000E+00 0.  1.
</event>
<event>
 7    1  0.4274778E-006  0.1072291E+03  0.7561462E-02  0.1265789E+00
          2   -1    0    0  501    0  0.00000000000E+00  0.00000000000E+00  0.42940172655E+03  0.42940172655E+03  0.00000000000E+00 0. -1.
         -2   -1    0    0    0  501 -0.00000000000E+00 -0.00000000000E+00 -0.46932967269E+02  0.46932967269E+02  0.00000000000E+00 0.  1.
         23    2    1    2    0    0 -0.28449664253E+02  0.82855998024E+02  0.21912442313E+03  0.25271987139E+03  0.90428539623E+02 0.  0.
          5    1    1    2  502    0  0.26448671822E+02 -0.68195362404E+02  0.15389073183E+02  0.74862778922E+02  0.41800000000E+01 0. -1.
         -5    1    1    2    0  502  0.20009924309E+01 -0.14660635620E+02  0.14795526296E+03  0.14875204350E+03  0.41800000000E+01 0. -1.
        -11    1    3    3    0    0  0.25056330620E+02  0.64591286307E+02  0.11601159072E+03  0.13512417678E+03  0.00000000000E+00 0.  1.
         11    1    3    3    0    0 -0.53505994873E+02  0.18264711717E+02  0.10311283241E+03  0.11759569460E+03  0.00000000000E+00 0. -1.
</event>
<event>
 6    1  0.4274778E-006  0.4971502E+02  0.7561462E-02  0.1446885E+00
         -2   -1    0    0    0  501 -0.00000000000E+00  0.00000000000E+00  0.21361428726E+02  0.21361428726E+02  0.00000000000E+00 0. -1.
          2   -1    0    0  501    0  0.00000000000E+00 -0.00000000000E+00 -0.43415619974E+03  0.43415619974E+03  0.00000000000E+00 0.  1.
          5    1    1    2  502    0  0.11404296083E+02 -0.18767617851E+02  0.10851189493E+02  0.24849590789E+02  0.41800000000E+01 0. -1.
         -5    1    1    2    0  502 -0.19135620694E+02  0.25555853573E+02 -0.19729794085E+03  0.19990803760E+03  0.41800000000E+01 0. -1.
        -11    1    1    2    0    0 -0.13793384010E+02  0.10445760844E+02 -0.83071354890E+02  0.84854118140E+02  0.00000000000E+00 0.  1.
         11    1    1    2    0    0  0.21524708621E+02 -0.17233996565E+02 -0.14327666476E+03  0.14590588194E+03  0.00000000000E+00 0. -1.
</event>
<event>
 7    1  0.4274778E-006  0.1128318E+03  0.7561462E-02  0.1255414E+00
          1   -1    0    0  501    0  0.00000000000E+00  0.00000000000E+00  0.58770801722E+03  0.58770801722E+03  0.00000000000E+00 0. -1.
         -1   -1    0    0    0  501 -0.00000000000E+00 -0.00000000000E+00 -0.25421119159E+02  0.25421119159E+02  0.00000000000E+00 0.  1.
         23    2    1    2    0    0  0.65758302479E+01  0.37685425550E+02  0.34776536842E+03  0.36187149226E+03  0.92448864773E+02 0.  0.
          5    1    1    2  502    0  0.40955062094E+02  0.25822443012E+02  0.10753617921E+03  0.11800685537E+03  0.41800000000E+01 0.  1.
         -5    1    1    2    0  502 -0.47530892342E+02 -0.63507868562E+02  0.10698535044E+03  0.13325078876E+03  0.41800000000E+01 0.  1.
        -11    1    3    3    0    0 -0.34174971962E+02  0.44715586492E+02  0.16009748115E+03  0.16970154936E+03  0.00000000000E+00 0.  1.
         11    1    3    3    0    0  0.40750802210E+02 -0.70301609422E+01  0.18766788727E+03  0.19216994290E+03  0.00000000000E+00 0. -1.
</event>
<event>
 7    1  0.4274778E-006  0.1926563E+03  0.7561462E-02  0.1156087E+00
         -2   -1    0    0    0  501 -0.00000000000E+00  0.00000000000E+00  0.48592831771E+03  0.48592831771E+03  0.00000000000E+00 0.  1.
          2   -1    0    0  501    0  0.00000000000E+00 -0.00000000000E+00 -0.95010522727E+02  0.95010522727E+02  0.00000000000E+00 0. -1.
         23    2    1    2    0    0 -0.18339372762E+03 -0.62451272513E+01  0.21919360555E+03  0.30020859545E+03  0.91690256424E+02 0.  0.
          5    1    1    2  502    0  0.33312523238E+02 -0.30318168908E+02  0.10123996341E+03  0.11088696119E+03  0.41800000000E+01 0.  1.
         -5    1    1    2    0  502  0.15008120438E+03  0.36563296159E+02  0.70484226024E+02  0.16984328380E+03  0.41800000000E+01 0.  1.
        -11    1    3    3    0    0 -0.24217801697E+02 -0.10308585927E+02  0.94122097492E+02  0.97732993912E+02  0.00000000000E+00 0.  1.
         11    1    3    3    0    0 -0.15917592592E+03  0.40634586758E+01  0.12507150806E+03  0.20247560153E+03  0.00000000000E+00 0. -1.
</event>
<event>
 7    1  0.4274778E-006  0.1445330E+03  0.7561462E-02  0.1207356E+00
          2   -1    0    0  501    0  0.00000000000E+00  0.00000000000E+00  0.20499821321E+03  0.20499821321E+03  0.00000000000E+00 0.  1.
         -2   -1    0    0    0  501 -0.00000000000E+00 -0.00000000000E+00 -0.11365094827E+03  0.11365094827E+03  0.00000000000E+00 0. -1.
         23    2    1    2    0    0 -0.94429035091E+02 -0.43425720167E+02  0.73660096869E+02  0.15505449310E+03  0.88393722180E+02 0.  0.
          5    1    1    2  502    0  0.49461643728E+02  0.86176700131E+02  0.19668020364E+02  0.10137643351E+03  0.41800000000E+01 0.  1.
         -5    1    1    2    0  502  0.44967391363E+02 -0.42750979964E+02 -0.19808522990E+01  0.62218234865E+02  0.41800000000E+01 0.  1.
        -11    1    3    3    0    0  0.15537137534E+01 -0.30546510734E+02 -0.40956658103E+01  0.30858999059E+02  0.00000000000E+00 0. -1.
         11    1    3    3    0    0 -0.95982748845E+02 -0.12879209432E+02  0.77755762679E+02  0.12419549405E+03  0.00000000000E+00 0.  1.
</event>
<event>
 7    1  0.4274778E-006  0.9037097E+02  0.7561462E-02  0.1301956E+00
          2   -1    0    0  501    0  0.00000000000E+00  0.00000000000E+00  0.33752154030E+03  0.33752154030E+03  0.00000000000E+00 0.  1.
         -2   -1    0    0    0  501 -0.00000000000E+00 -0.00000000000E+00 -0.38246248895E+02  0.38246248895E+02  0.00000000000E+00 0. -1.
         23    2    1    2    0    0  0.31218669550E+02 -0.98937384241E+01  0.14685834714E+03  0.17589130309E+03  0.91092727422E+02 0.  0.
          5    1    1    2  502    0 -0.62231592865E+01 -0.48966309008E+02  0.21270849120E+02  0.53910560670E+02  0.41800000000E+01 0.  1.
         -5    1    1    2    0  502 -0.24995510263E+02  0.58860047432E+02  0.13114609515E+03  0.14596592544E+03  0.41800000000E+01 0.  1.
        -11    1    3    3    0    0  0.42472175503E+01 -0.31979835915E+02  0.87146520177E+01  0.33416970567E+02  0.00000000000E+00 0. -1.
         11    1    3    3    0    0  0.26971451999E+02  0.22086097491E+02  0.13814369513E+03  0.14247433252E+03  0.00000000000E+00 0.  1.
</event>
<event>
 7    1  0.4274778E-006  0.9573772E+02  0.7561462E-02  0.1289523E+00
          1   -1    0    0  501    0  0.00000000000E+00  0.00000000000E+00  0.27116800515E+03  0.27116800515E+03  0.00000000000E+00 0. -1.
         -1   -1    0    0    0  501 -0.00000000000E+00 -0.00000000000E+00 -0.69148532324E+02  0.69148532324E+02  0.00000000000E+00 0.  1.
         23    2    1    2    0    0  0.50563724013E+02  0.14928071721E+02  0.17117863215E+03  0.20110497389E+03  0.91441505392E+02 0.  0.
          5    1    1    2  502    0  0.18231507808E+02 -0.19733999394E+02 -0.34629964611E+02  0.44028689033E+02  0.41800000000E+01 0.  1.
         -5    1    1    2    0  502 -0.68795231821E+02  0.48059276728E+01  0.65470805285E+02  0.95182874546E+02  0.41800000000E+01 0.  1.
        -11    1    3    3    0    0 -0.20342707304E+02 -0.60994706186E+01  0.94046418926E+01  0.23226634957E+02  0.00000000000E+00 0.  1.
         11    1    3    3    0    0  0.70906431317E+02  0.21027542340E+02  0.16177399026E+03  0.17787833894E+03  0.00000000000E+00 0. -1.
</event>
<event>
 7    1  0.4274778E-006  0.2613036E+03  0.7561462E-02  0.1106363E+00
          1   -1    0    0  501    0  0.00000000000E+00  0.00000000000E+00  0.58528879766E+03  0.58528879766E+03  0.00000000000E+00 0. -1.
         -1   -1    0    0    0  501 -0.00000000000E+00 -0.00000000000E+00 -0.12676328817E+03  0.12676328817E+03  0.00000000000E+00 0.  1.
         23    2    1    2    0    0 -0.22298575010E+03 -0.87190987598E+02  0.30225668905E+03  0.39910774042E+03  0.10297072069E+03 0.  0.
          5    1    1    2  502    0  0.59888098535E+00  0.38684933636E+02  0.41297545085E+01  0.39133234228E+02  0.41800000000E+01 0. -1.
         -5    1    1    2    0  502  0.22238686912E+03  0.48506053962E+02  0.15213906593E+03  0.27381111119E+03  0.41800000000E+01 0.  1.
        -11    1    3    3    0    0 -0.51690035570E+02 -0.65402748308E+02  0.65219364576E+02  0.10584396430E+03  0.00000000000E+00 0.  1.
         11    1    3    3    0    0 -0.17129571453E+03 -0.21788239290E+02  0.23703732447E+03  0.29326377612E+03  0.00000000000E+00 0. -1.
</event>
<event>
 7    1  0.4274778E-006  0.1734311E+03  0.7561462E-02  0.1174316E+00
          2   -1    0    0  501    0  0.00000000000E+00  0.00000000000E+00  0.76060086608E+02  0.76060086608E+02  0.00000000000E+00 0. -1.
         -2   -1    0    0    0  501 -0.00000000000E+00 -0.00000000000E+00 -0.64406483169E+03  0.64406483169E+03  0.00000000000E+00 0.  1.
         23    2    1    2    0    0  0.11240474119E+03  0.11076312732E+03 -0.95667725161E+02  0.20665169211E+03  0.93001677392E+02 0.  0.
          5    1    1    2  502    0 -0.10407757108E+02 -0.81393623812E+02 -0.29983816947E+03  0.31089169123E+03  0.41800000000E+01 0.  1.
         -5    1    1    2    0  502 -0.10199698409E+03 -0.29369503507E+02 -0.17249885045E+03  0.20258153496E+03  0.41800000000E+01 0.  1.
        -11    1    3    3    0    0  0.84419460979E+02  0.91542936707E+02 -0.23259769728E+02  0.12667979926E+03  0.00000000000E+00 0. -1.
         11    1    3    3    0    0  0.27985280215E+02  0.19220190612E+02 -0.72407955432E+02  0.79971892848E+02  0.00000000000E+00 0.  1.
</event>
<event>
 7    1  0.4274778E-006  0.1395203E+03  0.7561462E-02  0.1213976E+00
          2   -1    0    0  501    0  0.00000000000E+00  0.00000000000E+00  0.53878727558E+02  0.53878727558E+02  0.00000000000E+00 0.  1.
         -2   -1    0    0    0  501 -0.00000000000E+00 -0.00000000000E+00 -0.58977752963E+03  0.58977752963E+03  0.00000000000E+00 0. -1.
         23    2    1    2    0    0 -0.92340609430E+02 -0.51275947230E+02 -0.85912044085E+02  0.16481258746E+03  0.92877870091E+02 0.  0.
          5    1    1    2  502    0  0.12119441190E+03  0.41573841103E+02 -0.40123452464E+03  0.42121619853E+03  0.41800000000E+01 0. -1.
         -5    1    1    2    0  502 -0.28853802471E+02  0.97021061265E+01 -0.48752233347E+02  0.57627471198E+02  0.41800000000E+01 0. -1.
        -11    1    3    3    0    0 -0.58746267653E+02 -0.61454376440E+02 -0.15895396757E+02  0.86489467479E+02  0.00000000000E+00 0.  1.
         11    1    3    3    0    0 -0.33594341778E+02  0.10178429211E+02 -0.70016647328E+02  0.78323119982E+02  0.00000000000E+00 0. -1.
</event>
<event>
 7    1  0.4274778E-006  0.9562299E+02  0.7561462E-02  0.1289779E+00
         -1   -1    0    0    0  501 -0.00000000000E+00  0.00000000000E+00  0.49079638941E+03  0.49079638941E+03  0.00000000000E+00 0.  1.
          1   -1    0    0  501    0  0.00000000000E+00 -0.00000000000E+00 -0.34530404706E+02  0.34530404706E+02  0.00000000000E+00 0. -1.
         23    2    1    2    0    0 -0.36941133335E+01  0.53534425007E+02  0.11138742887E+03  0.15455893743E+03  0.92745483421E+02 0.  0.
          5    1    1    2  502    0  0.50351507984E+02 -0.11111096717E+02  0.25914408386E+03  0.26425718424E+03  0.41800000000E+01 0.  1.
         -5    1    1    2    0  502 -0.46657394651E+02 -0.42423328290E+02  0.85734471975E+02  0.10651067244E+03  0.41800000000E+01 0.  1.
        -11    1    3    3    0    0 -0.29026837931E+02  0.29809257022E+02  0.11238208710E+03  0.11983690010E+03  0.00000000000E+00 0.  1.
         11    1    3    3    0    0  0.25332724597E+02  0.23725167985E+02 -0.99465822929E+00  0.34722037331E+02  0.00000000000E+00 0. -1.
</event>
<event>
 7    1  0.4274778E-006  0.2073145E+03  0.7561462E-02  0.1143710E+00
         -2   -1    0    0    0  501 -0.00000000000E+00  0.00000000000E+00  0.90835933908E+02  0.90835933908E+02  0.00000000000E+00 0.  1.
          2   -1    0    0  501    0  0.00000000000E+00 -0.00000000000E+00 -0.58606933311E+03  0.58606933311E+03  0.00000000000E+00 0. -1.
         23    2    1    2    0    0  0.61901150820E+02  0.19306508182E+03 -0.25859700670E+03  0.34112268883E+03  0.91577282499E+02 0.  0.
          5    1    1    2  502    0 -0.62730290584E+02 -0.12797359836E+03 -0.22946936961E+03  0.27015920347E+03  0.41800000000E+01 0. -1.
         -5    1    1    2    0  502  0.82913976366E+00 -0.65091483458E+02 -0.71670228909E+01  0.65623374713E+02  0.41800000000E+01 0. -1.
        -11    1    3    3    0    0  0.19617638629E+02  0.12610951027E+03 -0.94130038916E+02  0.15858412453E+03  0.00000000000E+00 0.  1.
         11    1    3    3    0    0  0.42283512192E+02  0.66955571544E+02 -0.16446696779E+03  0.18253856430E+03  0.00000000000E+00 0. -1.
</event>
<event>
 7    1  0.4274778E-006  0.1218798E+03  0.7561462E-02  0.1240028E+00
          2   -1    0    0  501    0  0.00000000000E+00  0.00000000000E+00  0.57757772829E+03  0.57757772829E+03  0.00000000000E+00 0. -1.
         -2   -1    0    0    0  501 -0.00000000000E+00 -0.00000000000E+00 -0.33460170177E+02  0.33460170177E+02  0.00000000000E+00 0.  1.
         23    2    1    2    0    0 -0.52213586111E+02 -0.69948957908E+02  0.30890948391E+03  0.33069954116E+03  0.79485860293E+02 0.  0.
          5    1    1    2  502    0  0.58598583583E+02  0.88405081185E+02  0.23759256286E+03  0.26022480801E+03  0.41800000000E+01 0.  1.
         -5    1    1    2    0  502 -0.63849974715E+01 -0.18456123278E+02 -0.23844886584E+01  0.20113549297E+02  0.41800000000E+01 0.  1.
        -11    1    3    3    0    0 -0.35223798569E+02  0.94316295856E+01  0.83377357621E+02  0.91002502087E+02  0.00000000000E+00 0. -1.
         11    1    3    3    0    0 -0.16989787543E+02 -0.79380587493E+02  0.22553212629E+03  0.23969703908E+03  0.00000000000E+00 0.  1.
</event>
<event>
 7    1  0.4274778E-006  0.1259780E+03  0.7561462E-02  0.1233549E+00
          3   -1    0    0  501    0  0.00000000000E+00  0.00000000000E+00  0.18466838469E+03  0.18466838469E+03  0.00000000000E+00 0. -1.
         -3   -1    0    0    0  501 -0.00000000000E+00 -0.00000000000E+00 -0.94929070776E+02  0.94929070776E+02  0.00000000000E+00 0.  1.
         23    2    1    2    0    0  0.68739501809E+02  0.39406894554E+01  0.72780288177E+02  0.13591951402E+03  0.91850399032E+02 0.  0.
          5    1    1    2  502    0  0.35617664488E+02 -0.93281691746E+01 -0.31257451207E+01  0.37187033308E+02  0.41800000000E+01 0. -1.
         -5    1    1    2    0  502 -0.10435716630E+03  0.53874797192E+01  0.20084770857E+02  0.10649090814E+03  0.41800000000E+01 0. -1.
        -11    1    3    3    0    0  0.58055938687E+02  0.41440547532E+02  0.28220916002E+02  0.76708741983E+02  0.00000000000E+00 0.  1.
         11    1    3    3    0    0  0.10683563122E+02 -0.37499858077E+02  0.44559372175E+02  0.59210772038E+02  0.00000000000E+00 0. -1.
</event>
<event>
 7    1  0.4274778E-006  0.7466291E+02  0.7561462E-02  0.1344918E+00
          2   -1    0    0  501    0  0.00000000000E+00  0.00000000000E+00  0.51736043805E+03  0.51736043805E+03  0.00000000000E+00 0. -1.
         -2   -1    0    0    0  501 -0.00000000000E+00 -0.00000000000E+00 -0.29384593675E+02  0.29384593675E+02  0.00000000000E+00 0.  1.
         23    2    1    2    0    0 -0.15244613849E+02 -0.15566720681E+01  0.17751214603E+03  0.19989100453E+03  0.90614735137E+02 0.  0.
          5    1    1    2  502    0  0.34671812525E+02 -0.13290241087E+02  0.31857270019E+03  0.32075660990E+03  0.41800000000E+01 0. -1.
         -5    1    1    2    0  502 -0.19427198677E+02  0.14846913155E+02 -0.81090018407E+01  0.26097417296E+02  0.41800000000E+01 0.  1.
        -11    1    3    3    0    0  0.35794656626E+02  0.29503388248E+01  0.10598679231E+03  0.11190693493E+03  0.00000000000E+00 0. -1.
         11    1    3    3    0    0 -0.51039270474E+02 -0.45070108929E+01  0.71525353723E+02  0.87984069597E+02  0.00000000000E+00 0.  1.
</event>
<event>
 7    1  0.4274778E-006  0.1430103E+03  0.7561462E-02  0.1209335E+00
          1   -1    0    0  501    0  0.00000000000E+00  0.00000000000E+00  0.82452017780E+03  0.82452017780E+03  0.00000000000E+00 0. -1.
         -1   -1    0    0    0  501 -0.00000000000E+00 -0.00000000000E+00 -0.28351046607E+02  0.28351046607E+02  0.00000000000E+00 0.  1.
         23    2    1    2    0    0 -0.95037738396E+02  0.47268404154E+02  0.32161776674E+03  0.35076315058E+03  0.91270620529E+02 0.  0.
          5    1    1    2  502    0  0.15313487474E+02  0.31951741617E+02  0.23227778353E+03  0.23500182512E+03  0.41800000000E+01 0.  1.
         -5    1    1    2    0  502  0.79724250921E+02 -0.79220145771E+02  0.24227358092E+03  0.26710624870E+03  0.41800000000E+01 0.  1.
        -11    1    3    3    0    0 -0.35657883347E+02  0.66500573367E+02  0.14532700449E+03  0.16374904316E+03  0.00000000000E+00 0.  1.
         11    1    3    3    0    0 -0.59379855048E+02 -0.19232169213E+02  0.17629076225E+03  0.18701410742E+03  0.00000000000E+00 0. -1.
</event>
<event>
 7    1  0.4274778E-006  0.1062475E+03  0.7561462E-02  0.1267681E+00
          2   -1    0    0  501    0  0.00000000000E+00  0.00000000000E+00  0.20213796556E+02  0.20213796556E+02  0.00000000000E+00 0. -1.
         -2   -1    0    0    0  501 -0.00000000000E+00 -0.00000000000E+00 -0.14058704156E+04  0.14058704156E+04  0.00000000000E+00 0.  1.
         23    2    1    2    0    0  0.31251431420E+01 -0.96976266217E+02 -0.28912392841E+03  0.31818280770E+03  0.90738582813E+02 0.  0.
          5    1    1    2  502    0 -0.17288652392E+02  0.36031790951E+02 -0.80852397858E+02  0.90287153572E+02  0.41800000000E+01 0. -1.
         -5    1    1    2    0  502  0.14163509250E+02  0.60944475266E+02 -0.10156802927E+04  0.10176142508E+04  0.41800000000E+01 0. -1.
        -11    1    3    3    0    0  0.25777638093E+02 -0.68675127035E+02 -0.91556899456E+02  0.11731762671E+03  0.00000000000E+00 0. -1.
         11    1    3    3    0    0 -0.22652494951E+02 -0.28301139182E+02 -0.19756702895E+03  0.20086518099E+03  0.00000000000E+00 0.  1.
</event>
<event>
 7    1  0.4274778E-006  0.1311061E+03  0.7561462E-02  0.1225824E+00
         -2   -1    0    0    0  501 -0.00000000000E+00  0.00000000000E+00  0.76831745441E+02  0.76831745441E+02  0.00000000000E+00 0. -1.
          2   -1    0    0  501    0  0.00000000000E+00 -0.00000000000E+00 -0.26430913477E+03  0.26430913477E+03  0.00000000000E+00 0.  1.
         23    2    1    2    0    0 -0.83782073098E+02  0.36739458580E+02 -0.96074807464E+02  0.16121675279E+03  0.91603761721E+02 0.  0.
          5    1    1    2  502    0  0.53395862411E+01  0.30588843205E+02  0.12093733564E+02  0.33584509842E+02  0.41800000000E+01 0. -1.
         -5    1    1    2    0  502  0.78442486857E+02 -0.67328301785E+02 -0.10349631543E+03  0.14633961758E+03  0.41800000000E+01 0. -1.
        -11    1    3    3    0    0 -0.89594953442E+02 -0.63564286654E+00 -0.53879037550E+02  0.10454955959E+03  0.00000000000E+00 0.  1.
         11    1    3    3    0    0  0.58128803435E+01  0.37375101447E+02 -0.42195769914E+02  0.56667193196E+02  0.00000000000E+00 0. -1.
</event>
<event>
 7    1  0.4274778E-006  0.1250432E+03  0.7561462E-02  0.1235002E+00
          2   -1    0    0  501    0  0.00000000000E+00  0.00000000000E+00  0.97384494185E+03  0.97384494185E+03  0.00000000000E+00 0.  1.
         -2   -1    0    0    0  501 -0.00000000000E+00 -0.00000000000E+00 -0.16966415398E+02  0.16966415398E+02  0.00000000000E+00 0. -1.
         23    2    1    2    0    0  0.60103810521E+02  0.26545122761E+02  0.50879034049E+03  0.52097369966E+03  0.90713138969E+02 0.  0.
          5    1    1    2  502    0 -0.28098079251E+02  0.50155840800E+02  0.20179084055E+03  0.20986215989E+03  0.41800000000E+01 0.  1.
         -5    1    1    2    0  502 -0.32005731270E+02 -0.76700963560E+02  0.24629734541E+03  0.25997549769E+03  0.41800000000E+01 0.  1.
        -11    1    3    3    0    0  0.82743590121E+02  0.16098856221E+02  0.43478108565E+03  0.44287725988E+03  0.00000000000E+00 0.  1.
         11    1    3    3    0    0 -0.22639779600E+02  0.10446266539E+02  0.74009254838E+02  0.78096439782E+02  0.00000000000E+00 0. -1.
</event>
<event>
 7    1  0.4274778E-006  0.1604552E+03  0.7561462E-02  0.1188184E+00
          2   -1    0    0  501    0  0.00000000000E+00  0.00000000000E+00  0.19156456609E+03  0.19156456609E+03  0.00000000000E+00 0. -1.
         -2   -1    0    0    0  501 -0.00000000000E+00 -0.00000000000E+00 -0.16523276260E+03  0.16523276260E+03  0.00000000000E+00 0.  1.
         23    2    1    2    0    0 -0.13954311432E+03 -0.11594704150E+02  0.30947312787E+02  0.16898054320E+03  0.89386631495E+02 0.  0.
          5    1    1    2  502    0  0.46691313694E+01  0.41165694788E+02  0.22062098474E+02  0.47123495246E+02  0.41800000000E+01 0. -1.
         -5    1    1    2    0  502  0.13487398296E+03 -0.29570990637E+02 -0.26677607765E+02  0.14069329025E+03  0.41800000000E+01 0. -1.
        -11    1    3    3    0    0 -0.43285843320E+02  0.45625049609E+01  0.53335867217E+02  0.68841814439E+02  0.00000000000E+00 0. -1.
         11    1    3    3    0    0 -0.96257271005E+02 -0.16157209111E+02 -0.22388554430E+02  0.10013872876E+03  0.00000000000E+00 0.  1.
</event>
<event>
 7    1  0.4274778E-006  0.1752523E+03  0.7561462E-02  0.1172479E+00
          1   -1    0    0  501    0  0.00000000000E+00  0.00000000000E+00  0.21456862091E+03  0.21456862091E+03  0.00000000000E+00 0. -1.
         -1   -1    0    0    0  501 -0.00000000000E+00 -0.00000000000E+00 -0.16248108543E+03  0.16248108543E+03  0.00000000000E+00 0.  1.
         23    2    1    2    0    0  0.12493039785E+03 -0.75568162266E+02  0.68288563800E+02  0.18421056938E+03  0.89174292645E+02 0.  0.
          5    1    1    2  502    0 -0.55754322335E+02  0.10259754780E+03 -0.65256205079E+00  0.11684476672E+03  0.41800000000E+01 0.  1.
         -5    1    1    2    0  502 -0.69176075518E+02 -0.27029385530E+02 -0.15548466271E+02  0.75994370249E+02  0.41800000000E+01 0.  1.
        -11    1    3    3    0    0  0.51146125620E+02  0.33264005540E+01 -0.81256239970E+01  0.51894285542E+02  0.00000000000E+00 0.  1.
         11    1    3    3    0    0  0.73784272233E+02 -0.78894562820E+02  0.76414187797E+02  0.13231628384E+03  0.00000000000E+00 0. -1.
</event>
<event>
 7    1  0.5599421E-006  0.1356880E+03  0.7561462E-02  0.1219252E+00
          1   -1    0    0  501    0  0.00000000000E+00  0.00000000000E+00  0.34714298028E+03  0.34714298028E+03  0.00000000000E+00 0. -1.
         -1   -1    0    0    0  501 -0.00000000000E+00 -0.00000000000E+00 -0.85756180684E+02  0.85756180684E+02  0.00000000000E+00 0.  1.
         23    2    1    2    0    0 -0.10337560771E+03  0.64811532670E+02  0.19127024412E+03  0.24461462807E+03  0.91460149480E+02 0.  0.
          5    1    1    2  502    0  0.61240661283E+02 -0.82731513912E+02 -0.16773250114E+01  0.10303013058E+03  0.41800000000E+01 0. -1.
         -5    1    1    2    0  502  0.42134946428E+02  0.17919981242E+02  0.71793880490E+02  0.85254402314E+02  0.41800000000E+01 0. -1.
        -11    1    3    3    0    0 -0.70536289010E+02  0.49341448263E+02  0.51727432202E+02  0.10042745554E+03  0.00000000000E+00 0.  1.
         11    1    3    3    0    0 -0.32839318701E+02  0.15470084407E+02  0.13954281191E+03  0.14418717253E+03  0.00000000000E+00 0. -1.
</event>
<event>
 7    1  0.4274778E-006  0.7353941E+02  0.7561462E-02  0.1348455E+00
         -1   -1    0    0    0  501 -0.00000000000E+00  0.00000000000E+00  0.25434455156E+02  0.25434455156E+02  0.00000000000E+00 0.  1.
          1   -1    0    0  501    0  0.00000000000E+00 -0.00000000000E+00 -0.59518866386E+03  0.59518866386E+03  0.00000000000E+00 0. -1.
         23    2    1    2    0    0  0.86559701168E+01  0.34949621824E+02 -0.36740933994E+03  0.38004988406E+03  0.90287814342E+02 0.  0.
          5    1    1    2  502    0  0.22014849437E+02 -0.18052583714E+01 -0.19295512503E+03  0.19426030276E+03  0.41800000000E+01 0.  1.
         -5    1    1    2    0  502 -0.30670819554E+02 -0.33144363453E+02 -0.93897437362E+01  0.46312932192E+02  0.41800000000E+01 0.  1.
        -11    1    3    3    0    0  0.26658438563E+02  0.49418749767E+02 -0.33811478027E+03  0.34274551756E+03  0.00000000000E+00 0. -1.
         11    1    3    3    0    0 -0.18002468446E+02 -0.14469127943E+02 -0.29294559669E+02  0.37304366498E+02  0.00000000000E+00 0.  1.
</event>
<event>
 7    1  0.4274778E-006  0.2387753E+03  0.7561462E-02  0.1120611E+00
         -2   -1    0    0    0  501 -0.00000000000E+00  0.00000000000E+00  0.43974192420E+02  0.43974192420E+02  0.00000000000E+00 0.  1.
          2   -1    0    0  501    0  0.00000000000E+00 -0.00000000000E+00 -0.14117444499E+04  0.14117444499E+04  0.00000000000E+00 0. -1.
         23    2    1    2    0    0 -0.50911537812E+02 -0.21124034028E+03 -0.50676494577E+03  0.55895130087E+03  0.91659044481E+02 0.  0.
          5    1    1    2  502    0  0.45810090627E+02  0.22799749826E+03 -0.79154105564E+03  0.82500675075E+03  0.41800000000E+01 0. -1.
         -5    1    1    2    0  502  0.51014471852E+01 -0.16757157983E+02 -0.69464256084E+02  0.71760590719E+02  0.41800000000E+01 0. -1.
        -11    1    3    3    0    0 -0.42461867472E+02 -0.50460784643E+02 -0.22462428328E+03  0.23410546686E+03  0.00000000000E+00 0. -1.
         11    1    3    3    0    0 -0.84496703408E+01 -0.16077955564E+03 -0.28214066250E+03  0.32484583401E+03  0.00000000000E+00 0.  1.
</event>
<event>
 7    1  0.4274778E-006  0.1110300E+03  0.7561462E-02  0.1258674E+00
         -1   -1    0    0    0  501 -0.00000000000E+00  0.00000000000E+00  0.18607978779E+03  0.18607978779E+03  0.00000000000E+00 0.  1.
          1   -1    0    0  501    0  0.00000000000E+00 -0.00000000000E+00 -0.79831633344E+02  0.79831633344E+02  0.00000000000E+00 0. -1.
         23    2    1    2    0    0  0.96392613116E+01  0.29667893680E+02 -0.66395204991E+01  0.94552446206E+02  0.89011137377E+02 0.  0.
          5    1    1    2  502    0 -0.12312403450E+02 -0.78394550827E+02  0.76885667461E+02  0.11057205406E+03  0.41800000000E+01 0. -1.
         -5    1    1    2    0  502  0.26731421384E+01  0.48726657147E+02  0.36002007484E+02  0.60786920868E+02  0.41800000000E+01 0. -1.
        -11    1    3    3    0    0  0.43308672916E+02 -0.69598329010E+01  0.26365336505E+01  0.43943506158E+02  0.00000000000E+00 0.  1.
         11    1    3    3    0    0 -0.33669411604E+02  0.36627726581E+02 -0.92760541496E+01  0.50608940048E+02  0.00000000000E+00 0. -1.
</event>
<event>
 7    1  0.4274778E-006  0.1889121E+03  0.7561462E-02  0.1159446E+00
          2   -1    0    0  501    0  0.00000000000E+00  0.00000000000E+00  0.15405543982E+04  0.15405543982E+04  0.00000000000E+00 0. -1.
         -2   -1    0    0    0  501 -0.00000000000E+00 -0.00000000000E+00 -0.59926498386E+02  0.59926498386E+02  0.00000000000E+00 0.  1.
         23    2    1    2    0    0 -0.10297048006E+03  0.46414931236E+02  0.30744301417E+03  0.33600643490E+03  0.74979008577E+02 0.  0.
          5    1    1    2  502    0 -0.68575775236E+02 -0.94026474388E+01  0.10445405485E+04  0.10468397569E+04  0.41800000000E+01 0. -1.
         -5    1    1    2    0  502  0.17154625530E+03 -0.37012283797E+02  0.12864433716E+03  0.21763470482E+03  0.41800000000E+01 0.  1.
        -11    1    3    3    0    0 -0.35639005128E+02 -0.17849964148E+02  0.64247080009E+02  0.75607190109E+02  0.00000000000E+00 0. -1.
         11    1    3    3    0    0 -0.67331474933E+02  0.64264895384E+02  0.24319593416E+03  0.26039924479E+03  0.00000000000E+00 0.  1.
</event>
<event>
 7    1  0.4274778E-006  0.1018132E+03  0.7561462E-02  0.1276529E+00
         -1   -1    0    0    0  501 -0.00000000000E+00  0.00000000000E+00  0.70806322153E+03  0.70806322153E+03  0.00000000000E+00 0.  1.
          1   -1    0    0  501    0  0.00000000000E+00 -0.00000000000E+00 -0.20425460788E+02  0.20425460788E+02  0.00000000000E+00 0. -1.
         23    2    1    2    0    0 -0.35469962498E+01 -0.48981384739E+02  0.24976162179E+03  0.27045479536E+03  0.91395685802E+02 0.  0.
          5    1    1    2  502    0 -0.18277768117E+02 -0.33293271560E+02  0.63749834241E+02  0.74323835371E+02  0.41800000000E+01 0.  1.
         -5    1    1    2    0  502  0.21824764366E+02  0.82274656299E+02  0.37412630472E+03  0.38371005159E+03  0.41800000000E+01 0.  1.
        -11    1    3    3    0    0  0.77110296342E+01  0.14124132838E+02  0.41534004801E+01  0.16619321346E+02  0.00000000000E+00 0. -1.
         11    1    3    3    0    0 -0.11258025884E+02 -0.63105517577E+02  0.24560822131E+03  0.25383547402E+03  0.00000000000E+00 0.  1.
</event>
<event>
 7    1  0.4274778E-006  0.1093748E+03  0.7561462E-02  0.1261732E+00
         -1   -1    0    0    0  501 -0.00000000000E+00  0.00000000000E+00  0.75823174420E+02  0.75823174420E+02  0.00000000000E+00 0. -1.
          1   -1    0    0  501    0  0.00000000000E+00 -0.00000000000E+00 -0.19477306913E+03  0.19477306913E+03  0.00000000000E+00 0.  1.
         23    2    1    2    0    0  0.28920817411E+02  0.29017894422E+02 -0.63149780444E+02  0.12762426501E+03  0.10306117782E+03 0.  0.
          5    1    1    2  502    0 -0.45047093538E+02  0.25679748362E+02 -0.66880483070E+02  0.84729932891E+02  0.41800000000E+01 0.  1.
         -5    1    1    2    0  502  0.16126276127E+02 -0.54697642783E+02  0.11080368808E+02  0.58242045643E+02  0.41800000000E+01 0.  1.
        -11    1    3    3    0    0  0.66170235154E+02  0.76593423754E+01 -0.47948278160E+02  0.82074374347E+02  0.00000000000E+00 0.  1.
         11    1    3    3    0    0 -0.37249417744E+02  0.21358552046E+02 -0.15201502284E+02  0.45549890663E+02  0.00000000000E+00 0. -1.
</event>
<event>
 7    1  0.4733883E-006  0.1957654E+03  0.7561462E-02  0.1153362E+00
         -2   -1    0    0    0  501 -0.00000000000E+00  0.00000000000E+00  0.55313744667E+02  0.55313744667E+02  0.00000000000E+00 0.  1.
          2   -1    0    0  501    0  0.00000000000E+00 -0.00000000000E+00 -0.79128378027E+03  0.79128378027E+03  0.00000000000E+00 0. -1.
         23    2    1    2    0    0  0.32266218031E+02 -0.17237273097E+03 -0.41636105065E+03  0.46117496612E+03  0.92587027571E+02 0.  0.
          5    1    1    2  502    0 -0.88200929696E+01  0.17219896857E+03 -0.20286604739E+03  0.26627501647E+03  0.41800000000E+01 0. -1.
         -5    1    1    2    0  502 -0.23446125061E+02  0.17376239901E+00 -0.11674293757E+03  0.11914754234E+03  0.41800000000E+01 0. -1.
        -11    1    3    3    0    0  0.39984594475E+02 -0.23935630365E+02 -0.68073978727E+02  0.82496962223E+02  0.00000000000E+00 0. -1.
         11    1    3    3    0    0 -0.77183764446E+01 -0.14843710060E+03 -0.34828707192E+03  0.37867800390E+03  0.00000000000E+00 0.  1.
</event>
<event>
 7    1  0.4274778E-006  0.1479409E+03  0.7561462E-02  0.1203026E+00
         -2   -1    0    0    0  501 -0.00000000000E+00  0.00000000000E+00  0.25755408461E+02  0.25755408461E+02  0.00000000000E+00 0.  1.
          2   -1    0    0  501    0  0.00000000000E+00 -0.00000000000E+00 -0.94294099363E+03  0.94294099363E+03  0.00000000000E+00 0. -1.
         23    2    1    2    0    0  0.14160188104E+02  0.10664445640E+03 -0.51348549553E+03  0.53258087246E+03  0.91659590803E+02 0.  0.
          5    1    1    2  502    0  0.62791516205E+01 -0.13144355384E+03 -0.30415455972E+03  0.33142767565E+03  0.41800000000E+01 0.  1.
         -5    1    1    2    0  502 -0.20439339725E+02  0.24799097444E+02 -0.99545529925E+02  0.10468785398E+03  0.41800000000E+01 0.  1.
        -11    1    3    3    0    0 -0.18831801561E+02  0.94968211200E+02 -0.44787420983E+03  0.45821927690E+03  0.00000000000E+00 0.  1.
         11    1    3    3    0    0  0.32991989665E+02  0.11676245198E+02 -0.65611285697E+02  0.74361595564E+02  0.00000000000E+00 0. -1.
</event>
<event>
 7    1  0.4274778E-006  0.1233126E+03  0.7561462E-02  0.1237730E+00
         -1   -1    0    0    0  501 -0.00000000000E+00  0.00000000000E+00  0.23971796234E+02  0.23971796234E+02  0.00000000000E+00 0.  1.
          1   -1    0    0  501    0  0.00000000000E+00 -0.00000000000E+00 -0.71243746691E+03  0.71243746691E+03  0.00000000000E+00 0. -1.
         23    2    1    2    0    0  0.21400307705E+02 -0.69874809770E+02 -0.32707667759E+03  0.34706361923E+03  0.90186143968E+02 0.  0.
          5    1    1    2  502    0 -0.42844074159E+02  0.94162503579E+02 -0.32164816751E+03  0.33790118057E+03  0.41800000000E+01 0. -1.
         -5    1    1    2    0  502  0.21443766454E+02 -0.24287693809E+02 -0.39740825583E+02  0.51444463340E+02  0.41800000000E+01 0. -1.
        -11    1    3    3    0    0 -0.29362316795E+02 -0.80875216303E+01 -0.14558123631E+03  0.14873281419E+03  0.00000000000E+00 0.  1.
         11    1    3    3    0    0  0.50762624500E+02 -0.61787288140E+02 -0.18149544128E+03  0.19833080504E+03  0.00000000000E+00 0. -1.
</event>
<event>
 7    1  0.4274778E-006  0.9570205E+02  0.7561462E-02  0.1289603E+00
          2   -1    0    0  501    0  0.00000000000E+00  0.00000000000E+00  0.29510848376E+03  0.29510848376E+03  0.00000000000E+00 0. -1.
         -2   -1    0    0    0  501 -0.00000000000E+00 -0.00000000000E+00 -0.42235352190E+02  0.42235352190E+02  0.00000000000E+00 0.  1.
         23    2    1    2    0    0  0.23882627840E+02  0.65442537269E+01  0.16824467395E+03  0.19403804162E+03  0.93441340488E+02 0.  0.
          5    1    1    2  502    0  0.35027201622E+02  0.15072563705E+02  0.62103852919E+00  0.38365936962E+02  0.41800000000E+01 0. -1.
         -5    1    1    2    0  502 -0.58909829462E+02 -0.21616817432E+02  0.84007419092E+02  0.10493985737E+03  0.41800000000E+01 0.  1.
        -11    1    3    3    0    0  0.56815479550E+02  0.67887187661E+01  0.13772021304E+03  0.14913397500E+03  0.00000000000E+00 0. -1.
         11    1    3    3    0    0 -0.32932851711E+02 -0.24446503911E+00  0.30524460912E+02  0.44904066619E+02  0.00000000000E+00 0.  1.
</event>
<event>
 7    1  0.4274778E-006  0.1056479E+03  0.7561462E-02  0.1268848E+00
          3   -1    0    0  501    0  0.00000000000E+00  0.00000000000E+00  0.19015936987E+02  0.19015936987E+02  0.00000000000E+00 0. -1.
         -3   -1    0    0    0  501 -0.00000000000E+00 -0.00000000000E+00 -0.85506817801E+03  0.85506817801E+03  0.00000000000E+00 0.  1.
         23    2    1    2    0    0 -0.55894611423E+01 -0.54973699290E+02 -0.25428202153E+03  0.27645149289E+03  0.93342014964E+02 0.  0.
          5    1    1    2  502    0 -0.31293514540E+02 -0.56888759788E+01 -0.40287343900E+02  0.51499415926E+02  0.41800000000E+01 0. -1.
         -5    1    1    2    0  502  0.36882975683E+02  0.60662575269E+02 -0.54148287559E+03  0.54613320618E+03  0.41800000000E+01 0. -1.
        -11    1    3    3    0    0  0.37182140084E+02  0.15510503542E+01 -0.76915645930E+02  0.85445502440E+02  0.00000000000E+00 0. -1.
         11    1    3    3    0    0 -0.42771601226E+02 -0.56524749645E+02 -0.17736637560E+03  0.19100599045E+03  0.00000000000E+00 0.  1.
</event>
<event>
 7    1  0.4274778E-006  0.1070751E+03  0.7561462E-02  0.1266084E+00
          1   -1    0    0  501    0  0.00000000000E+00  0.00000000000E+00  0.62092716833E+02  0.62092716833E+02  0.00000000000E+00 0. -1.
         -1   -1    0    0    0  501 -0.00000000000E+00 -0.00000000000E+00 -0.32254104345E+03  0.32254104345E+03  0.00000000000E+00 0.  1.
         23    2    1    2    0    0 -0.19183348483E+02  0.37245928094E+02 -0.93368847956E+01  0.10097388072E+03  0.91396319135E+02 0.  0.
          5    1    1    2  502    0 -0.25929080404E+02 -0.70824690745E+02 -0.14312753193E+03  0.16183762488E+03  0.41800000000E+01 0.  1.
         -5    1    1    2    0  502  0.45112428887E+02  0.33578762651E+02 -0.10798390989E+03  0.12182225468E+03  0.41800000000E+01 0.  1.
        -11    1    3    3    0    0  0.24783435467E+02  0.29093370659E+00  0.24053859890E+02  0.34538261270E+02  0.00000000000E+00 0.  1.
         11    1    3    3    0    0 -0.43966783950E+02  0.36954994387E+02 -0.33390744686E+02  0.66435619450E+02  0.00000000000E+00 0. -1.
</event>
<event>
 7    1  0.4274778E-006  0.1131526E+03  0.7561462E-02  0.1254841E+00
          2   -1    0    0  501    0  0.00000000000E+00  0.00000000000E+00  0.23838926341E+03  0.23838926341E+03  0.00000000000E+00 0. -1.
         -2   -1    0    0    0  501 -0.00000000000E+00 -0.00000000000E+00 -0.63570854804E+02  0.63570854804E+02  0.00000000000E+00 0.  1.
         23    2    1    2    0    0  0.51692272622E+02  0.10918273064E+02  0.11061783263E+03  0.15175766680E+03  0.89458285255E+02 0.  0.
          5    1    1    2  502    0 -0.81302942118E+02  0.22653258795E+02  0.19335518452E+02  0.86687214772E+02  0.41800000000E+01 0. -1.
         -5    1    1    2    0  502  0.29610669496E+02 -0.33571531859E+02  0.44865057522E+02  0.63515236643E+02  0.41800000000E+01 0. -1.
        -11    1    3    3    0    0 -0.14353451449E+02 -0.19431187111E+02  0.69317081811E+01  0.25132472607E+02  0.00000000000E+00 0.  1.
         11    1    3    3    0    0  0.66045724070E+02  0.30349460174E+02  0.10368612445E+03  0.12662519419E+03  0.00000000000E+00 0. -1.
</event>
<event>
 7    1  0.4274778E-006  0.1130410E+03  0.7561462E-02  0.1255040E+00
         -1   -1    0    0    0  501 -0.00000000000E+00  0.00000000000E+00  0.25708576186E+02  0.25708576186E+02  0.00000000000E+00 0.  1.
          1   -1    0    0  501    0  0.00000000000E+00 -0.00000000000E+00 -0.70149730418E+03  0.70149730418E+03  0.00000000000E+00 0. -1.
         23    2    1    2    0    0 -0.51665093698E+02  0.52782099572E+02 -0.37501445203E+03  0.39318926704E+03  0.92231928005E+02 0.  0.
          5    1    1    2  502    0 -0.11205779657E+00  0.19880147556E+02 -0.19288321790E+03  0.19395009918E+03  0.41800000000E+01 0.  1.
         -5    1    1    2    0  502  0.51777151495E+02 -0.72662247128E+02 -0.10789105806E+03  0.14006651414E+03  0.41800000000E+01 0.  1.
        -11    1    3    3    0    0 -0.33040957226E+02  0.78224243166E+02 -0.30076243523E+03  0.31252004658E+03  0.00000000000E+00 0.  1.
         11    1    3    3    0    0 -0.18624136472E+02 -0.25442143594E+02 -0.74252016807E+02  0.80669220461E+02  0.00000000000E+00 0. -1.
</event>
<event>
 7    1  0.4274778E-006  0.9931367E+02  0.7561462E-02  0.1281746E+00
          1   -1    0    0  501    0  0.00000000000E+00  0.00000000000E+00  0.29712453237E+03  0.29712453237E+03  0.00000000000E+00 0. -1.
         -1   -1    0    0    0  501 -0.00000000000E+00 -0.00000000000E+00 -0.49865276374E+02  0.49865276374E+02  0.00000000000E+00 0.  1.
         23    2    1    2    0    0  0.24708444490E+02 -0.28087110266E+02  0.16145705231E+03  0.19075641680E+03  0.94447010632E+02 0.  0.
          5    1    1    2  502    0  0.16341787658E+02 -0.29812785500E+02  0.77399039363E+02  0.84640060831E+02  0.41800000000E+01 0.  1.
         -5    1    1    2    0  502 -0.41050232148E+02  0.57899895766E+02  0.84031643202E+01  0.71593331112E+02  0.41800000000E+01 0.  1.
        -11    1    3    3    0    0 -0.28639063415E+02 -0.27820032661E+02  0.33483641212E+02  0.52108582780E+02  0.00000000000E+00 0.  1.
         11    1    3    3    0    0  0.53347507905E+02 -0.26707760451E+00  0.12797341110E+03  0.13864783402E+03  0.00000000000E+00 0. -1.
</event>
<event>
 7    1  0.4274778E-006  0.9203308E+02  0.7561462E-02  0.1298002E+00
          1   -1    0    0  501    0  0.00000000000E+00  0.00000000000E+00  0.62368022708E+02  0.62368022708E+02  0.00000000000E+00 0. -1.
         -1   -1    0    0    0  501 -0.00000000000E+00 -0.00000000000E+00 -0.27955894362E+03  0.27955894362E+03  0.00000000000E+00 0.  1.
         23    2    1    2    0    0 -0.32598642610E+02  0.51916325994E+02 -0.42173836506E+02  0.11823322892E+03  0.91883010017E+02 0.  0.
          5    1    1    2  502    0  0.38696027093E+02 -0.12338019624E+02 -0.17866031528E+03  0.18326644510E+03  0.41800000000E+01 0. -1.
         -5    1    1    2    0  502 -0.60973844824E+01 -0.39578306370E+02  0.36432308770E+01  0.40427292315E+02  0.41800000000E+01 0. -1.
        -11    1    3    3    0    0 -0.56768652033E+02  0.54463129364E+02 -0.49380422141E+02  0.92883466799E+02  0.00000000000E+00 0.  1.
         11    1    3    3    0    0  0.24170009423E+02 -0.25468033701E+01  0.72065856358E+01  0.25349762118E+02  0.00000000000E+00 0. -1.
</event>
<event>
 7    1  0.4274778E-006  0.3681549E+02  0.7561462E-02  0.1533045E+00
          2   -1    0    0  501    0  0.00000000000E+00  0.00000000000E+00  0.84302726469E+02  0.84302726469E+02  0.00000000000E+00 0.  1.
         -2   -1    0    0    0  501 -0.00000000000E+00 -0.00000000000E+00 -0.14759011136E+03  0.14759011136E+03  0.00000000000E+00 0. -1.
         23    2    1    2    0    0  0.83871248397E+01 -0.99752874839E+00 -0.15408735114E+01  0.92137857740E+02  0.91736969707E+02 0.  0.
          5    1    1    2  502    0  0.43680484406E+01 -0.42690604235E+01 -0.99275700010E+02  0.99551201583E+02  0.41800000000E+01 0.  1.
         -5    1    1    2    0  502 -0.12755173280E+02  0.52665891719E+01  0.37529188631E+02  0.40203778506E+02  0.41800000000E+01 0.  1.
        -11    1    3    3    0    0  0.23794140712E+02 -0.17270681654E+02 -0.38786302530E+02  0.48670471962E+02  0.00000000000E+00 0.  1.
         11    1    3    3    0    0 -0.15407015873E+02  0.16273152906E+02  0.37245429019E+02  0.43467385778E+02  0.00000000000E+00 0. -1.
</event>
<event>
 7    1  0.4274778E-006  0.1140714E+03  0.7561462E-02  0.1253211E+00
          2   -1    0    0  501    0  0.00000000000E+00  0.00000000000E+00  0.23501875373E+03  0.23501875373E+03  0.00000000000E+00 0. -1.
         -2   -1    0    0    0  501 -0.00000000000E+00 -0.00000000000E+00 -0.62990229019E+02  0.62990229019E+02  0.00000000000E+00 0.  1.
         23    2    1    2    0    0  0.28657851274E+02  0.43210125229E+02  0.52043798687E+02  0.11708859582E+03  0.91174530039E+02 0.  0.
          5    1    1    2  502    0 -0.45399704925E+02 -0.81006687433E+02  0.92276474962E+02  0.13097952835E+03  0.41800000000E+01 0.  1.
         -5    1    1    2    0  502  0.16741853651E+02  0.37796562203E+02  0.27708251056E+02  0.49940858570E+02  0.41800000000E+01 0.  1.
        -11    1    3    3    0    0 -0.10401708547E+02 -0.18139236908E+02 -0.83879730125E+01  0.22529659286E+02  0.00000000000E+00 0.  1.
         11    1    3    3    0    0  0.39059559820E+02  0.61349362137E+02  0.60431771700E+02  0.94558936536E+02  0.00000000000E+00 0. -1.
</event>
<event>
 7    1  0.4274778E-006  0.1230244E+03  0.7561462E-02  0.1238190E+00
         -1   -1    0    0    0  501 -0.00000000000E+00  0.00000000000E+00  0.70838434910E+02  0.70838434910E+02  0.00000000000E+00 0.  1.
          1   -1    0    0  501    0  0.00000000000E+00 -0.00000000000E+00 -0.29333788907E+03  0.29333788907E+03  0.00000000000E+00 0. -1.
         23    2    1    2    0    0 -0.87109735792E+02  0.22201858046E+02 -0.13916160954E+03  0.18903825056E+03  0.91041078824E+02 0.  0.
          5    1    1    2  502    0 -0.28108170529E+01 -0.31882604829E+02 -0.78033813227E+02  0.84446134251E+02  0.41800000000E+01 0.  1.
         -5    1    1    2    0  502  0.89920552845E+02  0.96807467827E+01 -0.53040313935E+01  0.90691939174E+02  0.41800000000E+01 0.  1.
        -11    1    3    3    0    0 -0.63407037781E+02 -0.26770784645E+02 -0.51887676608E+02  0.86194305696E+02  0.00000000000E+00 0. -1.
         11    1    3    3    0    0 -0.23702698011E+02  0.48972642690E+02 -0.87273932934E+02  0.10284394486E+03  0.00000000000E+00 0.  1.
</event>
<event>
 7    1  0.4274778E-006  0.1195574E+03  0.7561462E-02  0.1243829E+00
          1   -1    0    0  501    0  0.00000000000E+00  0.00000000000E+00  0.24031565375E+03  0.24031565375E+03  0.00000000000E+00 0. -1.
         -1   -1    0    0    0  501 -0.00000000000E+00 -0.00000000000E+00 -0.84654441061E+02  0.84654441061E+02  0.00000000000E+00 0.  1.
         23    2    1    2    0    0  0.90013788477E+02  0.42487068463E+01  0.94919400812E+02  0.15927249312E+03  0.90760678648E+02 0.  0.
          5    1    1    2  502    0 -0.12445552934E+01 -0.22220822192E+02 -0.29890596978E+02  0.37499787259E+02  0.41800000000E+01 0. -1.
         -5    1    1    2    0  502 -0.88769233184E+02  0.17972115346E+02  0.90632408851E+02  0.12819781443E+03  0.41800000000E+01 0. -1.
        -11    1    3    3    0    0  0.18103154631E+02  0.41165471264E+02  0.20590197003E+02  0.49459846791E+02  0.00000000000E+00 0.  1.
         11    1    3    3    0    0  0.71910633846E+02 -0.36916764417E+02  0.74329203809E+02  0.10981264633E+03  0.00000000000E+00 0. -1.
</event>
<event>
 7    1  0.4274778E-006  0.9877606E+02  0.7561462E-02  0.1282891E+00
         -3   -1    0    0    0  501 -0.00000000000E+00  0.00000000000E+00  0.22932414071E+03  0.22932414071E+03  0.00000000000E+00 0.  1.
          3   -1    0    0  501    0  0.00000000000E+00 -0.00000000000E+00 -0.91785783627E+02  0.91785783627E+02  0.00000000000E+00 0. -1.
         23    2    1    2    0    0 -0.19330214086E+02 -0.72483904342E+02 -0.13369614399E+02  0.11941100612E+03  0.91938393661E+02 0.  0.
          5    1    1    2  502    0 -0.64769473178E+01 -0.50108740990E+00 -0.15943313473E+02  0.17716195406E+02  0.41800000000E+01 0. -1.
         -5    1    1    2    0  502  0.25807161404E+02  0.72984991752E+02  0.16685128496E+03  0.18398272281E+03  0.41800000000E+01 0.  1.
        -11    1    3    3    0    0 -0.49502262243E+02 -0.64093337480E+02 -0.26845491786E+02  0.85317702182E+02  0.00000000000E+00 0. -1.
         11    1    3    3    0    0  0.30172048157E+02 -0.83905668626E+01  0.13475877387E+02  0.34093303941E+02  0.00000000000E+00 0.  1.
</event>
<event>
 7    1  0.4994073E-006  0.1448718E+03  0.7561462E-02  0.1206920E+00
          2   -1    0    0  501    0  0.00000000000E+00  0.00000000000E+00  0.57237192328E+03  0.57237192328E+03  0.00000000000E+00 0.  1.
         -2   -1    0    0    0  501 -0.00000000000E+00 -0.00000000000E+00 -0.53016206620E+02  0.53016206620E+02  0.00000000000E+00 0. -1.
         23    2    1    2    0    0  0.13370838168E+03  0.83125514391E+01  0.28789491000E+03  0.33014484278E+03  0.90360988088E+02 0.  0.
          5    1    1    2  502    0 -0.37706862005E+02  0.11827600952E+02 -0.41887305019E+01  0.39958947055E+02  0.41800000000E+01 0. -1.
         -5    1    1    2    0  502 -0.96001519671E+02 -0.20140152392E+02  0.23564953716E+03  0.25528434006E+03  0.41800000000E+01 0. -1.
        -11    1    3    3    0    0  0.93197951459E+02 -0.28113110808E+02  0.23432245376E+03  0.25373848248E+03  0.00000000000E+00 0.  1.
         11    1    3    3    0    0  0.40510430217E+02  0.36425662247E+02  0.53572456238E+02  0.76406360297E+02  0.00000000000E+00 0. -1.
</event>
<event>
 7    1  0.4274778E-006  0.9447778E+02  0.7561462E-02  0.1292357E+00
         -1   -1    0    0    0  501 -0.00000000000E+00  0.00000000000E+00  0.24362364174E+02  0.24362364174E+02  0.00000000000E+00 0.  1.
          1   -1    0    0  501    0  0.00000000000E+00 -0.00000000000E+00 -0.51226780112E+03  0.51226780112E+03  0.00000000000E+00 0. -1.
         23    2    1    2    0    0 -0.17784740942E+02  0.10450096705E+02 -0.25525034967E+03  0.27167184675E+03  0.90704739548E+02 0.  0.
          5    1    1    2  502    0  0.57929370649E+02 -0.13123745265E+02 -0.21066274694E+03  0.21891621690E+03  0.41800000000E+01 0.  1.
         -5    1    1    2    0  502 -0.40144629706E+02  0.26736485606E+01 -0.21992340339E+02  0.46042101651E+02  0.41800000000E+01 0.  1.
        -11    1    3    3    0    0  0.35161984851E+02  0.98951294307E+00 -0.14209520237E+03  0.14638439415E+03  0.00000000000E+00 0. -1.
         11    1    3    3    0    0 -0.52946725793E+02  0.94605837618E+01 -0.11315514730E+03  0.12528745260E+03  0.00000000000E+00 0.  1.
</event>
<event>
 7    1  0.4274778E-006  0.9295445E+02  0.7561462E-02  0.1295851E+00
         -1   -1    0    0    0  501 -0.00000000000E+00  0.00000000000E+00  0.96154576847E+02  0.96154576847E+02  0.00000000000E+00 0.  1.
          1   -1    0    0  501    0  0.00000000000E+00 -0.00000000000E+00 -0.13692555476E+03  0.13692555476E+03  0.00000000000E+00 0. -1.
         23    2    1    2    0    0 -0.39015398780E+02  0.12292279218E+01 -0.20510326345E+02  0.10052155651E+03  0.90333811463E+02 0.  0.
          5    1    1    2  502    0 -0.69646175449E+01 -0.34781820806E+02 -0.55120283374E+02  0.65681039847E+02  0.41800000000E+01 0.  1.
         -5    1    1    2    0  502  0.45980016325E+02  0.33552592884E+02  0.34859631811E+02  0.66877535245E+02  0.41800000000E+01 0.  1.
        -11    1    3    3    0    0 -0.27779469485E+02  0.42261831050E+02  0.51548262356E+01  0.50836340565E+02  0.00000000000E+00 0.  1.
         11    1    3    3    0    0 -0.11235929295E+02 -0.41032603128E+02 -0.25665152581E+02  0.49685215946E+02  0.00000000000E+00 0. -1.
</event>
<event>
 6    1  0.4274778E-006  0.4861917E+02  0.7561462E-02  0.1452935E+00
         -2   -1    0    0    0  501 -0.00000000000E+00  0.00000000000E+00  0.98432767368E+02  0.98432767368E+02  0.00000000000E+00 0.  1.
          2   -1    0    0  501    0  0.00000000000E+00 -0.00000000000E+00 -0.18420419495E+03  0.18420419495E+03  0.00000000000E+00 0. -1.
          5    1    1    2  502    0  0.29381844693E+02  0.21933581442E+02 -0.88088751999E+02  0.95506415602E+02  0.41800000000E+01 0. -1.
         -5    1    1    2    0  502 -0.20391358437E+02 -0.10623466644E+00  0.89228785992E+02  0.91624600596E+02  0.41800000000E+01 0.  1.
        -11    1    1    2    0    0 -0.19747021635E+02 -0.20852540382E+02 -0.65716417637E+02  0.71717646719E+02  0.00000000000E+00 0. -1.
         11    1    1    2    0    0  0.10756535379E+02 -0.97480639271E+00 -0.21195043933E+02  0.23788299396E+02  0.00000000000E+00 0.  1.
</event>
<event>
 7    1  0.4274778E-006  0.8875094E+02  0.7561462E-02  0.1305905E+00
         -2   -1    0    0    0  501 -0.00000000000E+00  0.00000000000E+00  0.56484487285E+03  0.56484487285E+03  0.00000000000E+00 0.  1.
          2   -1    0    0  501    0  0.00000000000E+00 -0.00000000000E+00 -0.31967973595E+02  0.31967973595E+02  0.00000000000E+00 0. -1.
         23    2    1    2    0    0 -0.12073398239E+02 -0.64703474893E+02  0.14596456572E+03  0.18489009955E+03  0.92446675755E+02 0.  0.
          5    1    1    2  502    0  0.32563065445E+02  0.68378822579E+02  0.38286726943E+03  0.39030864071E+03  0.41800000000E+01 0.  1.
         -5    1    1    2    0  502 -0.20489667205E+02 -0.36753476865E+01  0.40450641081E+01  0.21614106191E+02  0.41800000000E+01 0.  1.
        -11    1    3    3    0    0 -0.29689522291E+02 -0.35132247460E+02  0.14314546533E+03  0.15035413792E+03  0.00000000000E+00 0.  1.
         11    1    3    3    0    0  0.17616124051E+02 -0.29571227432E+02  0.28191003843E+01  0.34535961626E+02  0.00000000000E+00 0. -1.
</event>
<event>
 7    1  0.4274778E-006  0.2026945E+03  0.7561462E-02  0.1147485E+00
          3   -1    0    0  501    0  0.00000000000E+00  0.00000000000E+00  0.41511238177E+03  0.41511238177E+03  0.00000000000E+00 0. -1.
         -3   -1    0    0    0  501 -0.00000000000E+00 -0.00000000000E+00 -0.15248397925E+03  0.15248397925E+03  0.00000000000E+00 0.  1.
         23    2    1    2    0    0 -0.12566363180E+03  0.12406556734E+03  0.28802426137E+03  0.34970417051E+03  0.90285205756E+02 0.  0.
          5    1    1    2  502    0 -0.10598217543E+02 -0.65222340187E+02 -0.20565739463E+02  0.69330353484E+02  0.41800000000E+01 0. -1.
         -5    1    1    2    0  502  0.13626184934E+03 -0.58843227157E+02 -0.48301193782E+01  0.14856183703E+03  0.41800000000E+01 0. -1.
        -11    1    3    3    0    0 -0.11081659268E+03  0.62211657928E+02  0.23384785295E+03  0.26614925498E+03  0.00000000000E+00 0.  1.
         11    1    3    3    0    0 -0.14847039120E+02  0.61853909416E+02  0.54176408413E+02  0.83554915529E+02  0.00000000000E+00 0. -1.
</event>
<event>
 7    1  0.4274778E-006  0.1340875E+03  0.7561462E-02  0.1221514E+00
          2   -1    0    0  501    0  0.00000000000E+00  0.00000000000E+00  0.29237527765E+03  0.29237527765E+03  0.00000000000E+00 0. -1.
         -2   -1    0    0    0  501 -0.00000000000E+00 -0.00000000000E+00 -0.85293808039E+02  0.85293808039E+02  0.00000000000E+00 0.  1.
         23    2    1    2    0    0 -0.11123969993E+02  0.80806531818E+02  0.15988755288E+03  0.20182915087E+03  0.92290510262E+02 0.  0.
          5    1    1    2  502    0  0.54607836686E+02  0.77807854544E+01  0.53381074629E+02  0.76873714483E+02  0.41800000000E+01 0. -1.
         -5    1    1    2    0  502 -0.43483866693E+02 -0.88587317272E+02 -0.61871578954E+01  0.98966220332E+02  0.41800000000E+01 0.  1.
        -11    1    3    3    0    0  0.32400031515E+02  0.16302540778E+02  0.90778832005E+02  0.97756489392E+02  0.00000000000E+00 0. -1.
         11    1    3    3    0    0 -0.43524001508E+02  0.64503991039E+02  0.69108720871E+02  0.10407266148E+03  0.00000000000E+00 0.  1.
</event>
<event>
 7    1  0.4274778E-006  0.9947260E+02  0.7561462E-02  0.1281409E+00
          1   -1    0    0  501    0  0.00000000000E+00  0.00000000000E+00  0.17187884892E+03  0.17187884892E+03  0.00000000000E+00 0. -1.
         -1   -1    0    0    0  501 -0.00000000000E+00 -0.00000000000E+00 -0.11721076639E+03  0.11721076639E+03  0.00000000000E+00 0.  1.
         23    2    1    2    0    0 -0.41667784682E+01  0.81732812258E+02  0.70859964788E+02  0.13873457750E+03  0.86767123619E+02 0.  0.
          5    1    1    2  502    0  0.26432099808E+02 -0.79246035276E+02  0.37772208713E+02  0.91775825566E+02  0.41800000000E+01 0. -1.
         -5    1    1    2    0  502 -0.22265321340E+02 -0.24867769820E+01 -0.53964090964E+02  0.58579212248E+02  0.41800000000E+01 0. -1.
        -11    1    3    3    0    0 -0.22600551993E+02  0.59401287283E+02  0.15005066028E+01  0.63573181463E+02  0.00000000000E+00 0.  1.
         11    1    3    3    0    0  0.18433773525E+02  0.22331524975E+02  0.69359458185E+02  0.75161396034E+02  0.00000000000E+00 0. -1.
</event>
<event>
 7    1  0.4274778E-006  0.1104797E+03  0.7561462E-02  0.1259684E+00
         -3   -1    0    0    0  501 -0.00000000000E+00  0.00000000000E+00  0.35480257112E+03  0.35480257112E+03  0.00000000000E+00 0.  1.
          3   -1    0    0  501    0  0.00000000000E+00 -0.00000000000E+00 -0.36541798646E+02  0.36541798646E+02  0.00000000000E+00 0. -1.
         23    2    1    2    0    0  0.21260650817E+02  0.15441612608E+02  0.10045120019E+03  0.13879987695E+03  0.92111364929E+02 0.  0.
          5    1    1    2  502    0 -0.39932845401E+02  0.45952569884E+02  0.13095420290E+03  0.14447403393E+03  0.41800000000E+01 0. -1.
         -5    1    1    2    0  502  0.18672194584E+02 -0.61394182492E+02  0.86855369381E+02  0.10807045889E+03  0.41800000000E+01 0. -1.
        -11    1    3    3    0    0  0.45272668077E+02  0.40629490861E+02  0.60044605435E+02  0.85473531835E+02  0.00000000000E+00 0. -1.
         11    1    3    3    0    0 -0.24012017260E+02 -0.25187878254E+02  0.40406594759E+02  0.53326345119E+02  0.00000000000E+00 0.  1.
</event>
<event>
 7    1  0.4274778E-006  0.1116606E+03  0.7561462E-02  0.1257525E+00
         -2   -1    0    0    0  501 -0.00000000000E+00  0.00000000000E+00  0.37458680839E+02  0.37458680839E+02  0.00000000000E+00 0.  1.
          2   -1    0    0  501    0  0.00000000000E+00 -0.00000000000E+00 -0.34038366620E+03  0.34038366620E+03  0.00000000000E+00 0. -1.
         23    2    1    2    0    0  0.50593280161E+01  0.20064114881E+02 -0.10516391350E+03  0.14292597097E+03  0.94552731161E+02 0.  0.
          5    1    1    2  502    0 -0.48653621258E+02  0.32273159816E+02 -0.89491222543E+02  0.10693401245E+03  0.41800000000E+01 0.  1.
         -5    1    1    2    0  502  0.43594293242E+02 -0.52337274697E+02 -0.10826984932E+03  0.12798236362E+03  0.41800000000E+01 0.  1.
        -11    1    3    3    0    0  0.22375067653E+02 -0.33480749569E+02 -0.38885378440E+02  0.55979254199E+02  0.00000000000E+00 0.  1.
         11    1    3    3    0    0 -0.17315739637E+02  0.53544864450E+02 -0.66278535061E+02  0.86946716775E+02  0.00000000000E+00 0. -1.
</event>
<event>
 6    1  0.4274778E-006  0.1044554E+03  0.7561462E-02  0.1271196E+00
         -2   -1    0    0    0  501 -0.00000000000E+00  0.00000000000E+00  0.63069145182E+03  0.63069145182E+03  0.00000000000E+00 0.  1.
          2   -1    0    0  501    0  0.00000000000E+00 -0.00000000000E+00 -0.21839184753E+03  0.21839184753E+03  0.00000000000E+00 0. -1.
          5    1    1    2  502    0  0.89459353712E+02  0.12992180712E+02  0.30380753618E+03  0.31699883938E+03  0.41800000000E+01 0. -1.
         -5    1    1    2    0  502 -0.42386416667E+02  0.30686299583E+02  0.31285963202E+03  0.31723316196E+03  0.41800000000E+01 0.  1.
        -11    1    1    2    0    0 -0.33231715236E+02 -0.39162439316E+02 -0.14911977192E+03  0.15771731017E+03  0.00000000000E+00 0. -1.
         11    1    1    2    0    0 -0.13841221809E+02 -0.45160409793E+01 -0.55247791990E+02  0.57133987845E+02  0.00000000000E+00 0.  1.
</event>
<event>
 7    1  0.4274778E-006  0.9857697E+02  0.7561462E-02  0.1283317E+00
          4   -1    0    0  501    0  0.00000000000E+00  0.00000000000E+00  0.76090243306E+03  0.76090243306E+03  0.00000000000E+00 0.  1.
         -4   -1    0    0    0  501 -0.00000000000E+00 -0.00000000000E+00 -0.19939024041E+02  0.19939024041E+02  0.00000000000E+00 0. -1.
         23    2    1    2    0    0  0.39241416599E+02  0.25060682898E+02  0.43987562847E+03  0.45149603512E+03  0.90499583427E+02 0.  0.
          5    1    1    2  502    0  0.13649906836E+02 -0.42517160854E+02  0.33472201748E+02  0.55963288087E+02  0.41800000000E+01 0. -1.
         -5    1    1    2    0  502 -0.52891323435E+02  0.17456477955E+02  0.26761557880E+03  0.27338213389E+03  0.41800000000E+01 0. -1.
        -11    1    3    3    0    0  0.57220581002E+02 -0.90108074049E+01  0.33041311455E+03  0.33545225563E+03  0.00000000000E+00 0.  1.
         11    1    3    3    0    0 -0.17979164402E+02  0.34071490303E+02  0.10946251392E+03  0.11604377949E+03  0.00000000000E+00 0. -1.
</event>
<event>
 7    1  0.4274778E-006  0.5440913E+02  0.7561462E-02  0.1422914E+00
         -4   -1    0    0    0  501 -0.00000000000E+00  0.00000000000E+00  0.10843214404E+03  0.10843214404E+03  0.00000000000E+00 0.  1.
          4   -1    0    0  501    0  0.00000000000E+00 -0.00000000000E+00 -0.13944132970E+03  0.13944132970E+03  0.00000000000E+00 0. -1.
         23    2    1    2    0    0  0.15339177393E+02  0.38925104260E+02 -0.48188549961E+02  0.11486292764E+03  0.95503411943E+02 0.  0.
          5    1    1    2  502    0 -0.17864784873E+02 -0.22616594805E+02  0.70904681733E+02  0.76652509357E+02  0.41800000000E+01 0. -1.
         -5    1    1    2    0  502  0.25256074806E+01 -0.16308509455E+02 -0.53725317425E+02  0.56358036749E+02  0.41800000000E+01 0. -1.
        -11    1    3    3    0    0  0.32126522586E+02  0.28224705689E+02 -0.72051447954E+02  0.83786386823E+02  0.00000000000E+00 0. -1.
         11    1    3    3    0    0 -0.16787345193E+02  0.10700398571E+02  0.23862897993E+02  0.31076540812E+02  0.00000000000E+00 0.  1.
</event>
<event>
 7    1  0.4274778E-006  0.9081381E+02  0.7561462E-02  0.1300893E+00
          2   -1    0    0  501    0  0.00000000000E+00  0.00000000000E+00  0.10403136080E+03  0.10403136080E+03  0.00000000000E+00 0. -1.
         -2   -1    0    0    0  501 -0.00000000000E+00 -0.00000000000E+00 -0.14152690937E+03  0.14152690937E+03  0.00000000000E+00 0.  1.
         23    2    1    2    0    0 -0.44795937108E+02 -0.32747741280E+01  0.18506410192E+02  0.10133247428E+03  0.88929089720E+02 0.  0.
          5    1    1    2  502    0 -0.14765193817E+02  0.33810738104E+02  0.20562648764E+02  0.42443749643E+02  0.41800000000E+01 0. -1.
         -5    1    1    2    0  502  0.59561130924E+02 -0.30535963976E+02 -0.76564607526E+02  0.10178204625E+03  0.41800000000E+01 0. -1.
        -11    1    3    3    0    0 -0.57227027355E+01  0.27254369826E+02 -0.23427680589E+02  0.36392392323E+02  0.00000000000E+00 0.  1.
         11    1    3    3    0    0 -0.39073234372E+02 -0.30529143954E+02  0.41934090780E+02  0.64940081956E+02  0.00000000000E+00 0. -1.
</event>
<event>
 7    1  0.4274778E-006  0.8223992E+02  0.7561462E-02  0.1322812E+00
         -2   -1    0    0    0  501 -0.00000000000E+00  0.00000000000E+00  0.16640262718E+02  0.16640262718E+02  0.00000000000E+00 0.  1.
          2   -1    0    0  501    0  0.00000000000E+00 -0.00000000000E+00 -0.80170251626E+03  0.80170251626E+03  0.00000000000E+00 0. -1.
         23    2    1    2    0    0 -0.30486313687E+02 -0.23672418885E+02 -0.34022156397E+03  0.35463986921E+03  0.92352181901E+02 0.  0.
          5    1    1    2  502    0  0.46048807977E+02  0.13734574996E+02 -0.44192268299E+03  0.44454725442E+03  0.41800000000E+01 0.  1.
         -5    1    1    2    0  502 -0.15562494290E+02  0.99378438888E+01 -0.29180065801E+01  0.19155655355E+02  0.41800000000E+01 0.  1.
        -11    1    3    3    0    0  0.18167112734E+02 -0.41653633136E+02 -0.20091200116E+03  0.20598713879E+03  0.00000000000E+00 0. -1.
         11    1    3    3    0    0 -0.48653426421E+02  0.17981214251E+02 -0.13930956281E+03  0.14865273042E+03  0.00000000000E+00 0.  1.
</event>
<event>
 7    1  0.4274778E-006  0.1104537E+03  0.7561462E-02  0.1259732E+00
         -2   -1    0    0    0  501 -0.00000000000E+00  0.00000000000E+00  0.20261335664E+02  0.20261335664E+02  0.00000000000E+00 0.  1.
          2   -1    0    0  501    0  0.00000000000E+00 -0.00000000000E+00 -0.80447586520E+03  0.80447586520E+03  0.00000000000E+00 0. -1.
         23    2    1    2    0    0  0.30163350667E+02 -0.33309846791E+02 -0.43658825538E+03  0.44874953367E+03  0.93527886854E+02 0.  0.
          5    1    1    2  502    0 -0.45873509289E+02  0.66215152625E+02 -0.32011014521E+03  0.33011634731E+03  0.41800000000E+01 0. -1.
         -5    1    1    2    0  502  0.15710158622E+02 -0.32905305833E+02 -0.27516128946E+02  0.45871319886E+02  0.41800000000E+01 0.  1.
        -11    1    3    3    0    0  0.55141660461E+02 -0.49232569794E+02 -0.32449061131E+03  0.33280415483E+03  0.00000000000E+00 0.  1.
         11    1    3    3    0    0 -0.24978309794E+02  0.15922723002E+02 -0.11209764407E+03  0.11594537884E+03  0.00000000000E+00 0. -1.
</event>
<event>
 7    1  0.4274778E-006  0.1339000E+03  0.7561462E-02  0.1221781E+00
          1   -1    0    0  501    0  0.00000000000E+00  0.00000000000E+00  0.52319504752E+03  0.52319504752E+03  0.00000000000E+00 0. -1.
         -1   -1    0    0    0  501 -0.00000000000E+00 -0.00000000000E+00 -0.40970055723E+02  0.40970055723E+02  0.00000000000E+00 0.  1.
         23    2    1    2    0    0 -0.85779839844E+02 -0.48383541677E+02  0.21264806916E+03  0.25108644188E+03  0.90144616870E+02 0.  0.
          5    1    1    2  502    0 -0.23836527721E+02  0.17347951938E+02  0.13343476185E+02  0.32629009285E+02  0.41800000000E+01 0. -1.
         -5    1    1    2    0  502  0.10961636756E+03  0.31035589739E+02  0.25623344646E+03  0.28044965208E+03  0.41800000000E+01 0. -1.
        -11    1    3    3    0    0 -0.75334053915E+02 -0.83380448536E+00  0.17159028132E+03  0.18740101268E+03  0.00000000000E+00 0. -1.
         11    1    3    3    0    0 -0.10445785929E+02 -0.47549737191E+02  0.41057787840E+02  0.63685429204E+02  0.00000000000E+00 0.  1.
</event>
<event>
 7    1  0.4274778E-006  0.1585873E+03  0.7561462E-02  0.1190301E+00
          1   -1    0    0  501    0  0.00000000000E+00  0.00000000000E+00  0.11685468228E+04  0.11685468228E+04  0.00000000000E+00 0. -1.
         -1   -1    0    0    0  501 -0.00000000000E+00 -0.00000000000E+00 -0.22673348345E+02  0.22673348345E+02  0.00000000000E+00 0.  1.
         23    2    1    2    0    0  0.73061492519E+01  0.12142586003E+03  0.50063578517E+03  0.52280667135E+03  0.88842596321E+02 0.  0.
          5    1    1    2  502    0  0.24179337440E+02  0.13445191505E+02  0.20458477619E+03  0.20648926505E+03  0.41800000000E+01 0. -1.
         -5    1    1    2    0  502 -0.31485486692E+02 -0.13487105153E+03  0.44065291305E+03  0.46192423469E+03  0.41800000000E+01 0. -1.
        -11    1    3    3    0    0  0.47722375807E+02  0.54400548894E+02  0.24015976475E+03  0.25082575123E+03  0.00000000000E+00 0.  1.
         11    1    3    3    0    0 -0.40416226555E+02  0.67025311136E+02  0.26047602042E+03  0.27198092013E+03  0.00000000000E+00 0. -1.
</event>
<event>
 7    1  0.4274778E-006  0.1249913E+03  0.7561462E-02  0.1235083E+00
          1   -1    0    0  501    0  0.00000000000E+00  0.00000000000E+00  0.40737707658E+03  0.40737707658E+03  0.00000000000E+00 0. -1.
         -1   -1    0    0    0  501 -0.00000000000E+00 -0.00000000000E+00 -0.94859482982E+02  0.94859482982E+02  0.00000000000E+00 0.  1.
         23    2    1    2    0    0 -0.73949517130E+02  0.12663268235E+02  0.33385689137E+03  0.35481710725E+03  0.93839577129E+02 0.  0.
          5    1    1    2  502    0  0.58435221661E+02 -0.66764466541E+02 -0.19575477601E+02  0.90955158438E+02  0.41800000000E+01 0.  1.
         -5    1    1    2    0  502  0.15514295469E+02  0.54101198307E+02 -0.17638201612E+01  0.56464293883E+02  0.41800000000E+01 0.  1.
        -11    1    3    3    0    0 -0.32087369882E+02 -0.30729216253E+02  0.23391123481E+03  0.23809315363E+03  0.00000000000E+00 0. -1.
         11    1    3    3    0    0 -0.41862147249E+02  0.43392484487E+02  0.99945656557E+02  0.11672395361E+03  0.00000000000E+00 0.  1.
</event>
<event>
 7    1  0.4274778E-006  0.2041908E+03  0.7561462E-02  0.1146251E+00
         -1   -1    0    0    0  501 -0.00000000000E+00  0.00000000000E+00  0.26610603647E+03  0.26610603647E+03  0.00000000000E+00 0.  1.
          1   -1    0    0  501    0  0.00000000000E+00 -0.00000000000E+00 -0.18778448524E+03  0.18778448524E+03  0.00000000000E+00 0. -1.
         23    2    1    2    0    0  0.52414895335E+02  0.17419152985E+03 -0.34334393961E+02  0.20603735432E+03  0.90457340441E+02 0.  0.
          5    1    1    2  502    0 -0.84478294725E+02 -0.10884626619E+03  0.10741800027E+03  0.17475752095E+03  0.41800000000E+01 0.  1.
         -5    1    1    2    0  502  0.32063399390E+02 -0.65345263657E+02  0.52379449089E+01  0.73095646449E+02  0.41800000000E+01 0.  1.
        -11    1    3    3    0    0  0.52275503415E+02  0.46583525867E+02 -0.35324153889E+02  0.78425435845E+02  0.00000000000E+00 0. -1.
         11    1    3    3    0    0  0.13939191995E+00  0.12760800398E+03  0.98975992782E+00  0.12761191847E+03  0.00000000000E+00 0.  1.
</event>
<event>
 7    1  0.4274778E-006  0.1286357E+03  0.7561462E-02  0.1229494E+00
         -2   -1    0    0    0  501 -0.00000000000E+00  0.00000000000E+00  0.27998397967E+02  0.27998397967E+02  0.00000000000E+00 0.  1.
          2   -1    0    0  501    0  0.00000000000E+00 -0.00000000000E+00 -0.84396007079E+03  0.84396007079E+03  0.00000000000E+00 0. -1.
         23    2    1    2    0    0 -0.42738676788E+02 -0.77982446299E+02 -0.55348768457E+03  0.56790283430E+03  0.90868893504E+02 0.  0.
          5    1    1    2  502    0  0.74633217580E+02  0.82424046090E+01 -0.15093950658E+03  0.16863647722E+03  0.41800000000E+01 0. -1.
         -5    1    1    2    0  502 -0.31894540792E+02  0.69740041689E+02 -0.11153448166E+03  0.13541915724E+03  0.41800000000E+01 0. -1.
        -11    1    3    3    0    0 -0.84773732567E+01  0.86465915076E+01 -0.79896452004E+01  0.14507371659E+02  0.00000000000E+00 0.  1.
         11    1    3    3    0    0 -0.34261303531E+02 -0.86629037806E+02 -0.54549803937E+03  0.55339546264E+03  0.00000000000E+00 0. -1.
</event>
<event>
 7    1  0.4274778E-006  0.1194328E+03  0.7561462E-02  0.1244036E+00
         -1   -1    0    0    0  501 -0.00000000000E+00  0.00000000000E+00  0.18379713880E+02  0.18379713880E+02  0.00000000000E+00 0.  1.
          1   -1    0    0  501    0  0.00000000000E+00 -0.00000000000E+00 -0.85156867891E+03  0.85156867891E+03  0.00000000000E+00 0. -1.
         23    2    1    2    0    0  0.35013984639E+02 -0.50377983333E+02 -0.34680618987E+03  0.36400364892E+03  0.91979360579E+02 0.  0.
          5    1    1    2  502    0  0.36462549327E+02 -0.12374704676E+02 -0.21212158365E+03  0.21562859149E+03  0.41800000000E+01 0. -1.
         -5    1    1    2    0  502 -0.71476533965E+02  0.62752688009E+02 -0.27426119152E+03  0.29031615238E+03  0.41800000000E+01 0. -1.
        -11    1    3    3    0    0 -0.27797137060E+02 -0.72233067574E+01 -0.50919460158E+02  0.58460656959E+02  0.00000000000E+00 0.  1.
         11    1    3    3    0    0  0.62811121698E+02 -0.43154676575E+02 -0.29588672971E+03  0.30554299196E+03  0.00000000000E+00 0. -1.
</event>
<event>
 7    1  0.4274778E-006  0.9656829E+02  0.7561462E-02  0.1287682E+00
         -2   -1    0    0    0  501 -0.00000000000E+00  0.00000000000E+00  0.59912168501E+02  0.59912168501E+02  0.00000000000E+00 0.  1.
          2   -1    0    0  501    0  0.00000000000E+00 -0.00000000000E+00 -0.25716253727E+03  0.25716253727E+03  0.00000000000E+00 0. -1.
         23    2    1    2    0    0 -0.48142702019E+02 -0.35533908201E+02 -0.59263636531E+02  0.12145030533E+03  0.87507826276E+02 0.  0.
          5    1    1    2  502    0  0.59722974452E+02 -0.23524518027E+02 -0.11361252690E+03  0.13055847461E+03  0.41800000000E+01 0.  1.
         -5    1    1    2    0  502 -0.11580272433E+02  0.59058426228E+02 -0.24374205344E+02  0.65065925831E+02  0.41800000000E+01 0.  1.
        -11    1    3    3    0    0 -0.45964846275E+02 -0.15762364006E+02  0.98073702616E+01  0.49572207169E+02  0.00000000000E+00 0.  1.
         11    1    3    3    0    0 -0.21778557437E+01 -0.19771544195E+02 -0.69071006793E+02  0.71878098158E+02  0.00000000000E+00 0. -1.
</event>
<event>
 7    1  0.4274778E-006  0.1276187E+03  0.7561462E-02  0.1231033E+00
          1   -1    0    0  501    0  0.00000000000E+00  0.00000000000E+00  0.29370404729E+03  0.29370404729E+03  0.00000000000E+00 0. -1.
         -1   -1    0    0    0  501 -0.00000000000E+00 -0.00000000000E+00 -0.92916157933E+02  0.92916157933E+02  0.00000000000E+00 0.  1.
         23    2    1    2    0    0 -0.21616265718E+02 -0.89792854386E+02  0.19060795589E+03  0.23079544769E+03  0.91679475250E+02 0.  0.
          5    1    1    2  502    0 -0.15117858521E+02  0.11072858683E+03  0.15883504338E+02  0.11295630880E+03  0.41800000000E+01 0.  1.
         -5    1    1    2    0  502  0.36734124239E+02 -0.20935732442E+02 -0.57035708713E+01  0.42868448738E+02  0.41800000000E+01 0.  1.
        -11    1    3    3    0    0  0.33789141481E+01 -0.67011533641E+02  0.43764855996E+02  0.80108210079E+02  0.00000000000E+00 0.  1.
         11    1    3    3    0    0 -0.24995179866E+02 -0.22781320746E+02  0.14684309990E+03  0.15068723761E+03  0.00000000000E+00 0. -1.
</event>
<event>
 7    1  0.4274778E-006  0.1079384E+03  0.7561462E-02  0.1264436E+00
         -1   -1    0    0    0  501 -0.00000000000E+00  0.00000000000E+00  0.23833173065E+02  0.23833173065E+02  0.00000000000E+00 0.  1.
          1   -1    0    0  501    0  0.00000000000E+00 -0.00000000000E+00 -0.64889019178E+03  0.64889019178E+03  0.00000000000E+00 0. -1.
         23    2    1    2    0    0 -0.53563707407E+02  0.24182845842E+02 -0.28660717963E+03  0.30714436453E+03  0.93488525843E+02 0.  0.
          5    1    1    2  502    0 -0.28570569262E+01 -0.46007652877E+02 -0.27081072589E+03  0.27473767225E+03  0.41800000000E+01 0.  1.
         -5    1    1    2    0  502  0.56420764333E+02  0.21824807035E+02 -0.67639113199E+02  0.90841328064E+02  0.41800000000E+01 0.  1.
        -11    1    3    3    0    0 -0.38687621187E+02  0.59305710235E+02 -0.20901918397E+03  0.22068737745E+03  0.00000000000E+00 0. -1.
         11    1    3    3    0    0 -0.14876086220E+02 -0.35122864393E+02 -0.77587995664E+02  0.86456987083E+02  0.00000000000E+00 0.  1.
</event>
<event>
 7    1  0.4274778E-006  0.1346015E+03  0.7561462E-02  0.1220783E+00
          1   -1    0    0  501    0  0.00000000000E+00  0.00000000000E+00  0.96474271782E+02  0.96474271782E+02  0.00000000000E+00 0. -1.
         -1   -1    0    0    0  501 -0.00000000000E+00 -0.00000000000E+00 -0.25885821998E+03  0.25885821998E+03  0.00000000000E+00 0.  1.
         23    2    1    2    0    0 -0.99663441650E+02  0.33486137051E+02 -0.24472660695E+02  0.14150543291E+03  0.91491821746E+02 0.  0.
          5    1    1    2  502    0  0.61359997136E+02 -0.69291166541E+02 -0.13146944395E+03  0.16083532604E+03  0.41800000000E+01 0. -1.
         -5    1    1    2    0  502  0.38303444514E+02  0.35805029491E+02 -0.64418435586E+01  0.52991732817E+02  0.41800000000E+01 0. -1.
        -11    1    3    3    0    0 -0.92546442089E+02  0.29420018477E+01 -0.46074771140E+02  0.10342332355E+03  0.00000000000E+00 0.  1.
         11    1    3    3    0    0 -0.71169995613E+01  0.30544135203E+02  0.21602110445E+02  0.38082109365E+02  0.00000000000E+00 0. -1.
</event>
<event>
 7    1  0.4274778E-006  0.1050130E+03  0.7561462E-02  0.1270094E+00
         -1   -1    0    0    0  501 -0.00000000000E+00  0.00000000000E+00  0.22707848663E+02  0.22707848663E+02  0.00000000000E+00 0.  1.
          1   -1    0    0  501    0  0.00000000000E+00 -0.00000000000E+00 -0.66375211854E+03  0.66375211854E+03  0.00000000000E+00 0. -1.
         23    2    1    2    0    0  0.31989142972E+02  0.21048946273E+02 -0.40566198664E+03  0.41716652826E+03  0.89442168377E+02 0.  0.
          5    1    1    2  502    0  0.25884780073E+01  0.41152012361E+02 -0.16106752086E+03  0.16631418165E+03  0.41800000000E+01 0. -1.
         -5    1    1    2    0  502 -0.34577620980E+02 -0.62200958634E+02 -0.74314762369E+02  0.10297925730E+03  0.41800000000E+01 0. -1.
        -11    1    3    3    0    0 -0.27897552771E+02 -0.10249235652E+02 -0.12272281129E+03  0.12627037932E+03  0.00000000000E+00 0. -1.
         11    1    3    3    0    0  0.59886695743E+02  0.31298181925E+02 -0.28293917535E+03  0.29089614894E+03  0.00000000000E+00 0.  1.
</event>
<event>
 7    1  0.4274778E-006  0.1433955E+03  0.7561462E-02  0.1208832E+00
          2   -1    0    0  501    0  0.00000000000E+00  0.00000000000E+00  0.63997368493E+03  0.63997368493E+03  0.00000000000E+00 0.  1.
         -2   -1    0    0    0  501 -0.00000000000E+00 -0.00000000000E+00 -0.37088486861E+02  0.37088486861E+02  0.00000000000E+00 0. -1.
         23    2    1    2    0    0 -0.82999221064E+02 -0.47464332765E+02  0.39258096115E+03  0.41435331161E+03  0.91799358379E+02 0.  0.
          5    1    1    2  502    0  0.11373058381E+03  0.25993445889E+02  0.13491450815E+03  0.17840880536E+03  0.41800000000E+01 0. -1.
         -5    1    1    2    0  502 -0.30731362742E+02  0.21470886876E+02  0.75389728769E+02  0.84300054823E+02  0.41800000000E+01 0. -1.
        -11    1    3    3    0    0  0.17800023689E+02 -0.22124655002E+02  0.74892953370E+02  0.80095540867E+02  0.00000000000E+00 0. -1.
         11    1    3    3    0    0 -0.10079924475E+03 -0.25339677763E+02  0.31768800778E+03  0.33425777074E+03  0.00000000000E+00 0.  1.
</event>
<event>
 7    1  0.4274778E-006  0.6702438E+02  0.7561462E-02  0.1370514E+00
         -2   -1    0    0    0  501 -0.00000000000E+00  0.00000000000E+00  0.42648068302E+03  0.42648068302E+03  0.00000000000E+00 0.  1.
          2   -1    0    0  501    0  0.00000000000E+00 -0.00000000000E+00 -0.32251786404E+02  0.32251786404E+02  0.00000000000E+00 0. -1.
         23    2    1    2    0    0 -0.10413426963E+02  0.94674348047E+01  0.99544163084E+02  0.13828751174E+03  0.94954324364E+02 0.  0.
          5    1    1    2  502    0 -0.40203336793E+02  0.46314238571E+01  0.29964830599E+02  0.50528426148E+02  0.41800000000E+01 0.  1.
         -5    1    1    2    0  502  0.50616763756E+02 -0.14098858662E+02  0.26471990294E+03  0.26991653154E+03  0.41800000000E+01 0.  1.
        -11    1    3    3    0    0 -0.18327922741E+02 -0.91058519177E+01 -0.12803382976E+02  0.24140337752E+02  0.00000000000E+00 0. -1.
         11    1    3    3    0    0  0.79144957785E+01  0.18573286722E+02  0.11234754606E+03  0.11414717399E+03  0.00000000000E+00 0.  1.
</event>
<event>
 7    1  0.4274778E-006  0.1306077E+03  0.7561462E-02  0.1226557E+00
          2   -1    0    0  501    0  0.00000000000E+00  0.00000000000E+00  0.31840010894E+03  0.31840010894E+03  0.00000000000E+00 0. -1.
         -2   -1    0    0    0  501 -0.00000000000E+00 -0.00000000000E+00 -0.70434248677E+02  0.70434248677E+02  0.00000000000E+00 0.  1.
         23    2    1    2    0    0  0.80794034456E+02 -0.55009169595E+02  0.15601312590E+03  0.20537194308E+03  0.91015684412E+02 0.  0.
          5    1    1    2  502    0 -0.68465913802E+00  0.48959815250E+02  0.90524805841E+02  0.10300361712E+03  0.41800000000E+01 0. -1.
         -5    1    1    2    0  502 -0.80109375318E+02  0.60493543444E+01  0.14279285242E+01  0.80458797416E+02  0.41800000000E+01 0. -1.
        -11    1    3    3    0    0 -0.48713146534E+00 -0.50201044243E+02  0.76950180643E+02  0.91878792118E+02  0.00000000000E+00 0. -1.
         11    1    3    3    0    0  0.81281165921E+02 -0.48081253519E+01  0.79062945254E+02  0.11349315096E+03  0.00000000000E+00 0.  1.
</event>
<event>
 7    1  0.4274778E-006  0.1056650E+03  0.7561462E-02  0.1268815E+00
         -1   -1    0    0    0  501 -0.00000000000E+00  0.00000000000E+00  0.28405078276E+02  0.28405078276E+02  0.00000000000E+00 0.  1.
          1   -1    0    0  501    0  0.00000000000E+00 -0.00000000000E+00 -0.48864041086E+03  0.48864041086E+03  0.00000000000E+00 0. -1.
         23    2    1    2    0    0  0.23578508780E+02  0.25691988286E+02 -0.26921211393E+03  0.28606270380E+03  0.90225738475E+02 0.  0.
          5    1    1    2  502    0 -0.53857604495E+02  0.33265423968E+02 -0.94599031549E+02  0.11390205952E+03  0.41800000000E+01 0. -1.
         -5    1    1    2    0  502  0.30279095714E+02 -0.58957412254E+02 -0.96424187113E+02  0.11708072581E+03  0.41800000000E+01 0. -1.
        -11    1    3    3    0    0 -0.18585537118E+02 -0.14235232927E+02 -0.22012583703E+02  0.32134372372E+02  0.00000000000E+00 0.  1.
         11    1    3    3    0    0  0.42164045898E+02  0.39927221213E+02 -0.24719953022E+03  0.25392833143E+03  0.00000000000E+00 0. -1.
</event>
<event>
 7    1  0.4274778E-006  0.1525898E+03  0.7561462E-02  0.1197326E+00
         -1   -1    0    0    0  501 -0.00000000000E+00  0.00000000000E+00  0.22467309222E+03  0.22467309222E+03  0.00000000000E+00 0.  1.
          1   -1    0    0  501    0  0.00000000000E+00 -0.00000000000E+00 -0.11164324382E+03  0.11164324382E+03  0.00000000000E+00 0. -1.
         23    2    1    2    0    0  0.51935579270E+02  0.10227315978E+03  0.56423416138E+02  0.15740718931E+03  0.91849429789E+02 0.  0.
          5    1    1    2  502    0  0.17799673390E+02 -0.97100387125E+02  0.24212877408E+02  0.10173027762E+03  0.41800000000E+01 0. -1.
         -5    1    1    2    0  502 -0.69735252661E+02 -0.51727726576E+01  0.32393554850E+02  0.77178869106E+02  0.41800000000E+01 0. -1.
        -11    1    3    3    0    0  0.45649304222E+02  0.11411903807E+03  0.67309725611E+02  0.14013426772E+03  0.00000000000E+00 0.  1.
         11    1    3    3    0    0  0.62862750487E+01 -0.11845878292E+02 -0.10886309473E+02  0.17272921595E+02  0.00000000000E+00 0. -1.
</event>
<event>
 7    1  0.4274778E-006  0.1731326E+03  0.7561462E-02  0.1174620E+00
         -2   -1    0    0    0  501 -0.00000000000E+00  0.00000000000E+00  0.21928137217E+03  0.21928137217E+03  0.00000000000E+00 0.  1.
          2   -1    0    0  501    0  0.00000000000E+00 -0.00000000000E+00 -0.16361814441E+03  0.16361814441E+03  0.00000000000E+00 0. -1.
         23    2    1    2    0    0  0.92988294255E+02 -0.11793700414E+03 -0.91575762873E+01  0.17700784217E+03  0.93230655752E+02 0.  0.
          5    1    1    2  502    0  0.59073804413E+01  0.92543227520E+02  0.37490264203E+02  0.10011063087E+03  0.41800000000E+01 0. -1.
         -5    1    1    2    0  502 -0.98895674696E+02  0.25393776619E+02  0.27330539852E+02  0.10578104354E+03  0.41800000000E+01 0. -1.
        -11    1    3    3    0    0  0.71138858698E+02 -0.76897614093E+02 -0.49119140691E+02  0.11570077896E+03  0.00000000000E+00 0. -1.
         11    1    3    3    0    0  0.21849435557E+02 -0.41039390046E+02  0.39961564404E+02  0.61307063207E+02  0.00000000000E+00 0.  1.
</event>
<event>
 7    1  0.4274778E-006  0.1201953E+03  0.7561462E-02  0.1242775E+00
         -1   -1    0    0    0  501 -0.00000000000E+00  0.00000000000E+00  0.16722154456E+04  0.16722154456E+04  0.00000000000E+00 0.  1.
          1   -1    0    0  501    0  0.00000000000E+00 -0.00000000000E+00 -0.16767716279E+02  0.16767716279E+02  0.00000000000E+00 0. -1.
         23    2    1    2    0    0  0.38041003442E+02 -0.45172728263E+02  0.20377348073E+03  0.23073341809E+03  0.90700526185E+02 0.  0.
          5    1    1    2  502    0 -0.12665637697E+02 -0.40643009184E+02  0.69009860344E+03  0.69142304521E+03  0.41800000000E+01 0.  1.
         -5    1    1    2    0  502 -0.25375365746E+02  0.85815737448E+02  0.76157564512E+03  0.76682669856E+03  0.41800000000E+01 0.  1.
        -11    1    3    3    0    0 -0.40496557451E+00 -0.64841996399E+02  0.12917197370E+03  0.14453389666E+03  0.00000000000E+00 0.  1.
         11    1    3    3    0    0  0.38445969017E+02  0.19669268135E+02  0.74601507030E+02  0.86199521424E+02  0.00000000000E+00 0. -1.
</event>
<event>
 7    1  0.4274778E-006  0.1462281E+03  0.7561462E-02  0.1205186E+00
          1   -1    0    0  501    0  0.00000000000E+00  0.00000000000E+00  0.57123051381E+03  0.57123051381E+03  0.00000000000E+00 0. -1.
         -1   -1    0    0    0  501 -0.00000000000E+00 -0.00000000000E+00 -0.41283610349E+02  0.41283610349E+02  0.00000000000E+00 0.  1.
         23    2    1    2    0    0  0.14834132993E+01 -0.49199103647E+02  0.15269990025E+03  0.18594638570E+03  0.94000247357E+02 0.  0.
          5    1    1    2  502    0  0.26474909978E+02 -0.65063490523E+02  0.21427055343E+03  0.22552942408E+03  0.41800000000E+01 0. -1.
         -5    1    1    2    0  502 -0.27958323277E+02  0.11426259417E+03  0.16297644977E+03  0.20103831438E+03  0.41800000000E+01 0.  1.
        -11    1    3    3    0    0 -0.43775893484E+02 -0.37479894368E+02  0.67431994393E+02  0.88702565915E+02  0.00000000000E+00 0. -1.
         11    1    3    3    0    0  0.45259306784E+02 -0.11719209279E+02  0.85267905859E+02  0.97243819785E+02  0.00000000000E+00 0.  1.
</event>
<event>
 7    1  0.4274778E-006  0.1483996E+03  0.7561462E-02  0.1202453E+00
          1   -1    0    0  501    0  0.00000000000E+00  0.00000000000E+00  0.55967116645E+03  0.55967116645E+03  0.00000000000E+00 0. -1.
         -1   -1    0    0    0  501 -0.00000000000E+00 -0.00000000000E+00 -0.39612658552E+02  0.39612658552E+02  0.00000000000E+00 0.  1.
         23    2    1    2    0    0  0.96285198271E+02 -0.32903892586E+02  0.24015450143E+03  0.27625259811E+03  0.91037398095E+02 0.  0.
          5    1    1    2  502    0 -0.30804695381E+02  0.75765800792E+02  0.16081926629E+03  0.18047075840E+03  0.41800000000E+01 0. -1.
         -5    1    1    2    0  502 -0.65480502889E+02 -0.42861908206E+02  0.11908474017E+03  0.14256046849E+03  0.41800000000E+01 0. -1.
        -11    1    3    3    0    0  0.24559446595E+02 -0.56024135648E+02  0.10678892051E+03  0.12306804515E+03  0.00000000000E+00 0.  1.
         11    1    3    3    0    0  0.71725751676E+02  0.23120243063E+02  0.13336558091E+03  0.15318455296E+03  0.00000000000E+00 0. -1.
</event>
<event>
 7    1  0.4274778E-006  0.2133045E+03  0.7561462E-02  0.1138976E+00
          2   -1    0    0  501    0  0.00000000000E+00  0.00000000000E+00  0.42754551987E+03  0.42754551987E+03  0.00000000000E+00 0.  1.
         -2   -1    0    0    0  501 -0.00000000000E+00 -0.00000000000E+00 -0.11467186925E+03  0.11467186925E+03  0.00000000000E+00 0. -1.
         23    2    1    2    0    0  0.10139483465E+03 -0.15449322052E+03  0.21427225221E+03  0.29827259511E+03  0.94365646549E+02 0.  0.
          5    1    1    2  502    0 -0.11575926401E+03  0.74329534408E+02  0.39357945158E+02  0.14314889848E+03  0.41800000000E+01 0.  1.
         -5    1    1    2    0  502  0.14364429355E+02  0.80163686110E+02  0.59243453255E+02  0.10079589553E+03  0.41800000000E+01 0.  1.
        -11    1    3    3    0    0 -0.17687308315E+02 -0.32187362634E+02  0.40836686208E+02  0.54922692298E+02  0.00000000000E+00 0.  1.
         11    1    3    3    0    0  0.11908214297E+03 -0.12230585788E+03  0.17343556600E+03  0.24334990281E+03  0.00000000000E+00 0. -1.
</event>
<event>
 7    1  0.4274778E-006  0.2373630E+03  0.7561462E-02  0.1121562E+00
          2   -1    0    0  501    0  0.00000000000E+00  0.00000000000E+00  0.42206278120E+03  0.42206278120E+03  0.00000000000E+00 0. -1.
         -2   -1    0    0    0  501 -0.00000000000E+00 -0.00000000000E+00 -0.15981374468E+03  0.15981374468E+03  0.00000000000E+00 0.  1.
         23    2    1    2    0    0  0.48223349248E+02 -0.20073384043E+03  0.17390010799E+03  0.28481504100E+03  0.90877906647E+02 0.  0.
          5    1    1    2  502    0 -0.11090151356E+03  0.13007497938E+03  0.10558504508E+03  0.20095850346E+03  0.41800000000E+01 0. -1.
         -5    1    1    2    0  502  0.62678164308E+02  0.70658861044E+02 -0.17236116540E+02  0.96102981424E+02  0.41800000000E+01 0.  1.
        -11    1    3    3    0    0  0.37046700320E+02 -0.19041022563E+03  0.11838363640E+03  0.22725139691E+03  0.00000000000E+00 0. -1.
         11    1    3    3    0    0  0.11176648928E+02 -0.10323614798E+02  0.55516471588E+02  0.57563644094E+02  0.00000000000E+00 0.  1.
</event>
<event>
 7    1  0.4274778E-006  0.8956768E+02  0.7561462E-02  0.1303902E+00
          1   -1    0    0  501    0  0.00000000000E+00  0.00000000000E+00  0.11647940737E+03  0.11647940737E+03  0.00000000000E+00 0. -1.
         -1   -1    0    0    0  501 -0.00000000000E+00 -0.00000000000E+00 -0.98781895290E+02  0.98781895290E+02  0.00000000000E+00 0.  1.
         23    2    1    2    0    0 -0.96137426059E-01  0.17972412597E+02  0.73170910016E+01  0.88461222783E+02  0.86306611905E+02 0.  0.
          5    1    1    2  502    0  0.46664763141E+02 -0.49990400827E+02 -0.29801748174E+01  0.68578379507E+02  0.41800000000E+01 0.  1.
         -5    1    1    2    0  502 -0.46568625715E+02  0.32017988230E+02  0.13360595897E+02  0.58221700370E+02  0.41800000000E+01 0.  1.
        -11    1    3    3    0    0  0.88973957396E+01 -0.16273305477E+02  0.37564379199E+02  0.41893516285E+02  0.00000000000E+00 0. -1.
         11    1    3    3    0    0 -0.89935331657E+01  0.34245718074E+02 -0.30247288197E+02  0.46567706498E+02  0.00000000000E+00 0.  1.
</event>
<event>
 7    1  0.4274778E-006  0.1125804E+03  0.7561462E-02  0.1255865E+00
         -1   -1    0    0    0  501 -0.00000000000E+00  0.00000000000E+00  0.10550071091E+03  0.10550071091E+03  0.00000000000E+00 0.  1.
          1   -1    0    0  501    0  0.00000000000E+00 -0.00000000000E+00 -0.18535217364E+03  0.18535217364E+03  0.00000000000E+00 0. -1.
         23    2    1    2    0    0 -0.82855883842E+02  0.25766694364E+02 -0.50823143401E+02  0.13588343307E+03  0.91390893703E+02 0.  0.
          5    1    1    2  502    0 -0.89788031013E+00  0.31279654053E+02 -0.42192741889E+02  0.52696516155E+02  0.41800000000E+01 0. -1.
         -5    1    1    2    0  502  0.83753764152E+02 -0.57046348418E+02  0.13164422562E+02  0.10227293532E+03  0.41800000000E+01 0. -1.
        -11    1    3    3    0    0 -0.10192391332E+02 -0.70955995591E+01 -0.54649287901E+02  0.56042635932E+02  0.00000000000E+00 0. -1.
         11    1    3    3    0    0 -0.72663492510E+02  0.32862293923E+02  0.38261445000E+01  0.79840797137E+02  0.00000000000E+00 0.  1.
</event>
<event>
 7    1  0.4274778E-006  0.1252056E+03  0.7561462E-02  0.1234748E+00
         -2   -1    0    0    0  501 -0.00000000000E+00  0.00000000000E+00  0.56795928821E+03  0.56795928821E+03  0.00000000000E+00 0.  1.
          2   -1    0    0  501    0  0.00000000000E+00 -0.00000000000E+00 -0.29327927959E+02  0.29327927959E+02  0.00000000000E+00 0. -1.
         23    2    1    2    0    0 -0.61251723228E+02  0.22548019704E+02  0.17796352515E+03  0.21000292205E+03  0.90388186152E+02 0.  0.
          5    1    1    2  502    0  0.67359403231E+02 -0.66537107660E+02  0.21554137365E+03  0.23545707051E+03  0.41800000000E+01 0. -1.
         -5    1    1    2    0  502 -0.61076800021E+01  0.43989087957E+02  0.14512646144E+03  0.15182722360E+03  0.41800000000E+01 0. -1.
        -11    1    3    3    0    0 -0.12075197120E+02  0.52218616847E+02  0.95456239719E+02  0.10947368648E+03  0.00000000000E+00 0. -1.
         11    1    3    3    0    0 -0.49176526108E+02 -0.29670597144E+02  0.82507285431E+02  0.10052923557E+03  0.00000000000E+00 0.  1.
</event>
<event>
 7    1  0.4274778E-006  0.1070415E+03  0.7561462E-02  0.1266149E+00
         -3   -1    0    0    0  501 -0.00000000000E+00  0.00000000000E+00  0.14321924662E+03  0.14321924662E+03  0.00000000000E+00 0.  1.
          3   -1    0    0  501    0  0.00000000000E+00 -0.00000000000E+00 -0.14151932077E+03  0.14151932077E+03  0.00000000000E+00 0. -1.
         23    2    1    2    0    0 -0.71577788713E+02 -0.56274813185E+02 -0.16587269050E+02  0.12894202055E+03  0.89781249337E+02 0.  0.
          5    1    1    2  502    0 -0.80438973494E+01  0.21000824991E+02 -0.43356069606E+02  0.49019997007E+02  0.41800000000E+01 0. -1.
         -5    1    1    2    0  502  0.79621686062E+02  0.35273988194E+02  0.61643264507E+02  0.10677654983E+03  0.41800000000E+01 0. -1.
        -11    1    3    3    0    0 -0.31261231592E+02 -0.55501135213E+02 -0.46388718988E+02  0.78800722458E+02  0.00000000000E+00 0. -1.
         11    1    3    3    0    0 -0.40316557121E+02 -0.77367797144E+00  0.29801449938E+02  0.50141298089E+02  0.00000000000E+00 0.  1.
</event>
<event>
 7    1  0.4274778E-006  0.9076892E+02  0.7561462E-02  0.1301000E+00
          3   -1    0    0  501    0  0.00000000000E+00  0.00000000000E+00  0.34139351744E+03  0.34139351744E+03  0.00000000000E+00 0. -1.
         -3   -1    0    0    0  501 -0.00000000000E+00 -0.00000000000E+00 -0.39730487358E+02  0.39730487358E+02  0.00000000000E+00 0.  1.
         23    2    1    2    0    0 -0.23749037475E+02  0.11627299689E+02  0.18522204337E+03  0.20820602929E+03  0.91341854593E+02 0.  0.
          5    1    1    2  502    0 -0.44375210266E+02  0.92246109562E+01  0.81748867335E+02  0.93566032533E+02  0.41800000000E+01 0.  1.
         -5    1    1    2    0  502  0.68124247740E+02 -0.20851910645E+02  0.34692119372E+02  0.79351942977E+02  0.41800000000E+01 0.  1.
        -11    1    3    3    0    0 -0.16506757063E+02 -0.23539462436E+02  0.11752440154E+02  0.31059606728E+02  0.00000000000E+00 0.  1.
         11    1    3    3    0    0 -0.72422804113E+01  0.35166762125E+02  0.17346960322E+03  0.17714642256E+03  0.00000000000E+00 0. -1.
</event>
<event>
 7    1  0.4274778E-006  0.1139308E+03  0.7561462E-02  0.1253459E+00
          2   -1    0    0  501    0  0.00000000000E+00  0.00000000000E+00  0.14021650569E+03  0.14021650569E+03  0.00000000000E+00 0. -1.
         -2   -1    0    0    0  501 -0.00000000000E+00 -0.00000000000E+00 -0.10886862895E+03  0.10886862895E+03  0.00000000000E+00 0.  1.
         23    2    1    2    0    0  0.37935872242E+02  0.46745111411E+02  0.62450488582E+01  0.10801010272E+03  0.89459185170E+02 0.  0.
          5    1    1    2  502    0  0.40793335311E+02 -0.10194502234E+02 -0.15692833925E+02  0.45075065371E+02  0.41800000000E+01 0.  1.
         -5    1    1    2    0  502 -0.78729207553E+02 -0.36550609177E+02  0.40795661807E+02  0.95999966539E+02  0.41800000000E+01 0.  1.
        -11    1    3    3    0    0 -0.24400821956E+02  0.16190278877E+02 -0.18119886780E+02  0.34436253269E+02  0.00000000000E+00 0.  1.
         11    1    3    3    0    0  0.62336694199E+02  0.30554832534E+02  0.24364935638E+02  0.73573849454E+02  0.00000000000E+00 0. -1.
</event>
<event>
 7    1  0.4274778E-006  0.1068532E+03  0.7561462E-02  0.1266511E+00
          2   -1    0    0  501    0  0.00000000000E+00  0.00000000000E+00  0.22230286897E+03  0.22230286897E+03  0.00000000000E+00 0. -1.
         -2   -1    0    0    0  501 -0.00000000000E+00 -0.00000000000E+00 -0.58752169530E+02  0.58752169530E+02  0.00000000000E+00 0.  1.
         23    2    1    2    0    0  0.20885776270E+02  0.10009215860E+02  0.11070275966E+03  0.14329920681E+03  0.87995236371E+02 0.  0.
          5    1    1    2  502    0  0.38921920262E+02 -0.42511576869E+02  0.33801773528E+02  0.66949102596E+02  0.41800000000E+01 0. -1.
         -5    1    1    2    0  502 -0.59807696532E+02  0.32502361009E+02  0.19046166250E+02  0.70806729090E+02  0.41800000000E+01 0. -1.
        -11    1    3    3    0    0 -0.22606069288E+02  0.31846056904E+02  0.68649443004E+02  0.78980704819E+02  0.00000000000E+00 0.  1.
         11    1    3    3    0    0  0.43491845557E+02 -0.21836841044E+02  0.42053316656E+02  0.64318501992E+02  0.00000000000E+00 0. -1.
</event>
<event>
 7    1  0.4274778E-006  0.1406148E+03  0.7561462E-02  0.1212504E+00
         -3   -1    0    0    0  501 -0.00000000000E+00  0.00000000000E+00  0.47829918787E+02  0.47829918787E+02  0.00000000000E+00 0.  1.
          3   -1    0    0  501    0  0.00000000000E+00 -0.00000000000E+00 -0.60029384753E+03  0.60029384753E+03  0.00000000000E+00 0. -1.
         23    2    1    2    0    0  0.23207496306E+02  0.12748357653E+03 -0.25712845950E+03  0.30220139977E+03  0.91760509857E+02 0.  0.
          5    1    1    2  502    0 -0.32044334653E+02 -0.70413736223E+02 -0.46324449073E+02  0.90268270251E+02  0.41800000000E+01 0. -1.
         -5    1    1    2    0  502  0.88368383467E+01 -0.57069840309E+02 -0.24901102017E+03  0.25565409629E+03  0.41800000000E+01 0. -1.
        -11    1    3    3    0    0  0.46997399992E+02  0.81475580095E+02 -0.10243948772E+03  0.13907147228E+03  0.00000000000E+00 0.  1.
         11    1    3    3    0    0 -0.23789903685E+02  0.46007996437E+02 -0.15468897178E+03  0.16312992749E+03  0.00000000000E+00 0. -1.
</event>
<event>
 7    1  0.4274778E-006  0.1101531E+03  0.7561462E-02  0.1260287E+00
          3   -1    0    0  501    0  0.00000000000E+00  0.00000000000E+00  0.67698990601E+02  0.67698990601E+02  0.00000000000E+00 0. -1.
         -3   -1    0    0    0  501 -0.00000000000E+00 -0.00000000000E+00 -0.36360128772E+03  0.36360128772E+03  0.00000000000E+00 0.  1.
         23    2    1    2    0    0 -0.16328416923E+02  0.20031470461E+02  0.93071936295E+01  0.10044417296E+03  0.96615376723E+02 0.  0.
          5    1    1    2  502    0 -0.29125989046E+02 -0.55378568265E+02 -0.21322354603E+03  0.22225404843E+03  0.41800000000E+01 0. -1.
         -5    1    1    2    0  502  0.45454405969E+02  0.35347097804E+02 -0.91985944716E+02  0.10860205693E+03  0.41800000000E+01 0. -1.
        -11    1    3    3    0    0 -0.37678939790E+02 -0.28236188051E+02  0.16597259590E+01  0.47114111576E+02  0.00000000000E+00 0.  1.
         11    1    3    3    0    0  0.21350522866E+02  0.48267658512E+02  0.76474676705E+01  0.53330061379E+02  0.00000000000E+00 0. -1.
</event>
<event>
 7    1  0.4274778E-006  0.1190203E+03  0.7561462E-02  0.1244722E+00
          3   -1    0    0  501    0  0.00000000000E+00  0.00000000000E+00  0.25240954590E+02  0.25240954590E+02  0.00000000000E+00 0. -1.
         -3   -1    0    0    0  501 -0.00000000000E+00 -0.00000000000E+00 -0.84460695088E+03  0.84460695088E+03  0.00000000000E+00 0.  1.
         23    2    1    2    0    0 -0.44750983745E+02 -0.24407976573E+02 -0.12607648546E+03  0.16352198802E+03  0.90806170014E+02 0.  0.
          5    1    1    2  502    0  0.16310936365E+02 -0.50733406171E+02 -0.32342602208E+03  0.32781365027E+03  0.41800000000E+01 0.  1.
         -5    1    1    2    0  502  0.28440047380E+02  0.75141382744E+02 -0.36986348875E+03  0.37851226718E+03  0.41800000000E+01 0.  1.
        -11    1    3    3    0    0 -0.10102845681E+02 -0.56205629142E+02 -0.68714275162E+02  0.89346470827E+02  0.00000000000E+00 0. -1.
         11    1    3    3    0    0 -0.34648138064E+02  0.31797652569E+02 -0.57362210299E+02  0.74175517192E+02  0.00000000000E+00 0.  1.
</event>
<event>
 7    1  0.4274778E-006  0.9356971E+02  0.7561462E-02  0.1294430E+00
         -2   -1    0    0    0  501 -0.00000000000E+00  0.00000000000E+00  0.37162277459E+02  0.37162277459E+02  0.00000000000E+00 0.  1.
          2   -1    0    0  501    0  0.00000000000E+00 -0.00000000000E+00 -0.39074569977E+03  0.39074569977E+03  0.00000000000E+00 0. -1.
         23    2    1    2    0    0  0.56458113977E+01  0.48435994933E+02 -0.15042190930E+03  0.18439344986E+03  0.94848683499E+02 0.  0.
          5    1    1    2  502    0 -0.28414366980E+01  0.15809432263E+02  0.10970617713E+02  0.19895697123E+02  0.41800000000E+01 0.  1.
         -5    1    1    2    0  502 -0.28043746996E+01 -0.64245427196E+02 -0.21413213073E+03  0.22361883025E+03  0.41800000000E+01 0.  1.
        -11    1    3    3    0    0 -0.31163948844E+02 -0.13570152969E+02 -0.57205107113E+02  0.66541453538E+02  0.00000000000E+00 0. -1.
         11    1    3    3    0    0  0.36809760241E+02  0.62006147902E+02 -0.93216802189E+02  0.11785199632E+03  0.00000000000E+00 0.  1.
</event>
<event>
 7    1  0.4274778E-006  0.9062813E+02  0.7561462E-02  0.1301338E+00
         -2   -1    0    0    0  501 -0.00000000000E+00  0.00000000000E+00  0.45211187708E+03  0.45211187708E+03  0.00000000000E+00 0. -1.
          2   -1    0    0  501    0  0.00000000000E+00 -0.00000000000E+00 -0.55032082962E+02  0.55032082962E+02  0.00000000000E+00 0.  1.
         23    2    1    2    0    0 -0.16953032842E+02  0.80314612563E+02  0.55257910037E+02  0.13401169596E+03  0.90376190000E+02 0.  0.
          5    1    1    2  502    0  0.31089638951E+01 -0.83284072386E+02  0.34745192831E+03  0.35733208260E+03  0.41800000000E+01 0.  1.
         -5    1    1    2    0  502  0.13844068947E+02  0.29694598227E+01 -0.56300442320E+01  0.15800181477E+02  0.41800000000E+01 0.  1.
        -11    1    3    3    0    0 -0.16758321064E+02  0.50049561829E+02 -0.17179125957E+02  0.55506056722E+02  0.00000000000E+00 0.  1.
         11    1    3    3    0    0 -0.19471177828E+00  0.30265050733E+02  0.72437035995E+02  0.78505639239E+02  0.00000000000E+00 0. -1.
</event>
<event>
 7    1  0.4274778E-006  0.4935574E+03  0.7561462E-02  0.1015474E+00
          2   -1    0    0  501    0  0.00000000000E+00  0.00000000000E+00  0.43120962322E+03  0.43120962322E+03  0.00000000000E+00 0.  1.
         -2   -1    0    0    0  501 -0.00000000000E+00 -0.00000000000E+00 -0.57887827213E+03  0.57887827213E+03  0.00000000000E+00 0. -1.
         23    2    1    2    0    0  0.16245319900E+03  0.45960475596E+03 -0.69518435879E+02  0.50079504590E+03  0.91297817626E+02 0.  0.
          5    1    1    2  502    0 -0.14088665662E+03 -0.24197051496E+03 -0.77485708666E+02  0.29055169518E+03  0.41800000000E+01 0.  1.
         -5    1    1    2    0  502 -0.21566542380E+02 -0.21763424100E+03 -0.66450436313E+00  0.21874115427E+03  0.41800000000E+01 0.  1.
        -11    1    3    3    0    0  0.16743599071E+02  0.80067125414E+02 -0.45353572520E+02  0.93530953284E+02  0.00000000000E+00 0. -1.
         11    1    3    3    0    0  0.14570959993E+03  0.37953763055E+03 -0.24164863358E+02  0.40726409261E+03  0.00000000000E+00 0.  1.
</event>
<event>
 7    1  0.4274778E-006  0.8714895E+02  0.7561462E-02  0.1309907E+00
          1   -1    0    0  501    0  0.00000000000E+00  0.00000000000E+00  0.10140309337E+03  0.10140309337E+03  0.00000000000E+00 0. -1.
         -1   -1    0    0    0  501 -0.00000000000E+00 -0.00000000000E+00 -0.18918932379E+03  0.18918932379E+03  0.00000000000E+00 0.  1.
         23    2    1    2    0    0 -0.33360588137E+02  0.74895643902E+02 -0.50667935064E+01  0.11967648144E+03  0.87031612049E+02 0.  0.
          5    1    1    2  502    0 -0.54829909666E+01 -0.32149857026E+01 -0.88733362580E+02  0.89058864566E+02  0.41800000000E+01 0. -1.
         -5    1    1    2    0  502  0.38843579104E+02 -0.71680658200E+02  0.60139256647E+01  0.81857071163E+02  0.41800000000E+01 0. -1.
        -11    1    3    3    0    0 -0.33905390474E+02  0.51537954636E+02  0.36726839787E+02  0.71795522367E+02  0.00000000000E+00 0. -1.
         11    1    3    3    0    0  0.54480233649E+00  0.23357689267E+02 -0.41793633293E+02  0.47880959069E+02  0.00000000000E+00 0.  1.
</event>
<event>
 7    1  0.4274778E-006  0.1725322E+03  0.7561462E-02  0.1175233E+00
          1   -1    0    0  501    0  0.00000000000E+00  0.00000000000E+00  0.77672341606E+03  0.77672341606E+03  0.00000000000E+00 0. -1.
         -1   -1    0    0    0  501 -0.00000000000E+00 -0.00000000000E+00 -0.46670101320E+02  0.46670101320E+02  0.00000000000E+00 0.  1.
         23    2    1    2    0    0 -0.14930278791E+03  0.34280346605E+02  0.33799745790E+03  0.38427987205E+03  0.99811191139E+02 0.  0.
          5    1    1    2  502    0  0.80702442130E+02  0.30360589185E+02  0.99542854896E+02  0.13176077528E+03  0.41800000000E+01 0. -1.
         -5    1    1    2    0  502  0.68600345779E+02 -0.64640935789E+02  0.29251300194E+03  0.30735287004E+03  0.41800000000E+01 0. -1.
        -11    1    3    3    0    0 -0.33645057065E+02  0.35246699405E+02  0.35105605697E+02  0.60056000826E+02  0.00000000000E+00 0.  1.
         11    1    3    3    0    0 -0.11565773084E+03 -0.96635280069E+00  0.30289185220E+03  0.32422387123E+03  0.00000000000E+00 0. -1.
</event>
<event>
 7    1  0.4274778E-006  0.1920987E+03  0.7561462E-02  0.1156582E+00
         -1   -1    0    0    0  501 -0.00000000000E+00  0.00000000000E+00  0.27211340198E+03  0.27211340198E+03  0.00000000000E+00 0.  1.
          1   -1    0    0  501    0  0.00000000000E+00 -0.00000000000E+00 -0.30361315353E+03  0.30361315353E+03  0.00000000000E+00 0. -1.
         23    2    1    2    0    0 -0.58180815895E+02  0.15698600379E+03 -0.22191849186E+03  0.29299612714E+03  0.92570517805E+02 0.  0.
          5    1    1    2  502    0  0.84514454647E+02 -0.13021645379E+03  0.99925103252E+02  0.18466595935E+03  0.41800000000E+01 0.  1.
         -5    1    1    2    0  502 -0.26333638753E+02 -0.26769549992E+02  0.90493637053E+02  0.98064469019E+02  0.41800000000E+01 0.  1.
        -11    1    3    3    0    0 -0.68117039254E+02  0.52082739175E+02 -0.93117087867E+02  0.12658331173E+03  0.00000000000E+00 0.  1.
         11    1    3    3    0    0  0.99362233599E+01  0.10490326461E+03 -0.12880140399E+03  0.16641281541E+03  0.00000000000E+00 0. -1.
</event>
<event>
 7    1  0.4274778E-006  0.8788387E+02  0.7561462E-02  0.1308059E+00
         -3   -1    0    0    0  501 -0.00000000000E+00  0.00000000000E+00  0.36569322888E+02  0.36569322888E+02  0.00000000000E+00 0.  1.
          3   -1    0    0  501    0  0.00000000000E+00 -0.00000000000E+00 -0.35506938075E+03  0.35506938075E+03  0.00000000000E+00 0. -1.
         23    2    1    2    0    0  0.25745797053E+02  0.12547468911E+02 -0.14618304428E+03  0.17678865522E+03  0.95207463663E+02 0.  0.
          5    1    1    2  502    0  0.44544614066E+02  0.73830092178E+01 -0.28704788558E+02  0.53667203705E+02  0.41800000000E+01 0. -1.
         -5    1    1    2    0  502 -0.70290411119E+02 -0.19930478129E+02 -0.14361222502E+03  0.16118284471E+03  0.41800000000E+01 0. -1.
        -11    1    3    3    0    0  0.27238488793E+02 -0.14018114868E+02 -0.14701046657E+03  0.15016830590E+03  0.00000000000E+00 0. -1.
         11    1    3    3    0    0 -0.14926917399E+01  0.26565583779E+02  0.82742228882E+00  0.26620349318E+02  0.00000000000E+00 0.  1.
</event>
<event>
 7    1  0.4274778E-006  0.1022823E+03  0.7561462E-02  0.1275568E+00
         -2   -1    0    0    0  501 -0.00000000000E+00  0.00000000000E+00  0.63406592268E+03  0.63406592268E+03  0.00000000000E+00 0.  1.
          2   -1    0    0  501    0  0.00000000000E+00 -0.00000000000E+00 -0.24007382340E+02  0.24007382340E+02  0.00000000000E+00 0. -1.
         23    2    1    2    0    0  0.52586316558E+02 -0.29849293921E+02  0.27541810626E+03  0.29573417812E+03  0.89147461082E+02 0.  0.
          5    1    1    2  502    0 -0.67780168685E+02  0.40260852233E+02  0.10224093093E+03  0.12917340224E+03  0.41800000000E+01 0.  1.
         -5    1    1    2    0  502  0.15193852127E+02 -0.10411558311E+02  0.23239950316E+03  0.23316572466E+03  0.41800000000E+01 0.  1.
        -11    1    3    3    0    0  0.76975982038E+02 -0.29213259999E+02  0.22794638626E+03  0.24235979737E+03  0.00000000000E+00 0.  1.
         11    1    3    3    0    0 -0.24389665480E+02 -0.63603392217E+00  0.47471719993E+02  0.53374380750E+02  0.00000000000E+00 0. -1.
</event>
<event>
 7    1  0.4274778E-006  0.9611870E+02  0.7561462E-02  0.1288676E+00
         -1   -1    0    0    0  501 -0.00000000000E+00  0.00000000000E+00  0.28214390221E+03  0.28214390221E+03  0.00000000000E+00 0.  1.
          1   -1    0    0  501    0  0.00000000000E+00 -0.00000000000E+00 -0.47512862701E+02  0.47512862701E+02  0.00000000000E+00 0. -1.
         23    2    1    2    0    0 -0.19920323814E+02 -0.29140616629E+02  0.72438583080E+02  0.12180883748E+03  0.91345770189E+02 0.  0.
          5    1    1    2  502    0 -0.31006734387E+02  0.48224253791E+02  0.29994980690E+02  0.64839551954E+02  0.41800000000E+01 0. -1.
         -5    1    1    2    0  502  0.50927058201E+02 -0.19083637163E+02  0.13219747574E+03  0.14300837547E+03  0.41800000000E+01 0. -1.
        -11    1    3    3    0    0  0.43565093635E+00  0.23636543870E+02 -0.66638193565E+01  0.24561809508E+02  0.00000000000E+00 0. -1.
         11    1    3    3    0    0 -0.20355974751E+02 -0.52777160499E+02  0.79102402436E+02  0.97247027973E+02  0.00000000000E+00 0.  1.
</event>
<event>
 7    1  0.4274778E-006  0.7726418E+02  0.7561462E-02  0.1337000E+00
          2   -1    0    0  501    0  0.00000000000E+00  0.00000000000E+00  0.81653561053E+02  0.81653561053E+02  0.00000000000E+00 0. -1.
         -2   -1    0    0    0  501 -0.00000000000E+00 -0.00000000000E+00 -0.17349956264E+03  0.17349956264E+03  0.00000000000E+00 0.  1.
         23    2    1    2    0    0  0.37967127624E+02  0.29520529957E+02 -0.22497298078E+02  0.10425747956E+03  0.89724741041E+02 0.  0.
          5    1    1    2  502    0 -0.46008122400E+02 -0.26990729491E+02  0.22877877437E+02  0.58190346977E+02  0.41800000000E+01 0.  1.
         -5    1    1    2    0  502  0.80409947763E+01 -0.25298004660E+01 -0.92226580942E+02  0.92705297150E+02  0.41800000000E+01 0.  1.
        -11    1    3    3    0    0 -0.17075720848E+02  0.32263698073E+02 -0.31744349175E+02  0.48375925421E+02  0.00000000000E+00 0.  1.
         11    1    3    3    0    0  0.55042848472E+02 -0.27431681166E+01  0.92470510967E+01  0.55881554141E+02  0.00000000000E+00 0. -1.
</event>
<event>
 7    1  0.4274778E-006  0.1454515E+03  0.7561462E-02  0.1206176E+00
         -2   -1    0    0    0  501 -0.00000000000E+00  0.00000000000E+00  0.19796713309E+02  0.19796713309E+02  0.00000000000E+00 0.  1.
          2   -1    0    0  501    0  0.00000000000E+00 -0.00000000000E+00 -0.10761524079E+04  0.10761524079E+04  0.00000000000E+00 0. -1.
         23    2    1    2    0    0  0.75551706405E+02  0.59893816168E+02 -0.52646069089E+03  0.54301813762E+03  0.91719731630E+02 0.  0.
          5    1    1    2  502    0  0.23174964580E+02  0.19917439046E+02 -0.96992967084E+02  0.10177863934E+03  0.41800000000E+01 0.  1.
         -5    1    1    2    0  502 -0.98726670984E+02 -0.79811255214E+02 -0.43290203661E+03  0.45115234425E+03  0.41800000000E+01 0.  1.
        -11    1    3    3    0    0  0.53109296779E+01  0.62524728673E+02 -0.25415896610E+03  0.26179061809E+03  0.00000000000E+00 0.  1.
         11    1    3    3    0    0  0.70240776727E+02 -0.26309125046E+01 -0.27230172479E+03  0.28122751953E+03  0.00000000000E+00 0. -1.
</event>
<event>
 7    1  0.4274778E-006  0.1116319E+03  0.7561462E-02  0.1257577E+00
         -2   -1    0    0    0  501 -0.00000000000E+00  0.00000000000E+00  0.13359938277E+03  0.13359938277E+03  0.00000000000E+00 0.  1.
          2   -1    0    0  501    0  0.00000000000E+00 -0.00000000000E+00 -0.25017396855E+03  0.25017396855E+03  0.00000000000E+00 0. -1.
         23    2    1    2    0    0 -0.97882933863E+01  0.60852723462E+02 -0.19544019660E+03  0.22356724958E+03  0.89367667508E+02 0.  0.
          5    1    1    2  502    0 -0.44218081393E+02 -0.31169855356E+02  0.82035800174E+02  0.98357224011E+02  0.41800000000E+01 0. -1.
         -5    1    1    2    0  502  0.54006374779E+02 -0.29682868106E+02 -0.31701893573E+01  0.61848877729E+02  0.41800000000E+01 0. -1.
        -11    1    3    3    0    0 -0.33706965591E+01  0.83565308226E+02 -0.13658610704E+03  0.16015706969E+03  0.00000000000E+00 0.  1.
         11    1    3    3    0    0 -0.64175968272E+01 -0.22712584764E+02 -0.58854089563E+02  0.63410179893E+02  0.00000000000E+00 0. -1.
</event>
<event>
 7    1  0.4274778E-006  0.1034572E+03  0.7561462E-02  0.1273189E+00
         -1   -1    0    0    0  501 -0.00000000000E+00  0.00000000000E+00  0.87465643709E+02  0.87465643709E+02  0.00000000000E+00 0.  1.
          1   -1    0    0  501    0  0.00000000000E+00 -0.00000000000E+00 -0.15745823959E+03  0.15745823959E+03  0.00000000000E+00 0. -1.
         23    2    1    2    0    0  0.30815024022E+02 -0.21378285014E+02 -0.54081874051E+02  0.11336748635E+03  0.92307860361E+02 0.  0.
          5    1    1    2  502    0 -0.76569743412E+02  0.36136807694E+01  0.72746605801E+01  0.77112757579E+02  0.41800000000E+01 0. -1.
         -5    1    1    2    0  502  0.45754719391E+02  0.17764604245E+02 -0.23185382409E+02  0.54443639371E+02  0.41800000000E+01 0. -1.
        -11    1    3    3    0    0 -0.19223371420E+02 -0.24034632110E+02 -0.55251484336E+02  0.63244984550E+02  0.00000000000E+00 0. -1.
         11    1    3    3    0    0  0.50038395442E+02  0.26563470962E+01  0.11696102849E+01  0.50122501798E+02  0.00000000000E+00 0.  1.
</event>
<event>
 7    1  0.4274778E-006  0.1143724E+03  0.7561462E-02  0.1252681E+00
         -3   -1    0    0    0  501 -0.00000000000E+00  0.00000000000E+00  0.59570138383E+03  0.59570138383E+03  0.00000000000E+00 0.  1.
          3   -1    0    0  501    0  0.00000000000E+00 -0.00000000000E+00 -0.41821024273E+02  0.41821024273E+02  0.00000000000E+00 0. -1.
         23    2    1    2    0    0  0.72454784418E+02 -0.85877256316E+02  0.24446635190E+03  0.28537335022E+03  0.95129137835E+02 0.  0.
          5    1    1    2  502    0 -0.60984375588E+02  0.82068615937E+02  0.31973727001E+03  0.33571378587E+03  0.41800000000E+01 0.  1.
         -5    1    1    2    0  502 -0.11470408830E+02  0.38086403790E+01 -0.10323262362E+02  0.16435272011E+02  0.41800000000E+01 0.  1.
        -11    1    3    3    0    0  0.27996877837E+02 -0.21096621121E+02  0.76728070269E+01  0.35885436587E+02  0.00000000000E+00 0. -1.
         11    1    3    3    0    0  0.44457906582E+02 -0.64780635195E+02  0.23679354488E+03  0.24948791363E+03  0.00000000000E+00 0.  1.
</event>
<event>
 7    1  0.4274778E-006  0.1676446E+03  0.7561462E-02  0.1180327E+00
          2   -1    0    0  501    0  0.00000000000E+00  0.00000000000E+00  0.95669543710E+02  0.95669543710E+02  0.00000000000E+00 0. -1.
         -2   -1    0    0    0  501 -0.00000000000E+00 -0.00000000000E+00 -0.41423119903E+03  0.41423119903E+03  0.00000000000E+00 0.  1.
         23    2    1    2    0    0 -0.73842039447E+02  0.14372552114E+03 -0.86974419003E+02  0.20104919752E+03  0.82137433879E+02 0.  0.
          5    1    1    2  502    0  0.79903615493E+02 -0.11631430628E+03 -0.96964606839E+02  0.17126941640E+03  0.41800000000E+01 0.  1.
         -5    1    1    2    0  502 -0.60615760468E+01 -0.27411214859E+02 -0.13462262948E+03  0.13758212883E+03  0.41800000000E+01 0.  1.
        -11    1    3    3    0    0 -0.40443407640E+02  0.40503564782E+02 -0.71299262001E+02  0.91431902219E+02  0.00000000000E+00 0.  1.
         11    1    3    3    0    0 -0.33398631807E+02  0.10322195636E+03 -0.15675157001E+02  0.10961729530E+03  0.00000000000E+00 0. -1.
</event>
<event>
 7    1  0.4274778E-006  0.7895510E+02  0.7561462E-02  0.1332043E+00
          2   -1    0    0  501    0  0.00000000000E+00  0.00000000000E+00  0.15530294793E+03  0.15530294793E+03  0.00000000000E+00 0. -1.
         -2   -1    0    0    0  501 -0.00000000000E+00 -0.00000000000E+00 -0.74627376932E+02  0.74627376932E+02  0.00000000000E+00 0.  1.
         23    2    1    2    0    0 -0.47099487954E+01  0.26564859477E+01  0.48825784120E+02  0.10073444215E+03  0.87944471719E+02 0.  0.
          5    1    1    2  502    0  0.27681418792E+01  0.57635678375E+02  0.36735030821E+02  0.68530788122E+02  0.41800000000E+01 0.  1.
         -5    1    1    2    0  502  0.19418069162E+01 -0.60292164323E+02 -0.48852439416E+01  0.60665094586E+02  0.41800000000E+01 0.  1.
        -11    1    3    3    0    0  0.13549128376E+02 -0.10451579233E+02 -0.21168426879E+02  0.27219784804E+02  0.00000000000E+00 0.  1.
         11    1    3    3    0    0 -0.18259077172E+02  0.13108065181E+02  0.69994210999E+02  0.73514657350E+02  0.00000000000E+00 0. -1.
</event>
<event>
 7    1  0.4274778E-006  0.1271760E+03  0.7561462E-02  0.1231707E+00
         -1   -1    0    0    0  501 -0.00000000000E+00  0.00000000000E+00  0.29987467653E+02  0.29987467653E+02  0.00000000000E+00 0.  1.
          1   -1    0    0  501    0  0.00000000000E+00 -0.00000000000E+00 -0.85408629398E+03  0.85408629398E+03  0.00000000000E+00 0. -1.
         23    2    1    2    0    0  0.56315578091E+02  0.85054394688E+02 -0.54295219870E+03  0.55989025808E+03  0.90963270737E+02 0.  0.
          5    1    1    2  502    0 -0.53404824039E+02 -0.27154833305E+02 -0.31416232860E+02  0.67778405777E+02  0.41800000000E+01 0.  1.
         -5    1    1    2    0  502 -0.29107540520E+01 -0.57899561383E+02 -0.24973039477E+03  0.25640509778E+03  0.41800000000E+01 0.  1.
        -11    1    3    3    0    0 -0.24912208479E+02  0.23592429255E+02 -0.11691980817E+03  0.12185016369E+03  0.00000000000E+00 0. -1.
         11    1    3    3    0    0  0.81227786571E+02  0.61461965433E+02 -0.42603239054E+03  0.43804009439E+03  0.00000000000E+00 0.  1.
</event>
<event>
 7    1  0.4274778E-006  0.1607376E+03  0.7561462E-02  0.1187867E+00
          2   -1    0    0  501    0  0.00000000000E+00  0.00000000000E+00  0.73848143262E+03  0.73848143262E+03  0.00000000000E+00 0. -1.
         -2   -1    0    0    0  501 -0.00000000000E+00 -0.00000000000E+00 -0.46609605512E+02  0.46609605512E+02  0.00000000000E+00 0.  1.
         23    2    1    2    0    0  0.10224220930E+03  0.95445247932E+02  0.44059383150E+03  0.47148147701E+03  0.92782509627E+02 0.  0.
          5    1    1    2  502    0  0.14337275110E+02 -0.56765824453E+02  0.46933707367E+02  0.75154251847E+02  0.41800000000E+01 0. -1.
         -5    1    1    2    0  502 -0.11657948441E+03 -0.38679423479E+02  0.20434428825E+03  0.23845530928E+03  0.41800000000E+01 0. -1.
        -11    1    3    3    0    0  0.21003848066E+02  0.20502560151E+02  0.17463413541E+02  0.34153878533E+02  0.00000000000E+00 0.  1.
         11    1    3    3    0    0  0.81238361229E+02  0.74942687781E+02  0.42313041796E+03  0.43732759848E+03  0.00000000000E+00 0. -1.
</event>
<event>
 7    1  0.4274778E-006  0.1018139E+03  0.7561462E-02  0.1276527E+00
         -2   -1    0    0    0  501 -0.00000000000E+00  0.00000000000E+00  0.81162501770E+02  0.81162501770E+02  0.00000000000E+00 0.  1.
          2   -1    0    0  501    0  0.00000000000E+00 -0.00000000000E+00 -0.18501239801E+03  0.18501239801E+03  0.00000000000E+00 0. -1.
         23    2    1    2    0    0  0.11330128815E+02 -0.26086417031E+02 -0.10775680237E+03  0.14311983305E+03  0.89793569820E+02 0.  0.
          5    1    1    2  502    0 -0.46614333974E+02  0.51052873265E+02  0.26437084333E+02  0.74132879537E+02  0.41800000000E+01 0. -1.
         -5    1    1    2    0  502  0.35284205159E+02 -0.24966456234E+02 -0.22530178201E+02  0.48922187199E+02  0.41800000000E+01 0.  1.
        -11    1    3    3    0    0 -0.26222236775E+02  0.18914875329E+02 -0.21478715575E+02  0.38816406750E+02  0.00000000000E+00 0. -1.
         11    1    3    3    0    0  0.37552365591E+02 -0.45001292360E+02 -0.86278086799E+02  0.10430342630E+03  0.00000000000E+00 0.  1.
</event>
<event>
 7    1  0.4274778E-006  0.7872059E+02  0.7561462E-02  0.1332722E+00
         -1   -1    0    0    0  501 -0.00000000000E+00  0.00000000000E+00  0.20118934338E+02  0.20118934338E+02  0.00000000000E+00 0.  1.
          1   -1    0    0  501    0  0.00000000000E+00 -0.00000000000E+00 -0.62210653229E+03  0.62210653229E+03  0.00000000000E+00 0. -1.
         23    2    1    2    0    0  0.26744047693E+02 -0.16803057988E+01 -0.27978418117E+03  0.29555451133E+03  0.91406857631E+02 0.  0.
          5    1    1    2  502    0  0.16915103853E+02  0.11662135452E+02  0.37663419139E+00  0.20969987959E+02  0.41800000000E+01 0. -1.
         -5    1    1    2    0  502 -0.43659151546E+02 -0.99818296537E+01 -0.32258005098E+03  0.32570096734E+03  0.41800000000E+01 0. -1.
        -11    1    3    3    0    0 -0.14645266677E+01  0.40622491397E+02 -0.16637956056E+03  0.17127314389E+03  0.00000000000E+00 0.  1.
         11    1    3    3    0    0  0.28208574361E+02 -0.42302797196E+02 -0.11340462061E+03  0.12428136744E+03  0.00000000000E+00 0. -1.
</event>
<event>
 7    1  0.4274778E-006  0.1118040E+03  0.7561462E-02  0.1257265E+00
          2   -1    0    0  501    0  0.00000000000E+00  0.00000000000E+00  0.21303368406E+02  0.21303368406E+02  0.00000000000E+00 0. -1.
         -2   -1    0    0    0  501 -0.00000000000E+00 -0.00000000000E+00 -0.72572103102E+03  0.72572103102E+03  0.00000000000E+00 0.  1.
         23    2    1    2    0    0  0.42077758632E+02 -0.15360190930E+02 -0.22083891586E+03  0.24295634238E+03  0.90837681105E+02 0.  0.
          5    1    1    2  502    0 -0.84150960129E+02  0.12425858447E+02 -0.20055908091E+03  0.21789264188E+03  0.41800000000E+01 0. -1.
         -5    1    1    2    0  502  0.42073201497E+02  0.29343324838E+01 -0.28301966584E+03  0.28617541516E+03  0.41800000000E+01 0.  1.
        -11    1    3    3    0    0  0.67037352167E+02 -0.21417976721E+02 -0.12208024733E+03  0.14091246609E+03  0.00000000000E+00 0.  1.
         11    1    3    3    0    0 -0.24959593535E+02  0.60577857910E+01 -0.98758668530E+02  0.10204387629E+03  0.00000000000E+00 0. -1.
</event>
<event>
 7    1  0.4274778E-006  0.1066498E+03  0.7561462E-02  0.1266903E+00
         -1   -1    0    0    0  501 -0.00000000000E+00  0.00000000000E+00  0.52739395693E+02  0.52739395693E+02  0.00000000000E+00 0.  1.
          1   -1    0    0  501    0  0.00000000000E+00 -0.00000000000E+00 -0.31857360927E+03  0.31857360927E+03  0.00000000000E+00 0. -1.
         23    2    1    2    0    0 -0.26233716937E+02  0.11239787934E+02 -0.20568108450E+03  0.22960849465E+03  0.97983731075E+02 0.  0.
          5    1    1    2  502    0  0.56531811926E+01 -0.62731047423E+02 -0.49017330752E+01  0.63313838578E+02  0.41800000000E+01 0.  1.
         -5    1    1    2    0  502  0.20580535744E+02  0.51491259489E+02 -0.55251395996E+02  0.78390671733E+02  0.41800000000E+01 0.  1.
        -11    1    3    3    0    0  0.26994395077E+02 -0.19314339368E+02 -0.11801433788E+03  0.12259333186E+03  0.00000000000E+00 0. -1.
         11    1    3    3    0    0 -0.53228112014E+02  0.30554127302E+02 -0.87666746624E+02  0.10701516279E+03  0.00000000000E+00 0.  1.
</event>
<event>
 7    1  0.4274778E-006  0.1536464E+03  0.7561462E-02  0.1196063E+00
         -1   -1    0    0    0  501 -0.00000000000E+00  0.00000000000E+00  0.12117737729E+03  0.12117737729E+03  0.00000000000E+00 0.  1.
          1   -1    0    0  501    0  0.00000000000E+00 -0.00000000000E+00 -0.26078063177E+03  0.26078063177E+03  0.00000000000E+00 0. -1.
         23    2    1    2    0    0  0.12206242066E+03  0.16898321185E+02 -0.13817864209E+03  0.20635579015E+03  0.91129507868E+02 0.  0.
          5    1    1    2  502    0 -0.14732025528E+03 -0.12226863346E+02 -0.99422487784E+01  0.14821968328E+03  0.41800000000E+01 0. -1.
         -5    1    1    2    0  502  0.25257834621E+02 -0.46714578389E+01  0.85176363833E+01  0.27382535632E+02  0.41800000000E+01 0. -1.
        -11    1    3    3    0    0  0.38749635297E+02  0.30052976254E+02 -0.57854341649E+01  0.49377999816E+02  0.00000000000E+00 0.  1.
         11    1    3    3    0    0  0.83312785358E+02 -0.13154655069E+02 -0.13239320792E+03  0.15697779033E+03  0.00000000000E+00 0. -1.
</event>
<event>
 7    1  0.4274778E-006  0.9027317E+02  0.7561462E-02  0.1302192E+00
          1   -1    0    0  501    0  0.00000000000E+00  0.00000000000E+00  0.23021631624E+03  0.23021631624E+03  0.00000000000E+00 0. -1.
         -1   -1    0    0    0  501 -0.00000000000E+00 -0.00000000000E+00 -0.60577732422E+02  0.60577732422E+02  0.00000000000E+00 0.  1.
         23    2    1    2    0    0  0.25811310765E+02  0.12884202441E+02  0.14479286000E+03  0.17368341727E+03  0.91480766777E+02 0.  0.
          5    1    1    2  502    0  0.34842681418E+02 -0.45505204656E+01  0.40497648626E+02  0.53779658136E+02  0.41800000000E+01 0. -1.
         -5    1    1    2    0  502 -0.60653992183E+02 -0.83336819750E+01 -0.15651924814E+02  0.63330973255E+02  0.41800000000E+01 0.  1.
        -11    1    3    3    0    0 -0.28323686713E+02  0.84594532338E+00  0.13972994000E+02  0.31594167403E+02  0.00000000000E+00 0.  1.
         11    1    3    3    0    0  0.54134997478E+02  0.12038257117E+02  0.13081986600E+03  0.14208924987E+03  0.00000000000E+00 0. -1.
</event>
<event>
 7    1  0.4274778E-006  0.1087751E+03  0.7561462E-02  0.1262855E+00
         -1   -1    0    0    0  501 -0.00000000000E+00  0.00000000000E+00  0.54475409374E+03  0.54475409374E+03  0.00000000000E+00 0.  1.
          1   -1    0    0  501    0  0.00000000000E+00 -0.00000000000E+00 -0.53327599392E+02  0.53327599392E+02  0.00000000000E+00 0. -1.
         23    2    1    2    0    0 -0.52328587665E+02  0.20531463529E+02  0.18344013488E+02  0.10897154896E+03  0.91534002257E+02 0.  0.
          5    1    1    2  502    0  0.10512872827E+02  0.37163663476E+02  0.72829090684E+02  0.82542154248E+02  0.41800000000E+01 0. -1.
         -5    1    1    2    0  502  0.41815714838E+02 -0.57695127005E+02  0.40025339017E+03  0.40656798993E+03  0.41800000000E+01 0.  1.
        -11    1    3    3    0    0 -0.53942379796E+02 -0.26614988526E+02  0.80479407076E+01  0.60686961548E+02  0.00000000000E+00 0.  1.
         11    1    3    3    0    0  0.16137921307E+01  0.47146452055E+02  0.10296072780E+02  0.48284587407E+02  0.00000000000E+00 0. -1.
</event>
<event>
 7    1  0.4274778E-006  0.1062399E+03  0.7561462E-02  0.1267696E+00
         -2   -1    0    0    0  501 -0.00000000000E+00  0.00000000000E+00  0.76860306798E+02  0.76860306798E+02  0.00000000000E+00 0.  1.
          2   -1    0    0  501    0  0.00000000000E+00 -0.00000000000E+00 -0.17870701547E+03  0.17870701547E+03  0.00000000000E+00 0. -1.
         23    2    1    2    0    0  0.18347813089E+02  0.40136272821E+02 -0.52571654537E+02  0.11406580933E+03  0.91102510152E+02 0.  0.
          5    1    1    2  502    0 -0.26662984345E+02 -0.81965680385E+02 -0.17243084151E+02  0.88000476397E+02  0.41800000000E+01 0.  1.
         -5    1    1    2    0  502  0.83151712562E+01  0.41829407563E+02 -0.32031969986E+02  0.53501036544E+02  0.41800000000E+01 0.  1.
        -11    1    3    3    0    0 -0.26919194752E+02  0.21199217390E+02 -0.55152453702E+02  0.64929523434E+02  0.00000000000E+00 0. -1.
         11    1    3    3    0    0  0.45267007840E+02  0.18937055431E+02  0.25807991649E+01  0.49136285895E+02  0.00000000000E+00 0.  1.
</event>
<event>
 7    1  0.4274778E-006  0.1228620E+03  0.7561462E-02  0.1238449E+00
          1   -1    0    0  501    0  0.00000000000E+00  0.00000000000E+00  0.69961020943E+03  0.69961020943E+03  0.00000000000E+00 0. -1.
         -1   -1    0    0    0  501 -0.00000000000E+00 -0.00000000000E+00 -0.25123935239E+02  0.25123935239E+02  0.00000000000E+00 0.  1.
         23    2    1    2    0    0  0.89647132150E+00  0.76806136126E+02  0.32951436144E+03  0.34982941216E+03  0.88887102576E+02 0.  0.
          5    1    1    2  502    0  0.38310305316E+02 -0.88515608124E+02  0.29378115049E+03  0.30923701130E+03  0.41800000000E+01 0.  1.
         -5    1    1    2    0  502 -0.39206776637E+02  0.11709471998E+02  0.51190762258E+02  0.65667721213E+02  0.41800000000E+01 0.  1.
        -11    1    3    3    0    0 -0.25073907557E+02 -0.19254953657E+01  0.30477261694E+02  0.39512932730E+02  0.00000000000E+00 0.  1.
         11    1    3    3    0    0  0.25970378878E+02  0.78731631492E+02  0.29903709975E+03  0.31031647943E+03  0.00000000000E+00 0. -1.
</event>
<event>
 7    1  0.4274778E-006  0.8395551E+02  0.7561462E-02  0.1318187E+00
         -1   -1    0    0    0  501 -0.00000000000E+00  0.00000000000E+00  0.71190808447E+02  0.71190808447E+02  0.00000000000E+00 0.  1.
          1   -1    0    0  501    0  0.00000000000E+00 -0.00000000000E+00 -0.26278132636E+03  0.26278132636E+03  0.00000000000E+00 0. -1.
         23    2    1    2    0    0  0.20254095840E+02 -0.22299482919E+02 -0.19073351943E+03  0.21087876846E+03  0.84753077909E+02 0.  0.
          5    1    1    2  502    0 -0.39767486978E+02 -0.19008657328E+02 -0.42326787249E+02  0.61252031744E+02  0.41800000000E+01 0. -1.
         -5    1    1    2    0  502  0.19513391137E+02  0.41308140247E+02  0.41469788772E+02  0.61841334600E+02  0.41800000000E+01 0.  1.
        -11    1    3    3    0    0  0.98985578031E-01 -0.46367506265E+02 -0.16134929921E+03  0.16787957526E+03  0.00000000000E+00 0. -1.
         11    1    3    3    0    0  0.20155110262E+02  0.24068023345E+02 -0.29384220227E+02  0.42999193199E+02  0.00000000000E+00 0.  1.
</event>
<event>
 7    1  0.4274778E-006  0.1018942E+03  0.7561462E-02  0.1276362E+00
          2   -1    0    0  501    0  0.00000000000E+00  0.00000000000E+00  0.16623786194E+03  0.16623786194E+03  0.00000000000E+00 0. -1.
         -2   -1    0    0    0  501 -0.00000000000E+00 -0.00000000000E+00 -0.88600780109E+02  0.88600780109E+02  0.00000000000E+00 0.  1.
         23    2    1    2    0    0 -0.24982046447E+02  0.34280401013E+02  0.50887941297E+02  0.13376455174E+03  0.11620724673E+03 0.  0.
          5    1    1    2  502    0  0.13348309990E+02 -0.59597101614E+02  0.54182252450E+02  0.81750723428E+02  0.41800000000E+01 0. -1.
         -5    1    1    2    0  502  0.11633736457E+02  0.25316700600E+02 -0.27433111920E+02  0.39323366881E+02  0.41800000000E+01 0.  1.
        -11    1    3    3    0    0 -0.37795117821E+02  0.68292126360E+02  0.94140188802E+01  0.78618758609E+02  0.00000000000E+00 0.  1.
         11    1    3    3    0    0  0.12813071373E+02 -0.34011725346E+02  0.41473922416E+02  0.55145793127E+02  0.00000000000E+00 0. -1.
</event>
<event>
 7    1  0.4274778E-006  0.1438746E+03  0.7561462E-02  0.1208208E+00
          2   -1    0    0  501    0  0.00000000000E+00  0.00000000000E+00  0.11456942618E+03  0.11456942618E+03  0.00000000000E+00 0. -1.
         -2   -1    0    0    0  501 -0.00000000000E+00 -0.00000000000E+00 -0.31560608131E+03  0.31560608131E+03  0.00000000000E+00 0.  1.
         23    2    1    2    0    0 -0.92120100717E+01 -0.12340557747E+03  0.99621110522E+01  0.15543530325E+03  0.93525890325E+02 0.  0.
          5    1    1    2  502    0 -0.24824496752E+02  0.11493678779E+03 -0.20840103464E+03  0.23932234427E+03  0.41800000000E+01 0.  1.
         -5    1    1    2    0  502  0.34036506824E+02  0.84687896777E+01 -0.25977315424E+01  0.35417859966E+02  0.41800000000E+01 0.  1.
        -11    1    3    3    0    0  0.12694300493E+02 -0.39163613451E+01 -0.25612571995E+02  0.28852850733E+02  0.00000000000E+00 0.  1.
         11    1    3    3    0    0 -0.21906310565E+02 -0.11948921612E+03  0.35574683047E+02  0.12658245252E+03  0.00000000000E+00 0. -1.
</event>
<event>
 7    1  0.4274778E-006  0.1262169E+03  0.7561462E-02  0.1233180E+00
          1   -1    0    0  501    0  0.00000000000E+00  0.00000000000E+00  0.33660400795E+03  0.33660400795E+03  0.00000000000E+00 0. -1.
         -1   -1    0    0    0  501 -0.00000000000E+00 -0.00000000000E+00 -0.49672717581E+02  0.49672717581E+02  0.00000000000E+00 0.  1.
         23    2    1    2    0    0  0.49299252912E+02 -0.47318791919E+02  0.11807927244E+03  0.16530690498E+03  0.93349739423E+02 0.  0.
          5    1    1    2  502    0 -0.58549196137E+01  0.81412320878E+02  0.69768687918E+02  0.10745877483E+03  0.41800000000E+01 0. -1.
         -5    1    1    2    0  502 -0.43444333298E+02 -0.34093528960E+02  0.99083330019E+02  0.11351104572E+03  0.41800000000E+01 0. -1.
        -11    1    3    3    0    0  0.73112716765E+02 -0.53644863451E+02  0.98032672618E+02  0.13354267343E+03  0.00000000000E+00 0. -1.
         11    1    3    3    0    0 -0.23813463853E+02  0.63260715320E+01  0.20046599817E+02  0.31764231550E+02  0.00000000000E+00 0.  1.
</event>
<event>
 7    1  0.4274778E-006  0.1912085E+03  0.7561462E-02  0.1157376E+00
          1   -1    0    0  501    0  0.00000000000E+00  0.00000000000E+00  0.60955300798E+03  0.60955300798E+03  0.00000000000E+00 0. -1.
         -1   -1    0    0    0  501 -0.00000000000E+00 -0.00000000000E+00 -0.65724020350E+02  0.65724020350E+02  0.00000000000E+00 0.  1.
         23    2    1    2    0    0  0.95694128561E+02 -0.13131008399E+03  0.20385573245E+03  0.27825636058E+03  0.97312579638E+02 0.  0.
          5    1    1    2  502    0 -0.49721866421E+02 -0.14609656374E+02  0.84901919852E+02  0.99556589206E+02  0.41800000000E+01 0.  1.
         -5    1    1    2    0  502 -0.45972262140E+02  0.14591974036E+03  0.25507133533E+03  0.29746407854E+03  0.41800000000E+01 0.  1.
        -11    1    3    3    0    0  0.55433175678E+02 -0.19868416576E+02  0.11817126956E+03  0.13203045063E+03  0.00000000000E+00 0. -1.
         11    1    3    3    0    0  0.40260952882E+02 -0.11144166741E+03  0.85684462886E+02  0.14622590996E+03  0.00000000000E+00 0.  1.
</event>
<event>
 7    1  0.4274778E-006  0.1428462E+03  0.7561462E-02  0.1209550E+00
          2   -1    0    0  501    0  0.00000000000E+00  0.00000000000E+00  0.20882326960E+02  0.20882326960E+02  0.00000000000E+00 0.  1.
         -2   -1    0    0    0  501 -0.00000000000E+00 -0.00000000000E+00 -0.11686865947E+04  0.11686865947E+04  0.00000000000E+00 0. -1.
         23    2    1    2    0    0  0.68315049430E+02 -0.78228846762E+02 -0.36640897030E+03  0.39143653015E+03  0.90445150075E+02 0.  0.
          5    1    1    2  502    0 -0.39133353413E+02  0.10784857222E+03 -0.46371225405E+03  0.47771252950E+03  0.41800000000E+01 0.  1.
         -5    1    1    2    0  502 -0.29181696017E+02 -0.29619725462E+02 -0.31768304343E+03  0.32041986206E+03  0.41800000000E+01 0.  1.
        -11    1    3    3    0    0 -0.19889581182E+01 -0.55028561908E+02 -0.92033987340E+02  0.10724902520E+03  0.00000000000E+00 0.  1.
         11    1    3    3    0    0  0.70304007548E+02 -0.23200284854E+02 -0.27437498296E+03  0.28418750495E+03  0.00000000000E+00 0. -1.
</event>
<event>
 7    1  0.4274778E-006  0.9740071E+02  0.7561462E-02  0.1285859E+00
         -2   -1    0    0    0  501 -0.00000000000E+00  0.00000000000E+00  0.59918308271E+02  0.59918308271E+02  0.00000000000E+00 0.  1.
          2   -1    0    0  501    0  0.00000000000E+00 -0.00000000000E+00 -0.27914985736E+03  0.27914985736E+03  0.00000000000E+00 0. -1.
         23    2    1    2    0    0 -0.65150413205E+02  0.15447057974E+02 -0.12625608320E+03  0.16943430142E+03  0.91017558795E+02 0.  0.
          5    1    1    2  502    0 -0.14641228981E+02 -0.21735289259E+02 -0.85050841151E+02  0.89094928956E+02  0.41800000000E+01 0.  1.
         -5    1    1    2    0  502  0.79791642186E+02  0.62882312850E+01 -0.79246247317E+01  0.80538935258E+02  0.41800000000E+01 0.  1.
        -11    1    3    3    0    0 -0.68604037690E+01 -0.19142796983E+02  0.56735587862E+01  0.21111633890E+02  0.00000000000E+00 0.  1.
         11    1    3    3    0    0 -0.58290009436E+02  0.34589854957E+02 -0.13192964199E+03  0.14832266753E+03  0.00000000000E+00 0. -1.
</event>
<event>
 7    1  0.4274778E-006  0.1473962E+03  0.7561462E-02  0.1203710E+00
         -2   -1    0    0    0  501 -0.00000000000E+00  0.00000000000E+00  0.22583269889E+03  0.22583269889E+03  0.00000000000E+00 0.  1.
          2   -1    0    0  501    0  0.00000000000E+00 -0.00000000000E+00 -0.33903446138E+03  0.33903446138E+03  0.00000000000E+00 0. -1.
         23    2    1    2    0    0 -0.46880065182E+02  0.96443649251E+02 -0.73905778570E+02  0.16339857657E+03  0.98680863026E+02 0.  0.
          5    1    1    2  502    0  0.83717085123E+02 -0.58861112660E+02 -0.20413123159E+03  0.22838610517E+03  0.41800000000E+01 0. -1.
         -5    1    1    2    0  502 -0.36837019942E+02 -0.37582536591E+02  0.16483524768E+03  0.17308247853E+03  0.41800000000E+01 0.  1.
        -11    1    3    3    0    0 -0.70524148314E+02  0.46940400966E+02 -0.21215441471E+02  0.87333565684E+02  0.00000000000E+00 0.  1.
         11    1    3    3    0    0  0.23644083132E+02  0.49503248284E+02 -0.52690337099E+02  0.76065010889E+02  0.00000000000E+00 0. -1.
</event>
<event>
 7    1  0.4274778E-006  0.9105041E+02  0.7561462E-02  0.1300328E+00
         -1   -1    0    0    0  501 -0.00000000000E+00  0.00000000000E+00  0.15332909049E+04  0.15332909049E+04  0.00000000000E+00 0.  1.
          1   -1    0    0  501    0  0.00000000000E+00 -0.00000000000E+00 -0.18911710718E+02  0.18911710718E+02  0.00000000000E+00 0. -1.
         23    2    1    2    0    0 -0.46353740604E+02 -0.33103850944E+02  0.18966127146E+03  0.22037333437E+03  0.96687508984E+02 0.  0.
          5    1    1    2  502    0  0.41523139267E+02  0.60723667472E+01  0.12677438886E+04  0.12684451443E+04  0.41800000000E+01 0. -1.
         -5    1    1    2    0  502  0.48306013379E+01  0.27031484197E+02  0.56974034151E+02  0.63384136932E+02  0.41800000000E+01 0. -1.
        -11    1    3    3    0    0  0.83652741139E+01  0.28531259111E+02  0.53675597455E+02  0.61360250323E+02  0.00000000000E+00 0.  1.
         11    1    3    3    0    0 -0.54719014718E+02 -0.61635110055E+02  0.13598567400E+03  0.15901308404E+03  0.00000000000E+00 0. -1.
</event>
<event>
 7    1  0.4274778E-006  0.1267771E+03  0.7561462E-02  0.1232318E+00
         -1   -1    0    0    0  501 -0.00000000000E+00  0.00000000000E+00  0.46074021122E+02  0.46074021122E+02  0.00000000000E+00 0.  1.
          1   -1    0    0  501    0  0.00000000000E+00 -0.00000000000E+00 -0.37710966096E+03  0.37710966096E+03  0.00000000000E+00 0. -1.
         23    2    1    2    0    0 -0.64784395885E+02  0.26092507696E+02 -0.17741979178E+03  0.21312693652E+03  0.95223272615E+02 0.  0.
          5    1    1    2  502    0 -0.30432880513E+02  0.20398271535E+02 -0.33380181875E+02  0.49738904692E+02  0.41800000000E+01 0.  1.
         -5    1    1    2    0  502  0.95217276398E+02 -0.46490779231E+02 -0.12023566618E+03  0.16031784087E+03  0.41800000000E+01 0.  1.
        -11    1    3    3    0    0 -0.17774154827E+02  0.53393134262E+02 -0.52799934105E+02  0.77165927763E+02  0.00000000000E+00 0.  1.
         11    1    3    3    0    0 -0.47010241058E+02 -0.27300626567E+02 -0.12461985768E+03  0.13596100876E+03  0.00000000000E+00 0. -1.
</event>
<event>
 7    1  0.4274778E-006  0.2297606E+03  0.7561462E-02  0.1126808E+00
         -2   -1    0    0    0  501 -0.00000000000E+00  0.00000000000E+00  0.82881300884E+02  0.82881300884E+02  0.00000000000E+00 0.  1.
          2   -1    0    0  501    0  0.00000000000E+00 -0.00000000000E+00 -0.80682233294E+03  0.80682233294E+03  0.00000000000E+00 0. -1.
         23    2    1    2    0    0  0.30884191327E+02  0.20577890065E+03 -0.53781140492E+03  0.58378536186E+03  0.90914532562E+02 0.  0.
          5    1    1    2  502    0 -0.75957693154E+02 -0.11770496722E+03 -0.82711229871E+02  0.16273490838E+03  0.41800000000E+01 0. -1.
         -5    1    1    2    0  502  0.45073501827E+02 -0.88073933424E+02 -0.10341839727E+03  0.14318336359E+03  0.41800000000E+01 0. -1.
        -11    1    3    3    0    0 -0.14605499130E+02  0.13767916635E+03 -0.26557869383E+03  0.29950111197E+03  0.00000000000E+00 0. -1.
         11    1    3    3    0    0  0.45489690456E+02  0.68099734295E+02 -0.27223271109E+03  0.28428424989E+03  0.00000000000E+00 0.  1.
</event>
<event>
 7    1  0.4274778E-006  0.9171596E+02  0.7561462E-02  0.1298749E+00
         -4   -1    0    0    0  501 -0.00000000000E+00  0.00000000000E+00  0.90777902341E+02  0.90777902341E+02  0.00000000000E+00 0.  1.
          4   -1    0    0  501    0  0.00000000000E+00 -0.00000000000E+00 -0.15720603501E+03  0.15720603501E+03  0.00000000000E+00 0. -1.
         23    2    1    2    0    0 -0.20228504496E+02 -0.26723787623E+01 -0.77226875677E+02  0.12077979572E+03  0.90594893482E+02 0.  0.
          5    1    1    2  502    0 -0.46314520176E+02  0.26857780467E+02  0.16150062854E+02  0.56077375838E+02  0.41800000000E+01 0. -1.
         -5    1    1    2    0  502  0.66543024672E+02 -0.24185401704E+02 -0.53513198470E+01  0.71126765793E+02  0.41800000000E+01 0. -1.
        -11    1    3    3    0    0 -0.25461973696E+02  0.21959612121E+02  0.57094702589E+01  0.34104760953E+02  0.00000000000E+00 0.  1.
         11    1    3    3    0    0  0.52334692004E+01 -0.24631990883E+02 -0.82936345936E+02  0.86675034768E+02  0.00000000000E+00 0. -1.
</event>
<event>
 7    1  0.4274778E-006  0.2108238E+03  0.7561462E-02  0.1140915E+00
         -1   -1    0    0    0  501 -0.00000000000E+00  0.00000000000E+00  0.48219252333E+03  0.48219252333E+03  0.00000000000E+00 0.  1.
          1   -1    0    0  501    0  0.00000000000E+00 -0.00000000000E+00 -0.11070686856E+03  0.11070686856E+03  0.00000000000E+00 0. -1.
         23    2    1    2    0    0 -0.17792920629E+03  0.76195594450E+02  0.96936549802E+02  0.23444741891E+03  0.90024032786E+02 0.  0.
          5    1    1    2  502    0  0.70057553116E+02  0.29988113154E+02  0.11899606764E+03  0.14136790369E+03  0.41800000000E+01 0. -1.
         -5    1    1    2    0  502  0.10787165318E+03 -0.10618370760E+03  0.15555303733E+03  0.21708406930E+03  0.41800000000E+01 0. -1.
        -11    1    3    3    0    0 -0.47956297980E+02  0.15012525626E+02  0.73286794732E+02  0.88860208889E+02  0.00000000000E+00 0.  1.
         11    1    3    3    0    0 -0.12997290831E+03  0.61183068824E+02  0.23649755070E+02  0.14558721002E+03  0.00000000000E+00 0. -1.
</event>
<event>
 7    1  0.4274778E-006  0.1201515E+03  0.7561462E-02  0.1242847E+00
          2   -1    0    0  501    0  0.00000000000E+00  0.00000000000E+00  0.47217090174E+02  0.47217090174E+02  0.00000000000E+00 0.  1.
         -2   -1    0    0    0  501 -0.00000000000E+00 -0.00000000000E+00 -0.49802585432E+03  0.49802585432E+03  0.00000000000E+00 0. -1.
         23    2    1    2    0    0 -0.48457857156E+02 -0.78058764819E+02 -0.10295484548E+03  0.16433727032E+03  0.89250790034E+02 0.  0.
          5    1    1    2  502    0  0.45577815301E+01 -0.18129722579E+02 -0.20389261362E+01  0.19263692093E+02  0.41800000000E+01 0.  1.
         -5    1    1    2    0  502  0.43900075626E+02  0.96188487398E+02 -0.34581499253E+03  0.36164198208E+03  0.41800000000E+01 0.  1.
        -11    1    3    3    0    0 -0.36175227560E+02  0.13902189428E+00 -0.22483566075E+01  0.36245296571E+02  0.00000000000E+00 0. -1.
         11    1    3    3    0    0 -0.12282629596E+02 -0.78197786714E+02 -0.10070648887E+03  0.12809197375E+03  0.00000000000E+00 0.  1.
</event>
<event>
 7    1  0.4274778E-006  0.1140430E+03  0.7561462E-02  0.1253261E+00
         -1   -1    0    0    0  501 -0.00000000000E+00  0.00000000000E+00  0.52319568860E+03  0.52319568860E+03  0.00000000000E+00 0.  1.
          1   -1    0    0  501    0  0.00000000000E+00 -0.00000000000E+00 -0.40113781636E+02  0.40113781636E+02  0.00000000000E+00 0. -1.
         23    2    1    2    0    0 -0.69873169761E+02  0.56031003421E+02  0.15622974418E+03  0.20205957193E+03  0.91643900197E+02 0.  0.
          5    1    1    2  502    0 -0.57639868336E+01  0.16828692863E+02  0.38091749262E+00  0.18276923862E+02  0.41800000000E+01 0.  1.
         -5    1    1    2    0  502  0.75637156595E+02 -0.72859696284E+02  0.32647124529E+03  0.34297297445E+03  0.41800000000E+01 0.  1.
        -11    1    3    3    0    0 -0.46679956667E+02  0.29401353691E+01  0.13057196817E+03  0.13869643695E+03  0.00000000000E+00 0.  1.
         11    1    3    3    0    0 -0.23193213094E+02  0.53090868052E+02  0.25657776007E+02  0.63363134974E+02  0.00000000000E+00 0. -1.
</event>
<event>
 7    1  0.4274778E-006  0.3613234E+03  0.7561462E-02  0.1058061E+00
         -1   -1    0    0    0  501 -0.00000000000E+00  0.00000000000E+00  0.15807070509E+03  0.15807070509E+03  0.00000000000E+00 0.  1.
          1   -1    0    0  501    0  0.00000000000E+00 -0.00000000000E+00 -0.90244659648E+03  0.90244659648E+03  0.00000000000E+00 0. -1.
         23    2    1    2    0    0 -0.25190969570E+03  0.23937482682E+03 -0.50050640942E+03  0.61434394263E+03  0.78441133834E+02 0.  0.
          5    1    1    2  502    0  0.55070496637E+02 -0.13982466081E+03 -0.12531508290E+03  0.19571672840E+03  0.41800000000E+01 0. -1.
         -5    1    1    2    0  502  0.19683919906E+03 -0.99550166004E+02 -0.11855439907E+03  0.25045663053E+03  0.41800000000E+01 0.  1.
        -11    1    3    3    0    0 -0.12967189493E+03  0.86157281476E+02 -0.27095376390E+03  0.31249611143E+03  0.00000000000E+00 0. -1.
         11    1    3    3    0    0 -0.12223780077E+03  0.15321754534E+03 -0.22955264552E+03  0.30184783120E+03  0.00000000000E+00 0.  1.
</event>
<event>
 7    1  0.4274778E-006  0.1851872E+03  0.7561462E-02  0.1162875E+00
          2   -1    0    0  501    0  0.00000000000E+00  0.00000000000E+00  0.62033409776E+02  0.62033409776E+02  0.00000000000E+00 0. -1.
         -2   -1    0    0    0  501 -0.00000000000E+00 -0.00000000000E+00 -0.80041010013E+03  0.80041010013E+03  0.00000000000E+00 0.  1.
         23    2    1    2    0    0 -0.13400298467E+03  0.10862583660E+03 -0.18026881684E+03  0.26504236950E+03  0.89410508478E+02 0.  0.
          5    1    1    2  502    0  0.12518137067E+03 -0.78604327621E+02 -0.27235037255E+03  0.30990516890E+03  0.41800000000E+01 0.  1.
         -5    1    1    2    0  502  0.88216140059E+01 -0.30021508980E+02 -0.28575750096E+03  0.28749597151E+03  0.41800000000E+01 0.  1.
        -11    1    3    3    0    0 -0.63957997958E+02  0.10223991326E+03 -0.13676045037E+03  0.18233772553E+03  0.00000000000E+00 0.  1.
         11    1    3    3    0    0 -0.70044986715E+02  0.63859233382E+01 -0.43508366467E+02  0.82704643965E+02  0.00000000000E+00 0. -1.
</event>
<event>
 7    1  0.4274778E-006  0.2125508E+03  0.7561462E-02  0.1139562E+00
         -1   -1    0    0    0  501 -0.00000000000E+00  0.00000000000E+00  0.21285611561E+03  0.21285611561E+03  0.00000000000E+00 0.  1.
          1   -1    0    0  501    0  0.00000000000E+00 -0.00000000000E+00 -0.23579130846E+03  0.23579130846E+03  0.00000000000E+00 0. -1.
         23    2    1    2    0    0  0.59939710406E+02  0.18198779516E+03 -0.51905719844E+02  0.21798975986E+03  0.90072222028E+02 0.  0.
          5    1    1    2  502    0 -0.13423378763E+02  0.15654884185E+02 -0.10897085793E+02  0.23695598220E+02  0.41800000000E+01 0.  1.
         -5    1    1    2    0  502 -0.46516331643E+02 -0.19764267935E+03  0.39867612789E+02  0.20696206599E+03  0.41800000000E+01 0.  1.
        -11    1    3    3    0    0  0.32929236322E+02  0.24133307811E+02  0.16250585490E+02  0.43941241213E+02  0.00000000000E+00 0.  1.
         11    1    3    3    0    0  0.27010474084E+02  0.15785448735E+03 -0.68156305334E+02  0.17404851865E+03  0.00000000000E+00 0. -1.
</event>
<event>
 7    1  0.4274778E-006  0.1066242E+03  0.7561462E-02  0.1266952E+00
          1   -1    0    0  501    0  0.00000000000E+00  0.00000000000E+00  0.40762432539E+02  0.40762432539E+02  0.00000000000E+00 0. -1.
         -1   -1    0    0    0  501 -0.00000000000E+00 -0.00000000000E+00 -0.45677469594E+03  0.45677469594E+03  0.00000000000E+00 0.  1.
         23    2    1    2    0    0  0.28229290772E+02  0.61354217193E+02 -0.97836738555E+02  0.14904813693E+03  0.89900427621E+02 0.  0.
          5    1    1    2  502    0  0.24808556140E+02 -0.32556260878E+02 -0.26429112534E+03  0.26747457059E+03  0.41800000000E+01 0.  1.
         -5    1    1    2    0  502 -0.53037846912E+02 -0.28797956315E+02 -0.53884399510E+02  0.81014420961E+02  0.41800000000E+01 0.  1.
        -11    1    3    3    0    0 -0.22152040555E+01 -0.22391042178E+02 -0.12853497357E+02  0.25912898200E+02  0.00000000000E+00 0.  1.
         11    1    3    3    0    0  0.30444494827E+02  0.83745259371E+02 -0.84983241199E+02  0.12313523873E+03  0.00000000000E+00 0. -1.
</event>
<event>
 7    1  0.4274778E-006  0.8283080E+02  0.7561462E-02  0.1321205E+00
          3   -1    0    0  501    0  0.00000000000E+00  0.00000000000E+00  0.13803365776E+03  0.13803365776E+03  0.00000000000E+00 0. -1.
         -3   -1    0    0    0  501 -0.00000000000E+00 -0.00000000000E+00 -0.11947955010E+03  0.11947955010E+03  0.00000000000E+00 0.  1.
         23    2    1    2    0    0  0.11276674053E+02  0.14009357352E+02  0.74785286907E+02  0.11919481430E+03  0.91055692557E+02 0.  0.
          5    1    1    2  502    0 -0.10023392713E+02 -0.50393400540E+02 -0.79615862833E+02  0.94847884710E+02  0.41800000000E+01 0. -1.
         -5    1    1    2    0  502 -0.12532813403E+01  0.36384043188E+02  0.23384683594E+02  0.43470508850E+02  0.41800000000E+01 0. -1.
        -11    1    3    3    0    0  0.40164083790E+02 -0.82440823428E+01  0.71705165773E+02  0.82599935345E+02  0.00000000000E+00 0. -1.
         11    1    3    3    0    0 -0.28887409737E+02  0.22253439695E+02  0.30801211339E+01  0.36594878955E+02  0.00000000000E+00 0.  1.
</event>
<event>
 7    1  0.4274778E-006  0.1200142E+03  0.7561462E-02  0.1243074E+00
          2   -1    0    0  501    0  0.00000000000E+00  0.00000000000E+00  0.41951939400E+02  0.41951939400E+02  0.00000000000E+00 0. -1.
         -2   -1    0    0    0  501 -0.00000000000E+00 -0.00000000000E+00 -0.54538253888E+03  0.54538253888E+03  0.00000000000E+00 0.  1.
         23    2    1    2    0    0 -0.84563491661E+02 -0.56755888952E+02 -0.17323473378E+03  0.21984424897E+03  0.89157196946E+02 0.  0.
          5    1    1    2  502    0  0.50546312408E+02  0.52609469683E+01 -0.28831248394E+03  0.29278689871E+03  0.41800000000E+01 0.  1.
         -5    1    1    2    0  502  0.34017179253E+02  0.51494941983E+02 -0.41883381760E+02  0.74703330595E+02  0.41800000000E+01 0.  1.
        -11    1    3    3    0    0  0.14457310247E+01 -0.39412856575E+02 -0.22427495518E+02  0.45370210015E+02  0.00000000000E+00 0. -1.
         11    1    3    3    0    0 -0.86009222686E+02 -0.17343032377E+02 -0.15080723826E+03  0.17447403896E+03  0.00000000000E+00 0.  1.
</event>
<event>
 7    1  0.4274778E-006  0.4392497E+02  0.7561462E-02  0.1481167E+00
          1   -1    0    0  501    0  0.00000000000E+00  0.00000000000E+00  0.11999713874E+03  0.11999713874E+03  0.00000000000E+00 0. -1.
         -1   -1    0    0    0  501 -0.00000000000E+00 -0.00000000000E+00 -0.10495187942E+03  0.10495187942E+03  0.00000000000E+00 0.  1.
         23    2    1    2    0    0 -0.27483731379E+01  0.31874469255E+02  0.54631072506E+02  0.89907373242E+02  0.63837656089E+02 0.  0.
          5    1    1    2  502    0  0.13930017677E+02 -0.22482226768E+02  0.43226528379E+02  0.50847822654E+02  0.41800000000E+01 0.  1.
         -5    1    1    2    0  502 -0.11181644540E+02 -0.93922424872E+01 -0.82812341556E+02  0.84193822264E+02  0.41800000000E+01 0.  1.
        -11    1    3    3    0    0  0.13407692011E+02  0.45830116256E+01 -0.10385555931E+02  0.17567867618E+02  0.00000000000E+00 0.  1.
         11    1    3    3    0    0 -0.16156065149E+02  0.27291457630E+02  0.65016628437E+02  0.72339505624E+02  0.00000000000E+00 0. -1.
</event>
<event>
 7    1  0.4274778E-006  0.1023774E+03  0.7561462E-02  0.1275375E+00
          4   -1    0    0  501    0  0.00000000000E+00  0.00000000000E+00  0.18978331389E+02  0.18978331389E+02  0.00000000000E+00 0. -1.
         -4   -1    0    0    0  501 -0.00000000000E+00 -0.00000000000E+00 -0.71148846908E+03  0.71148846908E+03  0.00000000000E+00 0.  1.
         23    2    1    2    0    0 -0.20752193696E+02  0.20943791199E+02 -0.22724530718E+03  0.24777840517E+03  0.94257161513E+02 0.  0.
          5    1    1    2  502    0  0.37664962221E+02  0.38822566981E+02 -0.32118135603E+03  0.32573114212E+03  0.41800000000E+01 0. -1.
         -5    1    1    2    0  502 -0.16912768525E+02 -0.59766358180E+02 -0.14408347448E+03  0.15695725318E+03  0.41800000000E+01 0. -1.
        -11    1    3    3    0    0 -0.13147844447E+02 -0.32086610842E+02 -0.39604361685E+02  0.52639546668E+02  0.00000000000E+00 0. -1.
         11    1    3    3    0    0 -0.76043492490E+01  0.53030402041E+02 -0.18764094550E+03  0.19513885850E+03  0.00000000000E+00 0.  1.
</event>
<event>
 7    1  0.4274778E-006  0.1320377E+03  0.7561462E-02  0.1224463E+00
         -2   -1    0    0    0  501 -0.00000000000E+00  0.00000000000E+00  0.76155740370E+03  0.76155740370E+03  0.00000000000E+00 0.  1.
          2   -1    0    0  501    0  0.00000000000E+00 -0.00000000000E+00 -0.27147430620E+02  0.27147430620E+02  0.00000000000E+00 0. -1.
         23    2    1    2    0    0  0.25718594491E+02  0.47890314444E+02  0.27176887820E+03  0.29150193300E+03  0.90333412762E+02 0.  0.
          5    1    1    2  502    0 -0.92910882558E+02 -0.54081633065E+02  0.21382361334E+03  0.23936429382E+03  0.41800000000E+01 0. -1.
         -5    1    1    2    0  502  0.67192288068E+02  0.61913186211E+01  0.24881748154E+03  0.25783860750E+03  0.41800000000E+01 0.  1.
        -11    1    3    3    0    0  0.47418475057E+02  0.15483878820E+02  0.22567521605E+03  0.23112240355E+03  0.00000000000E+00 0.  1.
         11    1    3    3    0    0 -0.21699880566E+02  0.32406435623E+02  0.46093662149E+02  0.60379529451E+02  0.00000000000E+00 0. -1.
</event>
<event>
 7    1  0.4274778E-006  0.1010570E+03  0.7561462E-02  0.1278089E+00
          2   -1    0    0  501    0  0.00000000000E+00  0.00000000000E+00  0.60204486629E+03  0.60204486629E+03  0.00000000000E+00 0. -1.
         -2   -1    0    0    0  501 -0.00000000000E+00 -0.00000000000E+00 -0.29146422358E+02  0.29146422358E+02  0.00000000000E+00 0.  1.
         23    2    1    2    0    0 -0.37317456859E+01  0.61730796474E+02  0.24605910774E+03  0.26922006639E+03  0.90054108660E+02 0.  0.
          5    1    1    2  502    0 -0.23975320241E+02  0.47813587217E+01  0.26718984259E+03  0.26833852082E+03  0.41800000000E+01 0. -1.
         -5    1    1    2    0  502  0.27707065927E+02 -0.66512155196E+02  0.59649493592E+02  0.93632701429E+02  0.41800000000E+01 0.  1.
        -11    1    3    3    0    0  0.40676358316E+02  0.28278412352E+02  0.15296650944E+03  0.16078864308E+03  0.00000000000E+00 0. -1.
         11    1    3    3    0    0 -0.44408104002E+02  0.33452384122E+02  0.93092598297E+02  0.10843142332E+03  0.00000000000E+00 0.  1.
</event>
<event>
 7    1  0.4274778E-006  0.1438833E+03  0.7561462E-02  0.1208197E+00
         -1   -1    0    0    0  501 -0.00000000000E+00  0.00000000000E+00  0.10791741816E+04  0.10791741816E+04  0.00000000000E+00 0.  1.
          1   -1    0    0  501    0  0.00000000000E+00 -0.00000000000E+00 -0.30292102445E+02  0.30292102445E+02  0.00000000000E+00 0. -1.
         23    2    1    2    0    0  0.11248771569E+03  0.51650480069E+02  0.26840249553E+03  0.30939303401E+03  0.91448846961E+02 0.  0.
          5    1    1    2  502    0  0.15166652106E+02  0.13337677879E+02  0.32520078487E+02  0.38509075452E+02  0.41800000000E+01 0.  1.
         -5    1    1    2    0  502 -0.12765436780E+03 -0.64988157948E+02  0.74795950512E+03  0.76156417457E+03  0.41800000000E+01 0.  1.
        -11    1    3    3    0    0  0.40318683737E+02  0.16545135655E+02  0.19267043690E+02  0.47650359335E+02  0.00000000000E+00 0. -1.
         11    1    3    3    0    0  0.72169031956E+02  0.35105344414E+02  0.24913545184E+03  0.26174267467E+03  0.00000000000E+00 0.  1.
</event>
<event>
 7    1  0.4274778E-006  0.1400920E+03  0.7561462E-02  0.1213205E+00
          1   -1    0    0  501    0  0.00000000000E+00  0.00000000000E+00  0.50274749084E+03  0.50274749084E+03  0.00000000000E+00 0. -1.
         -1   -1    0    0    0  501 -0.00000000000E+00 -0.00000000000E+00 -0.46887987454E+02  0.46887987454E+02  0.00000000000E+00 0.  1.
         23    2    1    2    0    0 -0.84144101672E+02 -0.51586281043E+02  0.24419593641E+03  0.28470089354E+03  0.10808130821E+03 0.  0.
          5    1    1    2  502    0  0.99580541632E+02 -0.44811173518E+01  0.11706058377E+03  0.15380837869E+03  0.41800000000E+01 0. -1.
         -5    1    1    2    0  502 -0.15436439960E+02  0.56067398395E+02  0.94602983200E+02  0.11112620605E+03  0.41800000000E+01 0. -1.
        -11    1    3    3    0    0 -0.55273781416E+01 -0.42629282505E+02  0.20894807942E+02  0.47795403910E+02  0.00000000000E+00 0.  1.
         11    1    3    3    0    0 -0.78616723530E+02 -0.89569985384E+01  0.22330112847E+03  0.23690548963E+03  0.00000000000E+00 0. -1.
</event>
<event>
 6    1  0.4274778E-006  0.7988748E+02  0.7561462E-02  0.1329371E+00
          1   -1    0    0  501    0  0.00000000000E+00  0.00000000000E+00  0.73314873170E+02  0.73314873170E+02  0.00000000000E+00 0. -1.
         -1   -1    0    0    0  501 -0.00000000000E+00 -0.00000000000E+00 -0.11686999366E+03  0.11686999366E+03  0.00000000000E+00 0.  1.
          5    1    1    2  502    0 -0.78901203703E+01 -0.49205967585E+02  0.25929043434E+02  0.56331775570E+02  0.41800000000E+01 0.  1.
         -5    1    1    2    0  502 -0.28477299034E+02  0.49714874038E+02 -0.49970964425E+02  0.76138656059E+02  0.41800000000E+01 0.  1.
        -11    1    1    2    0    0  0.31210007078E+02 -0.16650878428E+02 -0.20236197329E+02  0.40753159099E+02  0.00000000000E+00 0.  1.
         11    1    1    2    0    0  0.51574123266E+01  0.16141971975E+02  0.72299782912E+00  0.16961276102E+02  0.00000000000E+00 0. -1.
</event>
<event>
 7    1  0.4274778E-006  0.1168357E+03  0.7561462E-02  0.1248410E+00
          2   -1    0    0  501    0  0.00000000000E+00  0.00000000000E+00  0.22417922069E+03  0.22417922069E+03  0.00000000000E+00 0. -1.
         -2   -1    0    0    0  501 -0.00000000000E+00 -0.00000000000E+00 -0.74348426470E+02  0.74348426470E+02  0.00000000000E+00 0.  1.
         23    2    1    2    0    0 -0.43278734300E+02 -0.40068492696E+02  0.72435826290E+02  0.14005123127E+03  0.10434972688E+03 0.  0.
          5    1    1    2  502    0  0.82439429894E+02  0.99468427197E+01  0.26117495763E+02  0.87148122563E+02  0.41800000000E+01 0. -1.
         -5    1    1    2    0  502 -0.39160695595E+02  0.30121649976E+02  0.51277472165E+02  0.71328293323E+02  0.41800000000E+01 0. -1.
        -11    1    3    3    0    0 -0.66946793454E+02 -0.19873558739E+02  0.81804502475E+02  0.10755839398E+03  0.00000000000E+00 0. -1.
         11    1    3    3    0    0  0.23668059155E+02 -0.20194933957E+02 -0.93686761849E+01  0.32492837289E+02  0.00000000000E+00 0.  1.
</event>
<event>
 7    1  0.4274778E-006  0.9492173E+02  0.7561462E-02  0.1291352E+00
          1   -1    0    0  501    0  0.00000000000E+00  0.00000000000E+00  0.22033598171E+03  0.22033598171E+03  0.00000000000E+00 0. -1.
         -1   -1    0    0    0  501 -0.00000000000E+00 -0.00000000000E+00 -0.58055221632E+02  0.58055221632E+02  0.00000000000E+00 0.  1.
         23    2    1    2    0    0  0.22307043826E+02  0.22780313487E+02  0.81048006846E+02  0.12586544149E+03  0.90866842467E+02 0.  0.
          5    1    1    2  502    0  0.46185804428E+02 -0.27968726106E+02  0.59279735704E+02  0.80292824311E+02  0.41800000000E+01 0.  1.
         -5    1    1    2    0  502 -0.68492848254E+02  0.51884126191E+01  0.21953017524E+02  0.72232937542E+02  0.41800000000E+01 0.  1.
        -11    1    3    3    0    0  0.39807848179E+02  0.22175576278E+01  0.89162538012E+02  0.97670571429E+02  0.00000000000E+00 0. -1.
         11    1    3    3    0    0 -0.17500804353E+02  0.20562755859E+02 -0.81145311658E+01  0.28194870057E+02  0.00000000000E+00 0.  1.
</event>
<event>
 7    1  0.4274778E-006  0.1048061E+03  0.7561462E-02  0.1270502E+00
          1   -1    0    0  501    0  0.00000000000E+00  0.00000000000E+00  0.13991512532E+03  0.13991512532E+03  0.00000000000E+00 0. -1.
         -1   -1    0    0    0  501 -0.00000000000E+00 -0.00000000000E+00 -0.12693707049E+03  0.12693707049E+03  0.00000000000E+00 0.  1.
         23    2    1    2    0    0  0.15535018020E+02  0.73472887817E+02 -0.52978356642E+01  0.11980812064E+03  0.93200411368E+02 0.  0.
          5    1    1    2  502    0  0.28112422185E+02  0.58578903796E+01  0.44103755644E+02  0.52794287784E+02  0.41800000000E+01 0.  1.
         -5    1    1    2    0  502 -0.43647440205E+02 -0.79330778197E+02 -0.25827865146E+02  0.94249787393E+02  0.41800000000E+01 0.  1.
        -11    1    3    3    0    0 -0.17327831080E+02  0.15194800576E+02 -0.38689209889E+02  0.45033217255E+02  0.00000000000E+00 0.  1.
         11    1    3    3    0    0  0.32862849100E+02  0.58278087240E+02  0.33391374225E+02  0.74774903383E+02  0.00000000000E+00 0. -1.
</event>
<event>
 7    1  0.4274778E-006  0.1026472E+03  0.7561462E-02  0.1274826E+00
          1   -1    0    0  501    0  0.00000000000E+00  0.00000000000E+00  0.18200301403E+03  0.18200301403E+03  0.00000000000E+00 0. -1.
         -1   -1    0    0    0  501 -0.00000000000E+00 -0.00000000000E+00 -0.22457104040E+03  0.22457104040E+03  0.00000000000E+00 0.  1.
         23    2    1    2    0    0 -0.55145581008E+02 -0.31849370207E+02  0.13717425175E+03  0.17851364769E+03  0.94841602598E+02 0.  0.
          5    1    1    2  502    0  0.52518603342E+02 -0.17836732516E+02 -0.16772003622E+03  0.17670267591E+03  0.41800000000E+01 0.  1.
         -5    1    1    2    0  502  0.26269776655E+01  0.49686102723E+02 -0.12022241891E+02  0.51357730826E+02  0.41800000000E+01 0.  1.
        -11    1    3    3    0    0 -0.63582401255E+02  0.32274225208E+01  0.12527655182E+03  0.14052527332E+03  0.00000000000E+00 0. -1.
         11    1    3    3    0    0  0.84368202473E+01 -0.35076792728E+02  0.11897699924E+02  0.37988374372E+02  0.00000000000E+00 0.  1.
</event>
<event>
 7    1  0.4274778E-006  0.1072670E+03  0.7561462E-02  0.1265716E+00
          1   -1    0    0  501    0  0.00000000000E+00  0.00000000000E+00  0.33356604607E+02  0.33356604607E+02  0.00000000000E+00 0. -1.
         -1   -1    0    0    0  501 -0.00000000000E+00 -0.00000000000E+00 -0.62669672198E+03  0.62669672198E+03  0.00000000000E+00 0.  1.
         23    2    1    2    0    0  0.68922210919E+02 -0.57923332320E+02 -0.34268473334E+03  0.36580664585E+03  0.90974128705E+02 0.  0.
          5    1    1    2  502    0 -0.38219251680E+02  0.74638737796E+01 -0.22720880196E+03  0.23055960769E+03  0.41800000000E+01 0. -1.
         -5    1    1    2    0  502 -0.30702959240E+02  0.50459458540E+02 -0.23446582062E+02  0.63687073042E+02  0.41800000000E+01 0. -1.
        -11    1    3    3    0    0  0.32520362353E+02 -0.70502160526E+02 -0.29201984934E+03  0.30216505592E+03  0.00000000000E+00 0.  1.
         11    1    3    3    0    0  0.36401848566E+02  0.12578828206E+02 -0.50664884001E+02  0.63641589931E+02  0.00000000000E+00 0. -1.
</event>
<event>
 7    1  0.4274778E-006  0.1391339E+03  0.7561462E-02  0.1214499E+00
         -2   -1    0    0    0  501 -0.00000000000E+00  0.00000000000E+00  0.25727243896E+02  0.25727243896E+02  0.00000000000E+00 0.  1.
          2   -1    0    0  501    0  0.00000000000E+00 -0.00000000000E+00 -0.84322517614E+03  0.84322517614E+03  0.00000000000E+00 0. -1.
         23    2    1    2    0    0 -0.42373509359E+02  0.82180927743E+02 -0.47994698308E+03  0.49728371207E+03  0.91612032723E+02 0.  0.
          5    1    1    2  502    0 -0.38363355624E+02  0.20445646769E+01 -0.91463324415E+02  0.99292192102E+02  0.41800000000E+01 0. -1.
         -5    1    1    2    0  502  0.80736864983E+02 -0.84225492420E+02 -0.24608762474E+03  0.27237651586E+03  0.41800000000E+01 0. -1.
        -11    1    3    3    0    0  0.17075705261E+02  0.54848155658E+02 -0.30793461335E+03  0.31324690899E+03  0.00000000000E+00 0.  1.
         11    1    3    3    0    0 -0.59449214620E+02  0.27332772085E+02 -0.17201236973E+03  0.18403680308E+03  0.00000000000E+00 0. -1.
</event>
<event>
 7    1  0.4274778E-006  0.1309417E+03  0.7561462E-02  0.1226065E+00
          2   -1    0    0  501    0  0.00000000000E+00  0.00000000000E+00  0.36830309385E+03  0.36830309385E+03  0.00000000000E+00 0. -1.
         -2   -1    0    0    0  501 -0.00000000000E+00 -0.00000000000E+00 -0.51738539284E+02  0.51738539284E+02  0.00000000000E+00 0.  1.
         23    2    1    2    0    0 -0.80877603264E+02  0.24494983637E+02  0.12773114762E+03  0.17830295373E+03  0.91298993985E+02 0.  0.
          5    1    1    2  502    0  0.14048633867E+02 -0.60981244702E+02  0.13357673769E+03  0.14756792867E+03  0.41800000000E+01 0. -1.
         -5    1    1    2    0  502  0.66828969397E+02  0.36486261065E+02  0.55256669249E+02  0.94170750734E+02  0.41800000000E+01 0. -1.
        -11    1    3    3    0    0 -0.91421733460E+02 -0.50290737979E+01  0.82345446690E+02  0.12314218417E+03  0.00000000000E+00 0.  1.
         11    1    3    3    0    0  0.10544130196E+02  0.29524057435E+02  0.45385700932E+02  0.55160769557E+02  0.00000000000E+00 0. -1.
</event>
<event>
 7    1  0.4274778E-006  0.1073597E+03  0.7561462E-02  0.1265539E+00
         -2   -1    0    0    0  501 -0.00000000000E+00  0.00000000000E+00  0.59106840272E+02  0.59106840272E+02  0.00000000000E+00 0. -1.
          2   -1    0    0  501    0  0.00000000000E+00 -0.00000000000E+00 -0.39610648656E+03  0.39610648656E+03  0.00000000000E+00 0.  1.
         23    2    1    2    0    0  0.16385460769E+02  0.18800427976E+02 -0.31095518680E+03  0.32503143109E+03  0.91270825497E+02 0.  0.
          5    1    1    2  502    0 -0.63034056588E+02  0.17342815088E+02 -0.27393376624E+02  0.71006584258E+02  0.41800000000E+01 0. -1.
         -5    1    1    2    0  502  0.46648595819E+02 -0.36143243064E+02  0.13489171349E+01  0.59175311478E+02  0.41800000000E+01 0. -1.
        -11    1    3    3    0    0 -0.16134331187E+02 -0.28440114883E+02 -0.16507970420E+03  0.16828685485E+03  0.00000000000E+00 0.  1.
         11    1    3    3    0    0  0.32519791956E+02  0.47240542859E+02 -0.14587548260E+03  0.15674457625E+03  0.00000000000E+00 0. -1.
</event>
<event>
 7    1  0.4274778E-006  0.1060622E+03  0.7561462E-02  0.1268041E+00
         -2   -1    0    0    0  501 -0.00000000000E+00  0.00000000000E+00  0.47798945393E+03  0.47798945393E+03  0.00000000000E+00 0.  1.
          2   -1    0    0  501    0  0.00000000000E+00 -0.00000000000E+00 -0.28667569656E+02  0.28667569656E+02  0.00000000000E+00 0. -1.
         23    2    1    2    0    0  0.39788935916E+01 -0.31032728951E+02  0.12926382730E+03  0.16160164890E+03  0.91799204895E+02 0.  0.
          5    1    1    2  502    0 -0.19752469078E+02  0.74272312358E+02  0.14697892737E+03  0.16591206679E+03  0.41800000000E+01 0. -1.
         -5    1    1    2    0  502  0.15773575486E+02 -0.43239583406E+02  0.17307912961E+03  0.17914330789E+03  0.41800000000E+01 0. -1.
        -11    1    3    3    0    0 -0.10722999061E+02 -0.57593084240E+02  0.51057216228E+02  0.77709622249E+02  0.00000000000E+00 0. -1.
         11    1    3    3    0    0  0.14701892652E+02  0.26560355289E+02  0.78206611072E+02  0.83892026654E+02  0.00000000000E+00 0.  1.
</event>
<event>
 7    1  0.4274778E-006  0.2154436E+03  0.7561462E-02  0.1137326E+00
         -1   -1    0    0    0  501 -0.00000000000E+00  0.00000000000E+00  0.60820011222E+02  0.60820011222E+02  0.00000000000E+00 0.  1.
          1   -1    0    0  501    0  0.00000000000E+00 -0.00000000000E+00 -0.84369966084E+03  0.84369966084E+03  0.00000000000E+00 0. -1.
         23    2    1    2    0    0 -0.15719028310E+03 -0.11535160545E+03 -0.42982671373E+03  0.48225221818E+03  0.99002121791E+02 0.  0.
          5    1    1    2  502    0  0.10089193673E+03  0.13779166959E+03 -0.25572099061E+03  0.30753280238E+03  0.41800000000E+01 0.  1.
         -5    1    1    2    0  502  0.56298346376E+02 -0.22440064138E+02 -0.97331945273E+02  0.11473465149E+03  0.41800000000E+01 0.  1.
        -11    1    3    3    0    0 -0.16114353659E+02  0.14142406520E+01 -0.12919107862E+01  0.16227800342E+02  0.00000000000E+00 0.  1.
         11    1    3    3    0    0 -0.14107592944E+03 -0.11676584610E+03 -0.42853480295E+03  0.46602441784E+03  0.00000000000E+00 0. -1.
</event>
<event>
 7    1  0.4274778E-006  0.1744612E+03  0.7561462E-02  0.1173274E+00
          4   -1    0    0  501    0  0.00000000000E+00  0.00000000000E+00  0.19949628200E+03  0.19949628200E+03  0.00000000000E+00 0. -1.
         -4   -1    0    0    0  501 -0.00000000000E+00 -0.00000000000E+00 -0.18882268650E+03  0.18882268650E+03  0.00000000000E+00 0.  1.
         23    2    1    2    0    0  0.92152541501E+01  0.15834377851E+03  0.31333386053E+02  0.18513568555E+03  0.90198491568E+02 0.  0.
          5    1    1    2  502    0  0.14591500420E+02 -0.16460977921E+03  0.75870183301E+01  0.16548210339E+03  0.41800000000E+01 0.  1.
         -5    1    1    2    0  502 -0.23806754570E+02  0.62660006984E+01 -0.28246808881E+02  0.37701179556E+02  0.41800000000E+01 0.  1.
        -11    1    3    3    0    0  0.30187754522E+01  0.79620170164E+02  0.61449496120E+02  0.10062069904E+03  0.00000000000E+00 0. -1.
         11    1    3    3    0    0  0.61964786980E+01  0.78723608347E+02 -0.30116110067E+02  0.84514986511E+02  0.00000000000E+00 0.  1.
</event>
<event>
 7    1  0.4274778E-006  0.1296630E+03  0.7561462E-02  0.1227957E+00
         -4   -1    0    0    0  501 -0.00000000000E+00  0.00000000000E+00  0.11618994938E+03  0.11618994938E+03  0.00000000000E+00 0.  1.
          4   -1    0    0  501    0  0.00000000000E+00 -0.00000000000E+00 -0.24585048813E+03  0.24585048813E+03  0.00000000000E+00 0. -1.
         23    2    1    2    0    0 -0.68831849959E+02  0.84269302831E+02 -0.13990397381E+03  0.19593319159E+03  0.83531758676E+02 0.  0.
          5    1    1    2  502    0  0.34003971933E+02 -0.37936851348E+01  0.57024202961E+02  0.66632531676E+02  0.41800000000E+01 0.  1.
         -5    1    1    2    0  502  0.34827878025E+02 -0.80475617696E+02 -0.46780767896E+02  0.99474714256E+02  0.41800000000E+01 0.  1.
        -11    1    3    3    0    0 -0.76397601368E+02  0.96258621962E+02 -0.12769195957E+03  0.17722176033E+03  0.00000000000E+00 0.  1.
         11    1    3    3    0    0  0.75657514091E+01 -0.11989319131E+02 -0.12212014244E+02  0.18711431252E+02  0.00000000000E+00 0. -1.
</event>
<event>
 7    1  0.4274778E-006  0.1863522E+03  0.7561462E-02  0.1161793E+00
         -2   -1    0    0    0  501 -0.00000000000E+00  0.00000000000E+00  0.44042019666E+02  0.44042019666E+02  0.00000000000E+00 0.  1.
          2   -1    0    0  501    0  0.00000000000E+00 -0.00000000000E+00 -0.83972706410E+03  0.83972706410E+03  0.00000000000E+00 0. -1.
         23    2    1    2    0    0 -0.39087866451E+02 -0.15119033621E+03 -0.41004499625E+03  0.44931543017E+03  0.96752662882E+02 0.  0.
          5    1    1    2  502    0 -0.43321720615E+02  0.80104599937E+02 -0.17665674906E+03  0.19879285147E+03  0.41800000000E+01 0.  1.
         -5    1    1    2    0  502  0.82409587065E+02  0.71085736278E+02 -0.20898329912E+03  0.23566080212E+03  0.41800000000E+01 0.  1.
        -11    1    3    3    0    0 -0.58336040544E+02 -0.13640488583E+03 -0.27849729748E+03  0.31554735177E+03  0.00000000000E+00 0.  1.
         11    1    3    3    0    0  0.19248174093E+02 -0.14785450388E+02 -0.13154769877E+03  0.13376807841E+03  0.00000000000E+00 0. -1.
</event>
<event>
 7    1  0.4274778E-006  0.1535776E+03  0.7561462E-02  0.1196145E+00
         -1   -1    0    0    0  501 -0.00000000000E+00  0.00000000000E+00  0.19158456407E+03  0.19158456407E+03  0.00000000000E+00 0. -1.
          1   -1    0    0  501    0  0.00000000000E+00 -0.00000000000E+00 -0.15770884450E+03  0.15770884450E+03  0.00000000000E+00 0.  1.
         23    2    1    2    0    0 -0.97260888501E+01  0.12094996429E+03 -0.48578820246E+02  0.15650154663E+03  0.86077532819E+02 0.  0.
          5    1    1    2  502    0 -0.54114853809E+02 -0.78255573611E+02  0.30605324659E+02  0.10003254721E+03  0.41800000000E+01 0.  1.
         -5    1    1    2    0  502  0.63840942659E+02 -0.42694390678E+02  0.51849215155E+02  0.92759314719E+02  0.41800000000E+01 0.  1.
        -11    1    3    3    0    0  0.21590469744E+02  0.83199208477E+02 -0.61605165041E+02  0.10575184648E+03  0.00000000000E+00 0.  1.
         11    1    3    3    0    0 -0.31316558594E+02  0.37750755813E+02  0.13026344795E+02  0.50749700150E+02  0.00000000000E+00 0. -1.
</event>
<event>
 7    1  0.4274778E-006  0.9477038E+02  0.7561462E-02  0.1291694E+00
         -2   -1    0    0    0  501 -0.00000000000E+00  0.00000000000E+00  0.13044044008E+03  0.13044044008E+03  0.00000000000E+00 0.  1.
          2   -1    0    0  501    0  0.00000000000E+00 -0.00000000000E+00 -0.13863967997E+03  0.13863967997E+03  0.00000000000E+00 0. -1.
         23    2    1    2    0    0 -0.19647534066E+01 -0.31122343487E+02 -0.79113573178E+02  0.12193939701E+03  0.87394499610E+02 0.  0.
          5    1    1    2  502    0 -0.29592404232E+02  0.56155686715E+02  0.83281854673E+02  0.10479747734E+03  0.41800000000E+01 0.  1.
         -5    1    1    2    0  502  0.31557157638E+02 -0.25033343228E+02 -0.12367521379E+02  0.42343245700E+02  0.41800000000E+01 0.  1.
        -11    1    3    3    0    0  0.30251299000E+02  0.11185797569E+02 -0.54529868790E+02  0.63354319101E+02  0.00000000000E+00 0. -1.
         11    1    3    3    0    0 -0.32216052407E+02 -0.42308141055E+02 -0.24583704388E+02  0.58585077909E+02  0.00000000000E+00 0.  1.
</event>
<event>
 7    1  0.4274778E-006  0.1938917E+03  0.7561462E-02  0.1154997E+00
          1   -1    0    0  501    0  0.00000000000E+00  0.00000000000E+00  0.54748038659E+03  0.54748038659E+03  0.00000000000E+00 0.  1.
         -1   -1    0    0    0  501 -0.00000000000E+00 -0.00000000000E+00 -0.14399368592E+03  0.14399368592E+03  0.00000000000E+00 0. -1.
         23    2    1    2    0    0  0.13774276276E+03  0.80722865162E+02  0.44397337297E+03  0.48623177217E+03  0.11755735072E+03 0.  0.
          5    1    1    2  502    0 -0.85040484843E+02 -0.10363576171E+03  0.11883322271E+01  0.13413105420E+03  0.41800000000E+01 0. -1.
         -5    1    1    2    0  502 -0.52702277921E+02  0.22912896551E+02 -0.41675004525E+02  0.71111246147E+02  0.41800000000E+01 0.  1.
        -11    1    3    3    0    0 -0.18184374608E+02  0.24006906834E+02  0.98113647295E+02  0.10263182178E+03  0.00000000000E+00 0. -1.
         11    1    3    3    0    0  0.15592713737E+03  0.56715958328E+02  0.34585972567E+03  0.38359995039E+03  0.00000000000E+00 0.  1.
</event>
<event>
 7    1  0.4274778E-006  0.9143251E+02  0.7561462E-02  0.1299419E+00
          3   -1    0    0  501    0  0.00000000000E+00  0.00000000000E+00  0.19720615073E+02  0.19720615073E+02  0.00000000000E+00 0. -1.
         -3   -1    0    0    0  501 -0.00000000000E+00 -0.00000000000E+00 -0.70540963709E+03  0.70540963709E+03  0.00000000000E+00 0.  1.
         23    2    1    2    0    0  0.39980580097E+02  0.12101607455E+02 -0.23103927412E+03  0.25173913580E+03  0.90821531687E+02 0.  0.
          5    1    1    2  502    0 -0.53027923582E+02  0.23259711060E+02 -0.41301097585E+03  0.41707135290E+03  0.41800000000E+01 0. -1.
         -5    1    1    2    0  502  0.13047343485E+02 -0.35361318515E+02 -0.41638772046E+02  0.56319763464E+02  0.41800000000E+01 0. -1.
        -11    1    3    3    0    0  0.42139284624E+02  0.40476442442E+02 -0.86239689497E+02  0.10416979287E+03  0.00000000000E+00 0. -1.
         11    1    3    3    0    0 -0.21587045277E+01 -0.28374834987E+02 -0.14479958462E+03  0.14756934293E+03  0.00000000000E+00 0.  1.
</event>
<event>
 7    1  0.4274778E-006  0.2969232E+03  0.7561462E-02  0.1086789E+00
         -1   -1    0    0    0  501 -0.00000000000E+00  0.00000000000E+00  0.17742015534E+03  0.17742015534E+03  0.00000000000E+00 0.  1.
          1   -1    0    0  501    0  0.00000000000E+00 -0.00000000000E+00 -0.61268673858E+03  0.61268673858E+03  0.00000000000E+00 0. -1.
         23    2    1    2    0    0 -0.13593482250E+03  0.25667429081E+03 -0.34759563684E+03  0.46193891024E+03  0.90580696102E+02 0.  0.
          5    1    1    2  502    0  0.90421006999E+02 -0.19423470410E+03 -0.41781034913E+01  0.21433153695E+03  0.41800000000E+01 0. -1.
         -5    1    1    2    0  502  0.45513815504E+02 -0.62439586712E+02 -0.83492842900E+02  0.11383644674E+03  0.41800000000E+01 0. -1.
        -11    1    3    3    0    0 -0.74387082682E+02  0.21587781626E+03 -0.23828415904E+03  0.33002425680E+03  0.00000000000E+00 0.  1.
         11    1    3    3    0    0 -0.61547739821E+02  0.40796474544E+02 -0.10931147780E+03  0.13191465344E+03  0.00000000000E+00 0. -1.
</event>
<event>
 7    1  0.4274778E-006  0.9969755E+02  0.7561462E-02  0.1280933E+00
         -1   -1    0    0    0  501 -0.00000000000E+00  0.00000000000E+00  0.18799653552E+02  0.18799653552E+02  0.00000000000E+00 0.  1.
          1   -1    0    0  501    0  0.00000000000E+00 -0.00000000000E+00 -0.73436800468E+03  0.73436800468E+03  0.00000000000E+00 0. -1.
         23    2    1    2    0    0  0.34645542323E+02  0.22911337491E+02 -0.25749633946E+03  0.27650936745E+03  0.91803172399E+02 0.  0.
          5    1    1    2  502    0  0.25283132593E+02  0.18183965567E+02 -0.33648799748E+02  0.46039195496E+02  0.41800000000E+01 0. -1.
         -5    1    1    2    0  502 -0.59928674915E+02 -0.41095303058E+02 -0.42442321192E+03  0.43061909529E+03  0.41800000000E+01 0. -1.
        -11    1    3    3    0    0  0.39418436270E+02 -0.25235495919E+02 -0.17218826660E+03  0.17843610208E+03  0.00000000000E+00 0. -1.
         11    1    3    3    0    0 -0.47728939476E+01  0.48146833409E+02 -0.85308072859E+02  0.98073265362E+02  0.00000000000E+00 0.  1.
</event>
<event>
 7    1  0.4274778E-006  0.1151143E+03  0.7561462E-02  0.1251382E+00
         -2   -1    0    0    0  501 -0.00000000000E+00  0.00000000000E+00  0.10556057689E+03  0.10556057689E+03  0.00000000000E+00 0.  1.
          2   -1    0    0  501    0  0.00000000000E+00 -0.00000000000E+00 -0.23726388014E+03  0.23726388014E+03  0.00000000000E+00 0. -1.
         23    2    1    2    0    0  0.41765358663E+02  0.10227442561E+03 -0.95033104219E+02  0.17195109900E+03  0.91276975374E+02 0.  0.
          5    1    1    2  502    0 -0.11115320769E+02 -0.69616021864E+02 -0.81174675428E+02  0.10759526563E+03  0.41800000000E+01 0. -1.
         -5    1    1    2    0  502 -0.30650037895E+02 -0.32658403742E+02  0.44504476397E+02  0.63278092396E+02  0.41800000000E+01 0. -1.
        -11    1    3    3    0    0 -0.49949590263E+01  0.98638635891E+01 -0.62388358078E+02  0.63360497506E+02  0.00000000000E+00 0. -1.
         11    1    3    3    0    0  0.46760317690E+02  0.92410562017E+02 -0.32644746141E+02  0.10859060150E+03  0.00000000000E+00 0.  1.
</event>
<event>
 7    1  0.4274778E-006  0.5770326E+02  0.7561462E-02  0.1407731E+00
         -3   -1    0    0    0  501 -0.00000000000E+00  0.00000000000E+00  0.13664890077E+03  0.13664890077E+03  0.00000000000E+00 0.  1.
          3   -1    0    0  501    0  0.00000000000E+00 -0.00000000000E+00 -0.96262510792E+02  0.96262510792E+02  0.00000000000E+00 0. -1.
         23    2    1    2    0    0  0.17155860616E+02  0.98906905229E+01 -0.14705957586E+02  0.94802944099E+02  0.91537881277E+02 0.  0.
          5    1    1    2  502    0 -0.18000245268E+02 -0.34564675904E+01  0.95315261927E+02  0.97151570003E+02  0.41800000000E+01 0. -1.
         -5    1    1    2    0  502  0.84438465149E+00 -0.64342229326E+01 -0.40222914359E+02  0.40956897462E+02  0.41800000000E+01 0. -1.
        -11    1    3    3    0    0 -0.20265514699E+02  0.37335587091E+02  0.78576307740E+01  0.43201614679E+02  0.00000000000E+00 0. -1.
         11    1    3    3    0    0  0.37421375316E+02 -0.27444896569E+02 -0.22563588361E+02  0.51601329420E+02  0.00000000000E+00 0.  1.
</event>
<event>
 7    1  0.4274778E-006  0.1795293E+03  0.7561462E-02  0.1168259E+00
         -1   -1    0    0    0  501 -0.00000000000E+00  0.00000000000E+00  0.31914917267E+03  0.31914917267E+03  0.00000000000E+00 0.  1.
          1   -1    0    0  501    0  0.00000000000E+00 -0.00000000000E+00 -0.12485694596E+03  0.12485694596E+03  0.00000000000E+00 0. -1.
         23    2    1    2    0    0 -0.15980169234E+03  0.36606260639E+02  0.12984265651E+03  0.22795292378E+03  0.90701823700E+02 0.  0.
          5    1    1    2  502    0  0.99141073459E+02  0.30855958566E+02 -0.13119737822E+01  0.10392418535E+03  0.41800000000E+01 0.  1.
         -5    1    1    2    0  502  0.60660618877E+02 -0.67462219205E+02  0.65761543981E+02  0.11212900949E+03  0.41800000000E+01 0.  1.
        -11    1    3    3    0    0 -0.92529862368E+02  0.26849661149E+02  0.12766718926E+03  0.15994246136E+03  0.00000000000E+00 0.  1.
         11    1    3    3    0    0 -0.67271829968E+02  0.97565994906E+01  0.21754672440E+01  0.68010462420E+02  0.00000000000E+00 0. -1.
</event>
<event>
 7    1  0.4274778E-006  0.1052483E+03  0.7561462E-02  0.1269631E+00
          1   -1    0    0  501    0  0.00000000000E+00  0.00000000000E+00  0.16174810075E+03  0.16174810075E+03  0.00000000000E+00 0.  1.
         -1   -1    0    0    0  501 -0.00000000000E+00 -0.00000000000E+00 -0.11182109698E+03  0.11182109698E+03  0.00000000000E+00 0. -1.
         23    2    1    2    0    0 -0.67241222373E+02 -0.20940781066E+02  0.61804968322E+02  0.12952379489E+03  0.89424051779E+02 0.  0.
          5    1    1    2  502    0 -0.13753521332E+02 -0.27736536968E+02 -0.34752293473E+02  0.46729745704E+02  0.41800000000E+01 0.  1.
         -5    1    1    2    0  502  0.80994743705E+02  0.48677318034E+02  0.22874328930E+02  0.97315657131E+02  0.41800000000E+01 0.  1.
        -11    1    3    3    0    0 -0.16497478138E+02  0.15149636520E+02 -0.17691893772E+02  0.28542623861E+02  0.00000000000E+00 0. -1.
         11    1    3    3    0    0 -0.50743744235E+02 -0.36090417586E+02  0.79496862094E+02  0.10098117103E+03  0.00000000000E+00 0.  1.
</event>
<event>
 7    1  0.4274778E-006  0.8933041E+02  0.7561462E-02  0.1304481E+00
          2   -1    0    0  501    0  0.00000000000E+00  0.00000000000E+00  0.80589241123E+03  0.80589241123E+03  0.00000000000E+00 0. -1.
         -2   -1    0    0    0  501 -0.00000000000E+00 -0.00000000000E+00 -0.17497986710E+02  0.17497986710E+02  0.00000000000E+00 0.  1.
         23    2    1    2    0    0 -0.44198362869E+02  0.14645220782E+02  0.50236176770E+03  0.51205412206E+03  0.87544848503E+02 0.  0.
          5    1    1    2  502    0 -0.33172369038E+01  0.20116293238E+02  0.22667721518E+03  0.22763062535E+03  0.41800000000E+01 0. -1.
         -5    1    1    2    0  502  0.47515599773E+02 -0.34761514020E+02  0.59355441634E+02  0.83705650528E+02  0.41800000000E+01 0.  1.
        -11    1    3    3    0    0 -0.65795656079E+02  0.30015506091E+02  0.34833553830E+03  0.35576346947E+03  0.00000000000E+00 0. -1.
         11    1    3    3    0    0  0.21597293210E+02 -0.15370285309E+02  0.15402622940E+03  0.15629065259E+03  0.00000000000E+00 0.  1.
</event>
<event>
 7    1  0.4274778E-006  0.7540127E+02  0.7561462E-02  0.1342633E+00
         -2   -1    0    0    0  501 -0.00000000000E+00  0.00000000000E+00  0.14211159150E+02  0.14211159150E+02  0.00000000000E+00 0.  1.
          2   -1    0    0  501    0  0.00000000000E+00 -0.00000000000E+00 -0.73714718042E+03  0.73714718042E+03  0.00000000000E+00 0. -1.
         23    2    1    2    0    0 -0.25226218883E+01 -0.74316150338E+01 -0.31894743875E+03  0.33253616694E+03  0.93761618547E+02 0.  0.
          5    1    1    2  502    0  0.12299089097E+02  0.31708382243E+02 -0.38425385827E+03  0.38577867890E+03  0.41800000000E+01 0. -1.
         -5    1    1    2    0  502 -0.97764672090E+01 -0.24276767209E+02 -0.19734724256E+02  0.33043493742E+02  0.41800000000E+01 0.  1.
        -11    1    3    3    0    0 -0.22046042390E+02  0.36114080273E+02 -0.19891051580E+03  0.20336088138E+03  0.00000000000E+00 0.  1.
         11    1    3    3    0    0  0.19523420502E+02 -0.43545695307E+02 -0.12003692295E+03  0.12917528556E+03  0.00000000000E+00 0. -1.
</event>
<event>
 7    1  0.4274778E-006  0.1137260E+03  0.7561462E-02  0.1253821E+00
          1   -1    0    0  501    0  0.00000000000E+00  0.00000000000E+00  0.27132652264E+02  0.27132652264E+02  0.00000000000E+00 0. -1.
         -1   -1    0    0    0  501 -0.00000000000E+00 -0.00000000000E+00 -0.60880297768E+03  0.60880297768E+03  0.00000000000E+00 0.  1.
         23    2    1    2    0    0  0.32534234015E+02 -0.44242227150E+02 -0.15953501104E+03  0.19224575996E+03  0.92147498238E+02 0.  0.
          5    1    1    2  502    0 -0.16319812308E+02  0.87310765782E+02 -0.24540581598E+03  0.26101914300E+03  0.41800000000E+01 0.  1.
         -5    1    1    2    0  502 -0.16214421707E+02 -0.43068538632E+02 -0.17672949840E+03  0.18267072698E+03  0.41800000000E+01 0.  1.
        -11    1    3    3    0    0  0.48354695039E+02 -0.33439164182E+01 -0.33821988518E+02  0.59104020309E+02  0.00000000000E+00 0. -1.
         11    1    3    3    0    0 -0.15820461024E+02 -0.40898310732E+02 -0.12571302252E+03  0.13314173966E+03  0.00000000000E+00 0.  1.
</event>
<event>
 7    1  0.4274778E-006  0.1890532E+03  0.7561462E-02  0.1159318E+00
          1   -1    0    0  501    0  0.00000000000E+00  0.00000000000E+00  0.12087137580E+03  0.12087137580E+03  0.00000000000E+00 0. -1.
         -1   -1    0    0    0  501 -0.00000000000E+00 -0.00000000000E+00 -0.35115942346E+03  0.35115942346E+03  0.00000000000E+00 0.  1.
         23    2    1    2    0    0  0.17018213878E+03  0.30067229622E+02 -0.78665647443E+02  0.21030103592E+03  0.90400458876E+02 0.  0.
          5    1    1    2  502    0 -0.11131058051E+03  0.20008783080E+02 -0.14515432932E+03  0.18405881792E+03  0.41800000000E+01 0.  1.
         -5    1    1    2    0  502 -0.58871558268E+02 -0.50076012702E+02 -0.64680708990E+01  0.77670945418E+02  0.41800000000E+01 0.  1.
        -11    1    3    3    0    0  0.40633553260E+02 -0.23958521442E+02 -0.46631638185E+02  0.66329526457E+02  0.00000000000E+00 0.  1.
         11    1    3    3    0    0  0.12954858552E+03  0.54025751064E+02 -0.32034009258E+02  0.14397150946E+03  0.00000000000E+00 0. -1.
</event>
<event>
 7    1  0.4274778E-006  0.1577694E+03  0.7561462E-02  0.1191238E+00
          3   -1    0    0  501    0  0.00000000000E+00  0.00000000000E+00  0.23317547320E+03  0.23317547320E+03  0.00000000000E+00 0. -1.
         -3   -1    0    0    0  501 -0.00000000000E+00 -0.00000000000E+00 -0.12471932530E+03  0.12471932530E+03  0.00000000000E+00 0.  1.
         23    2    1    2    0    0 -0.31942595843E+02 -0.12009285438E+03  0.10135038930E+03  0.18142741901E+03  0.84860967790E+02 0.  0.
          5    1    1    2  502    0  0.38199351093E+01  0.13709833502E+03 -0.12811435444E+02  0.13781201199E+03  0.41800000000E+01 0. -1.
         -5    1    1    2    0  502  0.28122660734E+02 -0.17005480640E+02  0.19917194034E+02  0.38655367502E+02  0.41800000000E+01 0. -1.
        -11    1    3    3    0    0 -0.55160361148E+02 -0.64026316143E+02  0.34888016592E+02  0.91428706119E+02  0.00000000000E+00 0.  1.
         11    1    3    3    0    0  0.23217765305E+02 -0.56066538239E+02  0.66462372710E+02  0.89998712892E+02  0.00000000000E+00 0. -1.
</event>
<event>
 7    1  0.4274778E-006  0.1913561E+03  0.7561462E-02  0.1157244E+00
         -2   -1    0    0    0  501 -0.00000000000E+00  0.00000000000E+00  0.60822417960E+02  0.60822417960E+02  0.00000000000E+00 0. -1.
          2   -1    0    0  501    0  0.00000000000E+00 -0.00000000000E+00 -0.10925907740E+04  0.10925907740E+04  0.00000000000E+00 0.  1.
         23    2    1    2    0    0  0.63478954923E+02  0.16002120860E+03 -0.85413011158E+03  0.87621455767E+03  0.92613922513E+02 0.  0.
          5    1    1    2  502    0 -0.20990343211E+02  0.84273986986E+01 -0.67861769426E+02  0.71654083670E+02  0.41800000000E+01 0.  1.
         -5    1    1    2    0  502 -0.42488611712E+02 -0.16844860730E+03 -0.10977647506E+03  0.20554455065E+03  0.41800000000E+01 0.  1.
        -11    1    3    3    0    0  0.65936633068E+02  0.71055107477E+02 -0.57868886283E+03  0.58675145321E+03  0.00000000000E+00 0.  1.
         11    1    3    3    0    0 -0.24576781455E+01  0.88966101120E+02 -0.27544124875E+03  0.28946310446E+03  0.00000000000E+00 0. -1.
</event>
<event>
 7    1  0.4274778E-006  0.1544236E+03  0.7561462E-02  0.1195140E+00
         -1   -1    0    0    0  501 -0.00000000000E+00  0.00000000000E+00  0.17554406505E+03  0.17554406505E+03  0.00000000000E+00 0.  1.
          1   -1    0    0  501    0  0.00000000000E+00 -0.00000000000E+00 -0.24422140756E+03  0.24422140756E+03  0.00000000000E+00 0. -1.
         23    2    1    2    0    0  0.12474003157E+03 -0.71212831470E+02 -0.13585924091E+03  0.21779863699E+03  0.91362848522E+02 0.  0.
          5    1    1    2  502    0 -0.12508501153E+03  0.67692778002E+02  0.96640181968E+02  0.17200398098E+03  0.41800000000E+01 0.  1.
         -5    1    1    2    0  502  0.34497995584E+00  0.35200534684E+01 -0.29458283573E+02  0.29962854648E+02  0.41800000000E+01 0.  1.
        -11    1    3    3    0    0  0.10422760247E+03 -0.86544078855E+02 -0.13631626258E+03  0.19218583232E+03  0.00000000000E+00 0. -1.
         11    1    3    3    0    0  0.20512429101E+02  0.15331247385E+02  0.45702166788E+00  0.25612804666E+02  0.00000000000E+00 0.  1.
</event>
<event>
 7    1  0.4274778E-006  0.1132346E+03  0.7561462E-02  0.1254695E+00
          2   -1    0    0  501    0  0.00000000000E+00  0.00000000000E+00  0.14024841878E+03  0.14024841878E+03  0.00000000000E+00 0. -1.
         -2   -1    0    0    0  501 -0.00000000000E+00 -0.00000000000E+00 -0.10836588048E+03  0.10836588048E+03  0.00000000000E+00 0.  1.
         23    2    1    2    0    0 -0.30472528612E+02 -0.50202220310E+02  0.16563448477E+01  0.10714971472E+03  0.89607365557E+02 0.  0.
          5    1    1    2  502    0  0.30457304959E+02 -0.27858103604E+02  0.45756696839E+02  0.61764626344E+02  0.41800000000E+01 0.  1.
         -5    1    1    2    0  502  0.15223653231E-01  0.78060323914E+02 -0.15530503383E+02  0.79699958197E+02  0.41800000000E+01 0.  1.
        -11    1    3    3    0    0  0.27915001539E+02 -0.38015716098E+02 -0.34232954429E+01  0.47288063326E+02  0.00000000000E+00 0.  1.
         11    1    3    3    0    0 -0.58387530151E+02 -0.12186504211E+02  0.50796402906E+01  0.59861651393E+02  0.00000000000E+00 0. -1.
</event>
<event>
 7    1  0.4274778E-006  0.1019757E+03  0.7561462E-02  0.1276195E+00
          1   -1    0    0  501    0  0.00000000000E+00  0.00000000000E+00  0.50881778139E+02  0.50881778139E+02  0.00000000000E+00 0. -1.
         -1   -1    0    0    0  501 -0.00000000000E+00 -0.00000000000E+00 -0.27907977772E+03  0.27907977772E+03  0.00000000000E+00 0.  1.
         23    2    1    2    0    0 -0.46600481904E+02 -0.29467915393E+02 -0.61463157478E+02  0.12228052056E+03  0.90193364672E+02 0.  0.
          5    1    1    2  502    0  0.44462044996E+02 -0.22468002090E+02 -0.23482118830E+02  0.55231937028E+02  0.41800000000E+01 0. -1.
         -5    1    1    2    0  502  0.21384369085E+01  0.51935917484E+02 -0.14325272327E+03  0.15244909827E+03  0.41800000000E+01 0.  1.
        -11    1    3    3    0    0 -0.63503529403E+02  0.47150447744E+01 -0.53847812715E+02  0.83393745737E+02  0.00000000000E+00 0.  1.
         11    1    3    3    0    0  0.16903047499E+02 -0.34182960168E+02 -0.76153447627E+01  0.38886774827E+02  0.00000000000E+00 0. -1.
</event>
<event>
 7    1  0.4274778E-006  0.1199434E+03  0.7561462E-02  0.1243190E+00
         -2   -1    0    0    0  501 -0.00000000000E+00  0.00000000000E+00  0.19840641411E+02  0.19840641411E+02  0.00000000000E+00 0.  1.
          2   -1    0    0  501    0  0.00000000000E+00 -0.00000000000E+00 -0.85629330579E+03  0.85629330579E+03  0.00000000000E+00 0. -1.
         23    2    1    2    0    0 -0.63690823592E+02 -0.84617552528E+01 -0.49431884964E+03  0.50695895668E+03  0.92347909238E+02 0.  0.
          5    1    1    2  502    0  0.15692415664E+02 -0.52166509576E+02 -0.88729596295E+02  0.10420177681E+03  0.41800000000E+01 0. -1.
         -5    1    1    2    0  502  0.47998407929E+02  0.60628264829E+02 -0.25340421845E+03  0.26497321372E+03  0.41800000000E+01 0.  1.
        -11    1    3    3    0    0  0.38914935038E+01 -0.34991406885E+02 -0.10011988067E+03  0.10612979216E+03  0.00000000000E+00 0.  1.
         11    1    3    3    0    0 -0.67582317096E+02  0.26529651632E+02 -0.39419896897E+03  0.40082916453E+03  0.00000000000E+00 0. -1.
</event>
<event>
 7    1  0.4274778E-006  0.1052187E+03  0.7561462E-02  0.1269689E+00
         -3   -1    0    0    0  501 -0.00000000000E+00  0.00000000000E+00  0.82551650760E+02  0.82551650760E+02  0.00000000000E+00 0.  1.
          3   -1    0    0  501    0  0.00000000000E+00 -0.00000000000E+00 -0.22189662052E+03  0.22189662052E+03  0.00000000000E+00 0. -1.
         23    2    1    2    0    0 -0.49188065246E+02 -0.40572465209E+02 -0.11757578633E+03  0.16237062827E+03  0.92057398939E+02 0.  0.
          5    1    1    2  502    0 -0.26446920858E+02  0.90809269216E+01  0.32987794411E+02  0.43446171715E+02  0.41800000000E+01 0.  1.
         -5    1    1    2    0  502  0.75634986104E+02  0.31491538287E+02 -0.54756977844E+02  0.98631471292E+02  0.41800000000E+01 0.  1.
        -11    1    3    3    0    0 -0.42994923605E+02  0.13991513886E+02 -0.18017847387E+02  0.48672052978E+02  0.00000000000E+00 0.  1.
         11    1    3    3    0    0 -0.61931416411E+01 -0.54563979095E+02 -0.99557938940E+02  0.11369857529E+03  0.00000000000E+00 0. -1.
</event>
<event>
 7    1  0.4274778E-006  0.7303611E+02  0.7561462E-02  0.1350063E+00
         -1   -1    0    0    0  501 -0.00000000000E+00  0.00000000000E+00  0.20840299472E+03  0.20840299472E+03  0.00000000000E+00 0.  1.
          1   -1    0    0  501    0  0.00000000000E+00 -0.00000000000E+00 -0.71370792076E+02  0.71370792076E+02  0.00000000000E+00 0. -1.
         23    2    1    2    0    0 -0.23635804659E+02  0.27085704043E+02  0.14825685607E+02  0.10124138585E+03  0.93475829120E+02 0.  0.
          5    1    1    2  502    0 -0.58857704617E+01 -0.11411100586E+02  0.13985409787E+03  0.14050443623E+03  0.41800000000E+01 0.  1.
         -5    1    1    2    0  502  0.29521575121E+02 -0.15674603457E+02 -0.17647580831E+02  0.38027964715E+02  0.41800000000E+01 0.  1.
        -11    1    3    3    0    0 -0.12921777225E+02  0.61498882897E+02  0.16412273559E+01  0.62863173253E+02  0.00000000000E+00 0. -1.
         11    1    3    3    0    0 -0.10714027434E+02 -0.34413178854E+02  0.13184458251E+02  0.38378212596E+02  0.00000000000E+00 0.  1.
</event>
<event>
 7    1  0.4274778E-006  0.3148674E+03  0.7561462E-02  0.1078036E+00
         -1   -1    0    0    0  501 -0.00000000000E+00  0.00000000000E+00  0.86758276136E+02  0.86758276136E+02  0.00000000000E+00 0.  1.
          1   -1    0    0  501    0  0.00000000000E+00 -0.00000000000E+00 -0.14250877416E+04  0.14250877416E+04  0.00000000000E+00 0. -1.
         23    2    1    2    0    0 -0.21668111227E+03 -0.21198143946E+03 -0.95147358109E+03  0.10044302535E+04  0.10812642352E+03 0.  0.
          5    1    1    2  502    0  0.28397417686E+02 -0.13744897775E+02 -0.21192044549E+02  0.38234940804E+02  0.41800000000E+01 0. -1.
         -5    1    1    2    0  502  0.18828369459E+03  0.22572633723E+03 -0.36566383986E+03  0.46918082351E+03  0.41800000000E+01 0.  1.
        -11    1    3    3    0    0 -0.59205132550E+02 -0.44627659342E+02 -0.40299546101E+03  0.40975873059E+03  0.00000000000E+00 0.  1.
         11    1    3    3    0    0 -0.15747597972E+03 -0.16735378011E+03 -0.54847812008E+03  0.59467152287E+03  0.00000000000E+00 0. -1.
</event>
<event>
 7    1  0.4274778E-006  0.8908401E+02  0.7561462E-02  0.1305085E+00
          1   -1    0    0  501    0  0.00000000000E+00  0.00000000000E+00  0.19860872938E+03  0.19860872938E+03  0.00000000000E+00 0. -1.
         -1   -1    0    0    0  501 -0.00000000000E+00 -0.00000000000E+00 -0.72159021574E+02  0.72159021574E+02  0.00000000000E+00 0.  1.
         23    2    1    2    0    0 -0.97862407714E+01 -0.25334865492E+02  0.10432906020E+03  0.14086973915E+03  0.90675821970E+02 0.  0.
          5    1    1    2  502    0 -0.81576939855E+01  0.66242363528E+02 -0.18490039922E+02  0.69382653980E+02  0.41800000000E+01 0. -1.
         -5    1    1    2    0  502  0.17943934757E+02 -0.40907498036E+02  0.40610687530E+02  0.60515357818E+02  0.41800000000E+01 0. -1.
        -11    1    3    3    0    0  0.19801913043E+02 -0.30529055954E+02  0.45566061086E+01  0.36672901124E+02  0.00000000000E+00 0.  1.
         11    1    3    3    0    0 -0.29588153815E+02  0.51941904621E+01  0.99772454087E+02  0.10419683803E+03  0.00000000000E+00 0. -1.
</event>
<event>
 7    1  0.4274778E-006  0.2262108E+03  0.7561462E-02  0.1129336E+00
         -1   -1    0    0    0  501 -0.00000000000E+00  0.00000000000E+00  0.27144855604E+03  0.27144855604E+03  0.00000000000E+00 0.  1.
          1   -1    0    0  501    0  0.00000000000E+00 -0.00000000000E+00 -0.23416497049E+03  0.23416497049E+03  0.00000000000E+00 0. -1.
         23    2    1    2    0    0  0.14201729446E+03  0.12095417485E+03 -0.89020349441E+02  0.22585311416E+03  0.91028469298E+02 0.  0.
          5    1    1    2  502    0  0.33964082428E+02 -0.62386325044E+01  0.38930613251E+02  0.52206747445E+02  0.41800000000E+01 0. -1.
         -5    1    1    2    0  502 -0.17598137689E+03 -0.11471554234E+03  0.87373321746E+02  0.22755366492E+03  0.41800000000E+01 0.  1.
        -11    1    3    3    0    0  0.14006614908E+03  0.13429381341E+03 -0.84354720771E+02  0.21158703494E+03  0.00000000000E+00 0. -1.
         11    1    3    3    0    0  0.19511453846E+01 -0.13339638568E+02 -0.46656286702E+01  0.14266079221E+02  0.00000000000E+00 0.  1.
</event>
<event>
 7    1  0.4274778E-006  0.1157222E+03  0.7561462E-02  0.1250326E+00
         -1   -1    0    0    0  501 -0.00000000000E+00  0.00000000000E+00  0.15611431928E+03  0.15611431928E+03  0.00000000000E+00 0.  1.
          1   -1    0    0  501    0  0.00000000000E+00 -0.00000000000E+00 -0.12189250348E+03  0.12189250348E+03  0.00000000000E+00 0. -1.
         23    2    1    2    0    0 -0.47244168470E+02  0.64585348411E+02 -0.11092422717E+02  0.12275540292E+03  0.92426015925E+02 0.  0.
          5    1    1    2  502    0  0.73787850495E+02 -0.84453949384E+02  0.47272503133E+02  0.12177552463E+03  0.41800000000E+01 0.  1.
         -5    1    1    2    0  502 -0.26543682025E+02  0.19868600973E+02 -0.19582646106E+01  0.33475895213E+02  0.41800000000E+01 0.  1.
        -11    1    3    3    0    0 -0.19238288251E+02  0.48719744959E+01  0.36415304232E+02  0.41471945368E+02  0.00000000000E+00 0.  1.
         11    1    3    3    0    0 -0.28005880219E+02  0.59713373915E+02 -0.47507726949E+02  0.81283457548E+02  0.00000000000E+00 0. -1.
</event>
<event>
 7    1  0.4274778E-006  0.1426838E+03  0.7561462E-02  0.1209763E+00
          1   -1    0    0  501    0  0.00000000000E+00  0.00000000000E+00  0.26583870718E+03  0.26583870718E+03  0.00000000000E+00 0. -1.
         -1   -1    0    0    0  501 -0.00000000000E+00 -0.00000000000E+00 -0.10326943766E+03  0.10326943766E+03  0.00000000000E+00 0.  1.
         23    2    1    2    0    0 -0.80332271705E+02  0.75814921125E+02  0.14117870081E+03  0.20085934176E+03  0.90619387911E+02 0.  0.
          5    1    1    2  502    0  0.29454141240E+02  0.30003473385E+02 -0.15653647009E+02  0.45058449996E+02  0.41800000000E+01 0.  1.
         -5    1    1    2    0  502  0.50878130466E+02 -0.10581839451E+03  0.37044215715E+02  0.12319035309E+03  0.41800000000E+01 0.  1.
        -11    1    3    3    0    0 -0.23089628438E+02 -0.77329910049E+01 -0.31384915782E+01  0.24551582855E+02  0.00000000000E+00 0.  1.
         11    1    3    3    0    0 -0.57242643267E+02  0.83547912130E+02  0.14431719239E+03  0.17630775890E+03  0.00000000000E+00 0. -1.
</event>
<event>
 7    1  0.4274778E-006  0.1414734E+03  0.7561462E-02  0.1211360E+00
          1   -1    0    0  501    0  0.00000000000E+00  0.00000000000E+00  0.29158123396E+03  0.29158123396E+03  0.00000000000E+00 0. -1.
         -1   -1    0    0    0  501 -0.00000000000E+00 -0.00000000000E+00 -0.75343757504E+02  0.75343757504E+02  0.00000000000E+00 0.  1.
         23    2    1    2    0    0 -0.52237732007E+02 -0.77179544997E+02  0.14577997280E+03  0.19576096136E+03  0.91570140948E+02 0.  0.
          5    1    1    2  502    0  0.50772117131E+02 -0.20317587017E+02  0.83432087637E+01  0.55476965964E+02  0.41800000000E+01 0. -1.
         -5    1    1    2    0  502  0.14656148761E+01  0.97497132014E+02  0.62114294888E+02  0.11568706413E+03  0.41800000000E+01 0. -1.
        -11    1    3    3    0    0 -0.76907319785E+02 -0.42274581313E+02  0.10239509299E+03  0.13485781820E+03  0.00000000000E+00 0.  1.
         11    1    3    3    0    0  0.24669587777E+02 -0.34904963684E+02  0.43384879807E+02  0.60903143160E+02  0.00000000000E+00 0. -1.
</event>
<event>
 7    1  0.4274778E-006  0.1013499E+03  0.7561462E-02  0.1277483E+00
         -1   -1    0    0    0  501 -0.00000000000E+00  0.00000000000E+00  0.64431859175E+02  0.64431859175E+02  0.00000000000E+00 0.  1.
          1   -1    0    0  501    0  0.00000000000E+00 -0.00000000000E+00 -0.26018178240E+03  0.26018178240E+03  0.00000000000E+00 0. -1.
         23    2    1    2    0    0  0.24310296119E+02  0.61846161413E+02 -0.12110342396E+03  0.16449920961E+03  0.89319720606E+02 0.  0.
          5    1    1    2  502    0 -0.81582256814E+01  0.35810647089E+02 -0.15543903960E+01  0.36997940763E+02  0.41800000000E+01 0.  1.
         -5    1    1    2    0  502 -0.16152070437E+02 -0.97656808502E+02 -0.73092108862E+02  0.12311649119E+03  0.41800000000E+01 0.  1.
        -11    1    3    3    0    0  0.17813073632E+02  0.50977636750E+02 -0.13517924303E+03  0.14556597400E+03  0.00000000000E+00 0. -1.
         11    1    3    3    0    0  0.64972224864E+01  0.10868524663E+02  0.14075819066E+02  0.18933235613E+02  0.00000000000E+00 0.  1.
</event>
<event>
 7    1  0.4274778E-006  0.1897851E+03  0.7561462E-02  0.1158655E+00
         -1   -1    0    0    0  501 -0.00000000000E+00  0.00000000000E+00  0.60614452386E+02  0.60614452386E+02  0.00000000000E+00 0.  1.
          1   -1    0    0  501    0  0.00000000000E+00 -0.00000000000E+00 -0.74512429318E+03  0.74512429318E+03  0.00000000000E+00 0. -1.
         23    2    1    2    0    0  0.14848386411E+03 -0.94740064040E+02 -0.23967556941E+03  0.31122029832E+03  0.91599988419E+02 0.  0.
          5    1    1    2  502    0 -0.40676503578E+02 -0.77974742688E+01 -0.23802882736E+02  0.47952353173E+02  0.41800000000E+01 0.  1.
         -5    1    1    2    0  502 -0.10780736054E+03  0.10253753831E+03 -0.42103138865E+03  0.44656609407E+03  0.41800000000E+01 0.  1.
        -11    1    3    3    0    0  0.30393348700E+02  0.92292965304E+01 -0.10936790582E+02  0.33593882596E+02  0.00000000000E+00 0.  1.
         11    1    3    3    0    0  0.11809051541E+03 -0.10396936057E+03 -0.22873877883E+03  0.27762641573E+03  0.00000000000E+00 0. -1.
</event>
<event>
 7    1  0.4274778E-006  0.1384256E+03  0.7561462E-02  0.1215463E+00
          2   -1    0    0  501    0  0.00000000000E+00  0.00000000000E+00  0.24128228170E+03  0.24128228170E+03  0.00000000000E+00 0. -1.
         -2   -1    0    0    0  501 -0.00000000000E+00 -0.00000000000E+00 -0.10878726673E+03  0.10878726673E+03  0.00000000000E+00 0.  1.
         23    2    1    2    0    0 -0.11489096046E+03 -0.25589361896E+02  0.85864839543E+02  0.17209236072E+03  0.91587453893E+02 0.  0.
          5    1    1    2  502    0  0.11977870833E+03  0.49014750069E+02  0.47648532582E+01  0.12957453808E+03  0.41800000000E+01 0. -1.
         -5    1    1    2    0  502 -0.48877478667E+01 -0.23425388173E+02  0.41865322168E+02  0.48402649623E+02  0.41800000000E+01 0. -1.
        -11    1    3    3    0    0 -0.45823543152E+02 -0.28464753463E+02 -0.90232348242E+01  0.54694223310E+02  0.00000000000E+00 0.  1.
         11    1    3    3    0    0 -0.69067417309E+02  0.28753915673E+01  0.94888074367E+02  0.11739813741E+03  0.00000000000E+00 0. -1.
</event>
<event>
 7    1  0.4274778E-006  0.2503134E+03  0.7561462E-02  0.1113107E+00
          1   -1    0    0  501    0  0.00000000000E+00  0.00000000000E+00  0.98615201478E+03  0.98615201478E+03  0.00000000000E+00 0. -1.
         -1   -1    0    0    0  501 -0.00000000000E+00 -0.00000000000E+00 -0.23417457670E+03  0.23417457670E+03  0.00000000000E+00 0.  1.
         23    2    1    2    0    0  0.20771541601E+03 -0.88198276762E+02  0.89351019512E+03  0.92604267526E+03  0.90939197002E+02 0.  0.
          5    1    1    2  502    0 -0.99500729179E+02 -0.22892167378E+02 -0.45778368782E+02  0.11197132616E+03  0.41800000000E+01 0. -1.
         -5    1    1    2    0  502 -0.10821468683E+03  0.11109044414E+03 -0.95754388249E+02  0.18231259006E+03  0.41800000000E+01 0. -1.
        -11    1    3    3    0    0  0.12036839044E+03 -0.98250175348E+02  0.57052433328E+03  0.59130335805E+03  0.00000000000E+00 0.  1.
         11    1    3    3    0    0  0.87347025570E+02  0.10051898586E+02  0.32298586184E+03  0.33473931721E+03  0.00000000000E+00 0. -1.
</event>
<event>
 7    1  0.4274778E-006  0.9605981E+02  0.7561462E-02  0.1288807E+00
          3   -1    0    0  501    0  0.00000000000E+00  0.00000000000E+00  0.53118653705E+02  0.53118653705E+02  0.00000000000E+00 0. -1.
         -3   -1    0    0    0  501 -0.00000000000E+00 -0.00000000000E+00 -0.25411212166E+03  0.25411212166E+03  0.00000000000E+00 0.  1.
         23    2    1    2    0    0 -0.29872315517E+02 -0.39706308514E+01 -0.51478806907E+02  0.10997382988E+03  0.92390770937E+02 0.  0.
          5    1    1    2  502    0  0.62596978986E+02  0.19822270314E+02 -0.30086827608E+02  0.72346345962E+02  0.41800000000E+01 0.  1.
         -5    1    1    2    0  502 -0.32724663469E+02 -0.15851639462E+02 -0.11942783344E+03  0.12491059952E+03  0.41800000000E+01 0.  1.
        -11    1    3    3    0    0 -0.35409226632E+02  0.35339422382E+02 -0.72622218523E+01  0.50551241046E+02  0.00000000000E+00 0. -1.
         11    1    3    3    0    0  0.55369111156E+01 -0.39310053234E+02 -0.44216585055E+02  0.59422588835E+02  0.00000000000E+00 0.  1.
</event>
<event>
 7    1  0.4274778E-006  0.1192994E+03  0.7561462E-02  0.1244257E+00
         -1   -1    0    0    0  501 -0.00000000000E+00  0.00000000000E+00  0.39406383353E+02  0.39406383353E+02  0.00000000000E+00 0.  1.
          1   -1    0    0  501    0  0.00000000000E+00 -0.00000000000E+00 -0.55263199719E+03  0.55263199719E+03  0.00000000000E+00 0. -1.
         23    2    1    2    0    0  0.29383235686E+02  0.84770342874E+02 -0.32247238149E+03  0.34692388074E+03  0.91205025263E+02 0.  0.
          5    1    1    2  502    0  0.30851614406E+02 -0.49392387067E+01 -0.11594709971E+03  0.12015581768E+03  0.41800000000E+01 0. -1.
         -5    1    1    2    0  502 -0.60234850092E+02 -0.79831104167E+02 -0.74806132632E+02  0.12495868212E+03  0.41800000000E+01 0. -1.
        -11    1    3    3    0    0  0.62355074111E+01  0.83571292337E+02 -0.30889516098E+03  0.32006134246E+03  0.00000000000E+00 0. -1.
         11    1    3    3    0    0  0.23147728275E+02  0.11990505368E+01 -0.13577220512E+02  0.26862538289E+02  0.00000000000E+00 0.  1.
</event>
<event>
 7    1  0.4274778E-006  0.1681886E+03  0.7561462E-02  0.1179750E+00
         -3   -1    0    0    0  501 -0.00000000000E+00  0.00000000000E+00  0.59264578034E+02  0.59264578034E+02  0.00000000000E+00 0.  1.
          3   -1    0    0  501    0  0.00000000000E+00 -0.00000000000E+00 -0.74561792739E+03  0.74561792739E+03  0.00000000000E+00 0. -1.
         23    2    1    2    0    0  0.61676566007E+01 -0.16710445997E+03 -0.45489225620E+03  0.49313872199E+03  0.91087286919E+02 0.  0.
          5    1    1    2  502    0  0.77994584972E+01  0.70756159232E+02 -0.12928622930E+02  0.72469906258E+02  0.41800000000E+01 0.  1.
         -5    1    1    2    0  502 -0.13967115098E+02  0.96348300738E+02 -0.21853247022E+03  0.23927387718E+03  0.41800000000E+01 0.  1.
        -11    1    3    3    0    0 -0.16286251615E+01 -0.10752398725E+03 -0.16405017891E+03  0.19615433070E+03  0.00000000000E+00 0.  1.
         11    1    3    3    0    0  0.77962817622E+01 -0.59580472716E+02 -0.29084207730E+03  0.29698439128E+03  0.00000000000E+00 0. -1.
</event>
<event>
 7    1  0.4274778E-006  0.1777498E+03  0.7561462E-02  0.1169999E+00
         -2   -1    0    0    0  501 -0.00000000000E+00  0.00000000000E+00  0.43841414721E+03  0.43841414721E+03  0.00000000000E+00 0. -1.
          2   -1    0    0  501    0  0.00000000000E+00 -0.00000000000E+00 -0.91766836348E+02  0.91766836348E+02  0.00000000000E+00 0.  1.
         23    2    1    2    0    0  0.10095283817E+03  0.13360405930E+03  0.14003606459E+03  0.23628166831E+03  0.90429017452E+02 0.  0.
          5    1    1    2  502    0 -0.24808996395E+02 -0.92820888671E+02  0.36119778222E+02  0.10272932617E+03  0.41800000000E+01 0.  1.
         -5    1    1    2    0  502 -0.76143841775E+02 -0.40783170632E+02  0.17049146804E+03  0.19116998907E+03  0.41800000000E+01 0.  1.
        -11    1    3    3    0    0  0.29472535345E+02  0.74437623267E+02  0.16440020145E+02  0.81730437168E+02  0.00000000000E+00 0.  1.
         11    1    3    3    0    0  0.71480302826E+02  0.59166436036E+02  0.12359604445E+03  0.15455123115E+03  0.00000000000E+00 0. -1.
</event>
<event>
 7    1  0.4274778E-006  0.1135775E+03  0.7561462E-02  0.1254085E+00
         -2   -1    0    0    0  501 -0.00000000000E+00  0.00000000000E+00  0.18104247918E+02  0.18104247918E+02  0.00000000000E+00 0.  1.
          2   -1    0    0  501    0  0.00000000000E+00 -0.00000000000E+00 -0.72969362850E+03  0.72969362850E+03  0.00000000000E+00 0. -1.
         23    2    1    2    0    0  0.30963559811E+02  0.14266696402E+02 -0.34572138474E+03  0.35964468064E+03  0.93052349697E+02 0.  0.
          5    1    1    2  502    0 -0.13428390974E+02 -0.69122246346E+02 -0.17302258893E+03  0.18684885685E+03  0.41800000000E+01 0.  1.
         -5    1    1    2    0  502 -0.17535168837E+02  0.54855549944E+02 -0.19284540692E+03  0.20130433894E+03  0.41800000000E+01 0.  1.
        -11    1    3    3    0    0 -0.20834895083E+02  0.36877807435E+02 -0.13619778535E+03  0.14263205204E+03  0.00000000000E+00 0. -1.
         11    1    3    3    0    0  0.51798454894E+02 -0.22611111033E+02 -0.20952359939E+03  0.21701262860E+03  0.00000000000E+00 0.  1.
</event>
<event>
 7    1  0.4274778E-006  0.1167832E+03  0.7561462E-02  0.1248500E+00
          2   -1    0    0  501    0  0.00000000000E+00  0.00000000000E+00  0.75320390942E+03  0.75320390942E+03  0.00000000000E+00 0.  1.
         -2   -1    0    0    0  501 -0.00000000000E+00 -0.00000000000E+00 -0.30229802753E+02  0.30229802753E+02  0.00000000000E+00 0. -1.
         23    2    1    2    0    0 -0.94640229501E+02  0.26466056167E+02  0.43158866820E+03  0.45145386070E+03  0.88795183722E+02 0.  0.
          5    1    1    2  502    0  0.30298355447E+01  0.16431283041E+01 -0.12335719301E+02  0.13473015428E+02  0.41800000000E+01 0.  1.
         -5    1    1    2    0  502  0.91610393956E+02 -0.28109184471E+02  0.30372115777E+03  0.31850683605E+03  0.41800000000E+01 0.  1.
        -11    1    3    3    0    0 -0.12846458028E+00 -0.24739559394E+02  0.71173675488E+02  0.75350875142E+02  0.00000000000E+00 0. -1.
         11    1    3    3    0    0 -0.94511764920E+02  0.51205615561E+02  0.36041499271E+03  0.37610298555E+03  0.00000000000E+00 0.  1.
</event>
<event>
 7    1  0.4274778E-006  0.1148547E+03  0.7561462E-02  0.1251835E+00
         -2   -1    0    0    0  501 -0.00000000000E+00  0.00000000000E+00  0.23634757270E+02  0.23634757270E+02  0.00000000000E+00 0.  1.
          2   -1    0    0  501    0  0.00000000000E+00 -0.00000000000E+00 -0.72357180161E+03  0.72357180161E+03  0.00000000000E+00 0. -1.
         23    2    1    2    0    0 -0.47089937186E+02  0.19634203145E+02 -0.44767749542E+03  0.46104801815E+03  0.97709626022E+02 0.  0.
          5    1    1    2  502    0  0.30809585752E+02 -0.72895186020E+02 -0.14794250160E+03  0.16783144788E+03  0.41800000000E+01 0.  1.
         -5    1    1    2    0  502  0.16280351434E+02  0.53260982875E+02 -0.10431704732E+03  0.11832709284E+03  0.41800000000E+01 0.  1.
        -11    1    3    3    0    0  0.16506249737E+02 -0.14905102050E+02 -0.31116794561E+02  0.38247526080E+02  0.00000000000E+00 0.  1.
         11    1    3    3    0    0 -0.63596186923E+02  0.34539305195E+02 -0.41656070086E+03  0.42280049207E+03  0.00000000000E+00 0. -1.
</event>
<event>
 7    1  0.4274778E-006  0.9259060E+02  0.7561462E-02  0.1296697E+00
         -1   -1    0    0    0  501 -0.00000000000E+00  0.00000000000E+00  0.11344483527E+03  0.11344483527E+03  0.00000000000E+00 0.  1.
          1   -1    0    0  501    0  0.00000000000E+00 -0.00000000000E+00 -0.11127460494E+03  0.11127460494E+03  0.00000000000E+00 0. -1.
         23    2    1    2    0    0 -0.11720118435E+02 -0.23717253471E+02  0.15826634068E+01  0.96859911922E+02  0.93163664729E+02 0.  0.
          5    1    1    2  502    0  0.47633362876E+02  0.50716692277E+02 -0.27248359501E+02  0.74840267436E+02  0.41800000000E+01 0. -1.
         -5    1    1    2    0  502 -0.35913244441E+02 -0.26999438806E+02  0.27835926426E+02  0.53019260860E+02  0.41800000000E+01 0. -1.
        -11    1    3    3    0    0  0.19156884600E+02  0.12412760686E+02 -0.31537287758E+02  0.38931521606E+02  0.00000000000E+00 0. -1.
         11    1    3    3    0    0 -0.30877003035E+02 -0.36130014157E+02  0.33119951165E+02  0.57928390316E+02  0.00000000000E+00 0.  1.
</event>
<event>
 7    1  0.4274778E-006  0.3324223E+03  0.7561462E-02  0.1070070E+00
         -2   -1    0    0    0  501 -0.00000000000E+00  0.00000000000E+00  0.57030177649E+03  0.57030177649E+03  0.00000000000E+00 0.  1.
          2   -1    0    0  501    0  0.00000000000E+00 -0.00000000000E+00 -0.21173112346E+03  0.21173112346E+03  0.00000000000E+00 0. -1.
         23    2    1    2    0    0  0.29470385426E+03 -0.13704385978E+03  0.11614544317E+03  0.35771061299E+03  0.93998603500E+02 0.  0.
          5    1    1    2  502    0 -0.25736251691E+02  0.46353844039E+02  0.35291627841E+01  0.53300665082E+02  0.41800000000E+01 0.  1.
         -5    1    1    2    0  502 -0.26896760257E+03  0.90690015743E+02  0.23889604707E+03  0.37102162187E+03  0.41800000000E+01 0.  1.
        -11    1    3    3    0    0  0.24229749424E+03 -0.12981561750E+03  0.12842353033E+03  0.30340199967E+03  0.00000000000E+00 0.  1.
         11    1    3    3    0    0  0.52406360020E+02 -0.72282422813E+01 -0.12278087156E+02  0.54308613325E+02  0.00000000000E+00 0. -1.
</event>
<event>
 7    1  0.4274778E-006  0.9251524E+02  0.7561462E-02  0.1296873E+00
          3   -1    0    0  501    0  0.00000000000E+00  0.00000000000E+00  0.56879463610E+02  0.56879463610E+02  0.00000000000E+00 0. -1.
         -3   -1    0    0    0  501 -0.00000000000E+00 -0.00000000000E+00 -0.21265014816E+03  0.21265014816E+03  0.00000000000E+00 0.  1.
         23    2    1    2    0    0 -0.11100085499E+02 -0.12328272347E+02 -0.53481167430E+02  0.10709119143E+03  0.91285759108E+02 0.  0.
          5    1    1    2  502    0 -0.24767548629E+02  0.47981130188E+02 -0.71717328494E+01  0.54630819793E+02  0.41800000000E+01 0. -1.
         -5    1    1    2    0  502  0.35867634128E+02 -0.35652857840E+02 -0.95117784268E+02  0.10780760054E+03  0.41800000000E+01 0. -1.
        -11    1    3    3    0    0 -0.41815103730E+02 -0.22861027456E+02 -0.57151239146E+02  0.74413665494E+02  0.00000000000E+00 0.  1.
         11    1    3    3    0    0  0.30715018231E+02  0.10532755109E+02  0.36700717162E+01  0.32677525940E+02  0.00000000000E+00 0. -1.
</event>
<event>
 7    1  0.4274778E-006  0.1007611E+03  0.7561462E-02  0.1278704E+00
         -1   -1    0    0    0  501 -0.00000000000E+00  0.00000000000E+00  0.20800237403E+03  0.20800237403E+03  0.00000000000E+00 0.  1.
          1   -1    0    0  501    0  0.00000000000E+00 -0.00000000000E+00 -0.91777520188E+02  0.91777520188E+02  0.00000000000E+00 0. -1.
         23    2    1    2    0    0 -0.23085050085E+02 -0.41803899979E+02 -0.20118251450E+02  0.11586668614E+03  0.10363329255E+03 0.  0.
          5    1    1    2  502    0  0.13308848845E+02 -0.33350300420E+02  0.11733931588E+02  0.38006914453E+02  0.41800000000E+01 0. -1.
         -5    1    1    2    0  502  0.97762012404E+01  0.75154200399E+02  0.12460917371E+03  0.14590629363E+03  0.41800000000E+01 0.  1.
        -11    1    3    3    0    0  0.27253016691E+02 -0.23242884512E+02  0.26688173405E+02  0.44667854201E+02  0.00000000000E+00 0.  1.
         11    1    3    3    0    0 -0.50338066776E+02 -0.18561015466E+02 -0.46806424855E+02  0.71198831939E+02  0.00000000000E+00 0. -1.
</event>
<event>
 7    1  0.4274778E-006  0.1033804E+03  0.7561462E-02  0.1273344E+00
         -2   -1    0    0    0  501 -0.00000000000E+00  0.00000000000E+00  0.70691903908E+03  0.70691903908E+03  0.00000000000E+00 0.  1.
          2   -1    0    0  501    0  0.00000000000E+00 -0.00000000000E+00 -0.50101356112E+02  0.50101356112E+02  0.00000000000E+00 0. -1.
         23    2    1    2    0    0 -0.82323486151E+02 -0.56388367016E+01  0.22300172681E+03  0.25499604957E+03  0.92110055283E+02 0.  0.
          5    1    1    2  502    0  0.58235249917E+02 -0.37646282476E+02  0.42589001876E+01  0.69600269741E+02  0.41800000000E+01 0. -1.
         -5    1    1    2    0  502  0.24088236234E+02  0.43285119177E+02  0.42955705597E+03  0.43242407588E+03  0.41800000000E+01 0.  1.
        -11    1    3    3    0    0 -0.55492959363E+02  0.10198922646E+02  0.39516105615E+02  0.68884026922E+02  0.00000000000E+00 0.  1.
         11    1    3    3    0    0 -0.26830526789E+02 -0.15837759347E+02  0.18348562119E+03  0.18611202264E+03  0.00000000000E+00 0. -1.
</event>
<event>
 7    1  0.4274778E-006  0.9150606E+02  0.7561462E-02  0.1299245E+00
          3   -1    0    0  501    0  0.00000000000E+00  0.00000000000E+00  0.15020619079E+03  0.15020619079E+03  0.00000000000E+00 0. -1.
         -3   -1    0    0    0  501 -0.00000000000E+00 -0.00000000000E+00 -0.28150741665E+03  0.28150741665E+03  0.00000000000E+00 0.  1.
         23    2    1    2    0    0  0.33499614448E+02  0.35530692515E+02  0.11649500564E+03  0.15396964144E+03  0.88039251865E+02 0.  0.
          5    1    1    2  502    0  0.22354090181E+02 -0.19264869599E+02 -0.20036085202E+03  0.20256550538E+03  0.41800000000E+01 0. -1.
         -5    1    1    2    0  502 -0.55853704629E+02 -0.16265822916E+02 -0.47435379476E+02  0.75178460625E+02  0.41800000000E+01 0.  1.
        -11    1    3    3    0    0 -0.24259845502E+02  0.27331269524E+02  0.71489236476E+02  0.80288537971E+02  0.00000000000E+00 0. -1.
         11    1    3    3    0    0  0.57759459950E+02  0.81994229909E+01  0.45005769160E+02  0.73681103471E+02  0.00000000000E+00 0.  1.
</event>
<event>
 7    1  0.4274778E-006  0.1098373E+03  0.7561462E-02  0.1260872E+00
         -3   -1    0    0    0  501 -0.00000000000E+00  0.00000000000E+00  0.27301498771E+03  0.27301498771E+03  0.00000000000E+00 0.  1.
          3   -1    0    0  501    0  0.00000000000E+00 -0.00000000000E+00 -0.76050202204E+02  0.76050202204E+02  0.00000000000E+00 0. -1.
         23    2    1    2    0    0  0.33969460252E+02 -0.63169391374E+02  0.16776795075E+02  0.11828430190E+03  0.92549548814E+02 0.  0.
          5    1    1    2  502    0 -0.75076233637E+02  0.40483296243E+02  0.68239980922E+02  0.10931379386E+03  0.41800000000E+01 0.  1.
         -5    1    1    2    0  502  0.41106773385E+02  0.22686095131E+02  0.11194800951E+03  0.12146709416E+03  0.41800000000E+01 0.  1.
        -11    1    3    3    0    0  0.44641829580E+02 -0.34107947844E+02  0.48308883571E+02  0.74094488906E+02  0.00000000000E+00 0.  1.
         11    1    3    3    0    0 -0.10672369329E+02 -0.29061443530E+02 -0.31532088496E+02  0.44189812989E+02  0.00000000000E+00 0. -1.
</event>
<event>
 7    1  0.4274778E-006  0.1799230E+03  0.7561462E-02  0.1167878E+00
         -1   -1    0    0    0  501 -0.00000000000E+00  0.00000000000E+00  0.64968620856E+03  0.64968620856E+03  0.00000000000E+00 0.  1.
          1   -1    0    0  501    0  0.00000000000E+00 -0.00000000000E+00 -0.80140466129E+02  0.80140466129E+02  0.00000000000E+00 0. -1.
         23    2    1    2    0    0 -0.33394183889E+02 -0.16776402677E+03  0.10722188655E+03  0.22124847886E+03  0.90523015004E+02 0.  0.
          5    1    1    2  502    0  0.11014369445E+02  0.14620519863E+03  0.45256294883E+03  0.47573939451E+03  0.41800000000E+01 0.  1.
         -5    1    1    2    0  502  0.22379814443E+02  0.21558828145E+02  0.97609070535E+01  0.32838801318E+02  0.41800000000E+01 0.  1.
        -11    1    3    3    0    0 -0.43901668336E+02 -0.64547927753E+02  0.93511882496E+01  0.78620838088E+02  0.00000000000E+00 0. -1.
         11    1    3    3    0    0  0.10507484447E+02 -0.10321609902E+03  0.97870698298E+02  0.14262764077E+03  0.00000000000E+00 0.  1.
</event>
<event>
 7    1  0.4274778E-006  0.9879769E+02  0.7561462E-02  0.1282845E+00
         -1   -1    0    0    0  501 -0.00000000000E+00  0.00000000000E+00  0.32781204248E+02  0.32781204248E+02  0.00000000000E+00 0.  1.
          1   -1    0    0  501    0  0.00000000000E+00 -0.00000000000E+00 -0.40357211767E+03  0.40357211767E+03  0.00000000000E+00 0. -1.
         23    2    1    2    0    0 -0.78632993754E+01  0.34074206075E+02 -0.19461954261E+03  0.21748000953E+03  0.90542283943E+02 0.  0.
          5    1    1    2  502    0 -0.34113717120E+02  0.20294883386E+02 -0.13003655438E+03  0.13602428409E+03  0.41800000000E+01 0.  1.
         -5    1    1    2    0  502  0.41977016495E+02 -0.54369089461E+02 -0.46134816425E+02  0.82849028294E+02  0.41800000000E+01 0.  1.
        -11    1    3    3    0    0 -0.33007727717E+02 -0.13017792858E+02 -0.37897622393E+02  0.51915342654E+02  0.00000000000E+00 0.  1.
         11    1    3    3    0    0  0.25144428341E+02  0.47091998933E+02 -0.15672192022E+03  0.16556466688E+03  0.00000000000E+00 0. -1.
</event>
<event>
 7    1  0.4274778E-006  0.8656311E+02  0.7561462E-02  0.1311395E+00
          1   -1    0    0  501    0  0.00000000000E+00  0.00000000000E+00  0.51629465243E+02  0.51629465243E+02  0.00000000000E+00 0. -1.
         -1   -1    0    0    0  501 -0.00000000000E+00 -0.00000000000E+00 -0.28004017370E+03  0.28004017370E+03  0.00000000000E+00 0.  1.
         23    2    1    2    0    0 -0.51201534523E+02  0.20902386591E+01 -0.11492026926E+03  0.15516717433E+03  0.90797673246E+02 0.  0.
          5    1    1    2  502    0 -0.14827127685E+01  0.26948278085E+02  0.17404454448E+02  0.32385113301E+02  0.41800000000E+01 0.  1.
         -5    1    1    2    0  502  0.52684247292E+02 -0.29038516744E+02 -0.13089489365E+03  0.14411735131E+03  0.41800000000E+01 0.  1.
        -11    1    3    3    0    0 -0.53746715250E+02 -0.24311318371E+02 -0.29957391583E+02  0.66160372668E+02  0.00000000000E+00 0.  1.
         11    1    3    3    0    0  0.25451807265E+01  0.26401557030E+02 -0.84962877679E+02  0.89006801661E+02  0.00000000000E+00 0. -1.
</event>
<event>
 7    1  0.4274778E-006  0.1380724E+03  0.7561462E-02  0.1215947E+00
          1   -1    0    0  501    0  0.00000000000E+00  0.00000000000E+00  0.57903476766E+03  0.57903476766E+03  0.00000000000E+00 0. -1.
         -1   -1    0    0    0  501 -0.00000000000E+00 -0.00000000000E+00 -0.38808669124E+02  0.38808669124E+02  0.00000000000E+00 0.  1.
         23    2    1    2    0    0 -0.94385256037E+02  0.23510785122E+02  0.32628778257E+03  0.35161288800E+03  0.87787085499E+02 0.  0.
          5    1    1    2  502    0 -0.20874840081E+02  0.14498572519E+02  0.86261264708E+02  0.90024695182E+02  0.41800000000E+01 0.  1.
         -5    1    1    2    0  502  0.11526009612E+03 -0.38009357641E+02  0.12767705126E+03  0.17620585360E+03  0.41800000000E+01 0.  1.
        -11    1    3    3    0    0 -0.22107443360E+02 -0.31243529887E+02  0.70357757452E+02  0.80094389600E+02  0.00000000000E+00 0.  1.
         11    1    3    3    0    0 -0.72277812677E+02  0.54754315009E+02  0.25593002512E+03  0.27151849840E+03  0.00000000000E+00 0. -1.
</event>
<event>
 7    1  0.4274778E-006  0.1392672E+03  0.7561462E-02  0.1214318E+00
         -2   -1    0    0    0  501 -0.00000000000E+00  0.00000000000E+00  0.15134677488E+03  0.15134677488E+03  0.00000000000E+00 0.  1.
          2   -1    0    0  501    0  0.00000000000E+00 -0.00000000000E+00 -0.18397182035E+03  0.18397182035E+03  0.00000000000E+00 0. -1.
         23    2    1    2    0    0  0.12514910578E+03  0.13420517928E+02 -0.24432883096E+02  0.15766861583E+03  0.91760654223E+02 0.  0.
          5    1    1    2  502    0 -0.92151637337E+02  0.19225987302E+02 -0.57029839775E+02  0.11014280674E+03  0.41800000000E+01 0.  1.
         -5    1    1    2    0  502 -0.32997468440E+02 -0.32646505230E+02  0.48837677399E+02  0.67507172663E+02  0.41800000000E+01 0.  1.
        -11    1    3    3    0    0  0.15788457648E+02 -0.17972680281E+02 -0.36086711082E+02  0.43295996906E+02  0.00000000000E+00 0. -1.
         11    1    3    3    0    0  0.10936064813E+03  0.31393198208E+02  0.11653827986E+02  0.11437261893E+03  0.00000000000E+00 0.  1.
</event>
<event>
 7    1  0.4274778E-006  0.1306924E+03  0.7561462E-02  0.1226432E+00
          1   -1    0    0  501    0  0.00000000000E+00  0.00000000000E+00  0.84384949806E+03  0.84384949806E+03  0.00000000000E+00 0. -1.
         -1   -1    0    0    0  501 -0.00000000000E+00 -0.00000000000E+00 -0.29988082753E+02  0.29988082753E+02  0.00000000000E+00 0.  1.
         23    2    1    2    0    0  0.56974709911E+02 -0.97499273394E+02  0.44863832549E+03  0.47160974142E+03  0.91581522300E+02 0.  0.
          5    1    1    2  502    0 -0.61141693186E+02  0.64552434720E+02  0.95935058469E+02  0.13086760989E+03  0.41800000000E+01 0. -1.
         -5    1    1    2    0  502  0.41669832752E+01  0.32946838674E+02  0.26928803135E+03  0.27136022950E+03  0.41800000000E+01 0. -1.
        -11    1    3    3    0    0 -0.66670844280E+01 -0.68744646107E+02  0.15351884519E+03  0.16833987113E+03  0.00000000000E+00 0.  1.
         11    1    3    3    0    0  0.63641794339E+02 -0.28754627287E+02  0.29511948030E+03  0.30326987029E+03  0.00000000000E+00 0. -1.
</event>
<event>
 7    1  0.4274778E-006  0.1116786E+03  0.7561462E-02  0.1257493E+00
          1   -1    0    0  501    0  0.00000000000E+00  0.00000000000E+00  0.14498757055E+03  0.14498757055E+03  0.00000000000E+00 0. -1.
         -1   -1    0    0    0  501 -0.00000000000E+00 -0.00000000000E+00 -0.14487619369E+03  0.14487619369E+03  0.00000000000E+00 0.  1.
         23    2    1    2    0    0  0.46440841393E+02 -0.83549373021E+02  0.13308357012E+02  0.13187838036E+03  0.89875165419E+02 0.  0.
          5    1    1    2  502    0  0.24150934225E+02  0.31704383583E+02  0.39018219525E+02  0.55931470723E+02  0.41800000000E+01 0.  1.
         -5    1    1    2    0  502 -0.70591775617E+02  0.51844989438E+02 -0.52215199677E+02  0.10205391316E+03  0.41800000000E+01 0.  1.
        -11    1    3    3    0    0  0.35076541181E+02 -0.61862178217E+02 -0.33837031677E+02  0.78754285900E+02  0.00000000000E+00 0.  1.
         11    1    3    3    0    0  0.11364300212E+02 -0.21687194803E+02  0.47145388689E+02  0.53124094462E+02  0.00000000000E+00 0. -1.
</event>
<event>
 7    1  0.4274778E-006  0.5680564E+02  0.7561462E-02  0.1411748E+00
         -1   -1    0    0    0  501 -0.00000000000E+00  0.00000000000E+00  0.76641692136E+02  0.76641692136E+02  0.00000000000E+00 0.  1.
          1   -1    0    0  501    0  0.00000000000E+00 -0.00000000000E+00 -0.26710580970E+03  0.26710580970E+03  0.00000000000E+00 0. -1.
         23    2    1    2    0    0 -0.23847180854E+01  0.26311425673E+01 -0.19871006449E+03  0.21834693497E+03  0.90427233118E+02 0.  0.
          5    1    1    2  502    0 -0.39982257197E+01 -0.16186236553E+02 -0.56373275768E+02  0.58935546858E+02  0.41800000000E+01 0.  1.
         -5    1    1    2    0  502  0.63829438051E+01  0.13555093986E+02  0.64619222688E+02  0.66465020013E+02  0.41800000000E+01 0.  1.
        -11    1    3    3    0    0  0.14675196182E+01 -0.39015567123E+02 -0.47644480836E+02  0.61598414313E+02  0.00000000000E+00 0.  1.
         11    1    3    3    0    0 -0.38522377036E+01  0.41646709690E+02 -0.15106558365E+03  0.15674852065E+03  0.00000000000E+00 0. -1.
</event>
<event>
 7    1  0.4274778E-006  0.3586775E+03  0.7561462E-02  0.1059109E+00
          2   -1    0    0  501    0  0.00000000000E+00  0.00000000000E+00  0.30362652605E+04  0.30362652605E+04  0.00000000000E+00 0. -1.
         -2   -1    0    0    0  501 -0.00000000000E+00 -0.00000000000E+00 -0.47329755816E+02  0.47329755816E+02  0.00000000000E+00 0.  1.
         23    2    1    2    0    0 -0.15127827486E+03  0.31037973665E+03  0.19272949488E+04  0.19602324331E+04  0.93939738887E+02 0.  0.
          5    1    1    2  502    0  0.11531740778E+03 -0.97453583702E+02  0.45595315824E+03  0.48031870713E+03  0.41800000000E+01 0.  1.
         -5    1    1    2    0  502  0.35960867076E+02 -0.21292615294E+03  0.60568739764E+03  0.64304387613E+03  0.41800000000E+01 0.  1.
        -11    1    3    3    0    0 -0.24568858459E+02  0.14656912687E+02  0.76329720389E+02  0.81514907287E+02  0.00000000000E+00 0. -1.
         11    1    3    3    0    0 -0.12670941640E+03  0.29572282396E+03  0.18509652285E+04  0.18787175258E+04  0.00000000000E+00 0.  1.
</event>
<event>
 7    1  0.4274778E-006  0.1017868E+03  0.7561462E-02  0.1276583E+00
         -1   -1    0    0    0  501 -0.00000000000E+00  0.00000000000E+00  0.19467118694E+02  0.19467118694E+02  0.00000000000E+00 0.  1.
          1   -1    0    0  501    0  0.00000000000E+00 -0.00000000000E+00 -0.63239586687E+03  0.63239586687E+03  0.00000000000E+00 0. -1.
         23    2    1    2    0    0  0.83388426280E+01 -0.97395084119E+01 -0.32719174581E+03  0.33967941875E+03  0.90350842147E+02 0.  0.
          5    1    1    2  502    0  0.52538870982E+02  0.37664651800E+01 -0.19945528871E+03  0.20633565814E+03  0.41800000000E+01 0.  1.
         -5    1    1    2    0  502 -0.60877713610E+02  0.59730432319E+01 -0.86281713653E+02  0.10584790867E+03  0.41800000000E+01 0.  1.
        -11    1    3    3    0    0  0.33629253911E+02 -0.38502559949E+02 -0.15257011894E+03  0.16090685204E+03  0.00000000000E+00 0.  1.
         11    1    3    3    0    0 -0.25290411283E+02  0.28763051537E+02 -0.17462162688E+03  0.17877256671E+03  0.00000000000E+00 0. -1.
</event>
<event>
 7    1  0.4274778E-006  0.1423569E+03  0.7561462E-02  0.1210192E+00
          2   -1    0    0  501    0  0.00000000000E+00  0.00000000000E+00  0.41215650072E+03  0.41215650072E+03  0.00000000000E+00 0. -1.
         -2   -1    0    0    0  501 -0.00000000000E+00 -0.00000000000E+00 -0.87442330423E+02  0.87442330423E+02  0.00000000000E+00 0.  1.
         23    2    1    2    0    0  0.79936692111E+02 -0.10755183058E+03  0.25766346509E+03  0.30440422497E+03  0.91182234748E+02 0.  0.
          5    1    1    2  502    0 -0.39735982714E+02  0.41517914611E+02  0.96473314400E+02  0.11237107433E+03  0.41800000000E+01 0.  1.
         -5    1    1    2    0  502 -0.40200709397E+02  0.66033915966E+02 -0.29422609192E+02  0.82823531834E+02  0.41800000000E+01 0.  1.
        -11    1    3    3    0    0  0.10673143004E+02 -0.70145357960E+02  0.18147952482E+03  0.19485662717E+03  0.00000000000E+00 0. -1.
         11    1    3    3    0    0  0.69263549107E+02 -0.37406472617E+02  0.76183940270E+02  0.10954759780E+03  0.00000000000E+00 0.  1.
</event>
<event>
 7    1  0.4274778E-006  0.1152122E+03  0.7561462E-02  0.1251211E+00
         -2   -1    0    0    0  501 -0.00000000000E+00  0.00000000000E+00  0.98551165229E+02  0.98551165229E+02  0.00000000000E+00 0.  1.
          2   -1    0    0  501    0  0.00000000000E+00 -0.00000000000E+00 -0.24146433179E+03  0.24146433179E+03  0.00000000000E+00 0. -1.
         23    2    1    2    0    0 -0.59976853022E+02 -0.29638741559E+02 -0.16348749260E+03  0.19667506870E+03  0.86471061702E+02 0.  0.
          5    1    1    2  502    0  0.38908621848E+01 -0.35275225605E+02  0.41674673529E+02  0.54897460450E+02  0.41800000000E+01 0. -1.
         -5    1    1    2    0  502  0.56085990837E+02  0.64913967165E+02 -0.21100347489E+02  0.88442967869E+02  0.41800000000E+01 0. -1.
        -11    1    3    3    0    0 -0.82168234149E+02 -0.26801469010E+02 -0.13723325504E+03  0.16218169975E+03  0.00000000000E+00 0. -1.
         11    1    3    3    0    0  0.22191381127E+02 -0.28372725493E+01 -0.26254237564E+02  0.34493368956E+02  0.00000000000E+00 0.  1.
</event>
<event>
 7    1  0.4274778E-006  0.1173555E+03  0.7561462E-02  0.1247525E+00
         -2   -1    0    0    0  501 -0.00000000000E+00  0.00000000000E+00  0.50754887499E+02  0.50754887499E+02  0.00000000000E+00 0.  1.
          2   -1    0    0  501    0  0.00000000000E+00 -0.00000000000E+00 -0.37328143627E+03  0.37328143627E+03  0.00000000000E+00 0. -1.
         23    2    1    2    0    0  0.78061439686E+01 -0.59159135635E+02 -0.23774928754E+03  0.26156877717E+03  0.91283964933E+02 0.  0.
          5    1    1    2  502    0 -0.68493828452E+01  0.97336313455E+02 -0.46265688536E+02  0.10807061718E+03  0.41800000000E+01 0. -1.
         -5    1    1    2    0  502 -0.95676112336E+00 -0.38177177821E+02 -0.38511572698E+02  0.54396929416E+02  0.41800000000E+01 0. -1.
        -11    1    3    3    0    0 -0.62394093865E+01 -0.76250322907E+02 -0.22086367782E+03  0.23373875621E+03  0.00000000000E+00 0. -1.
         11    1    3    3    0    0  0.14045553355E+02  0.17091187272E+02 -0.16885609719E+02  0.27830020967E+02  0.00000000000E+00 0.  1.
</event>
<event>
 7    1  0.4274778E-006  0.1428673E+03  0.7561462E-02  0.1209522E+00
          1   -1    0    0  501    0  0.00000000000E+00  0.00000000000E+00  0.12231934236E+03  0.12231934236E+03  0.00000000000E+00 0. -1.
         -1   -1    0    0    0  501 -0.00000000000E+00 -0.00000000000E+00 -0.17858340959E+03  0.17858340959E+03  0.00000000000E+00 0.  1.
         23    2    1    2    0    0  0.12457512305E+02  0.38514900616E+02  0.15367944936E+02  0.10118640338E+03  0.91454509536E+02 0.  0.
          5    1    1    2  502    0 -0.49147479373E+02  0.61718876362E+02 -0.38413319123E+02  0.87850725177E+02  0.41800000000E+01 0. -1.
         -5    1    1    2    0  502  0.36689967068E+02 -0.10023377698E+03 -0.33218693041E+02  0.11186562340E+03  0.41800000000E+01 0.  1.
        -11    1    3    3    0    0 -0.36428037417E+02 -0.19024416681E+01  0.78467454604E+01  0.37312097350E+02  0.00000000000E+00 0.  1.
         11    1    3    3    0    0  0.48885549722E+02  0.40417342284E+02  0.75211994755E+01  0.63874306027E+02  0.00000000000E+00 0. -1.
</event>
<event>
 7    1  0.4274778E-006  0.1426211E+03  0.7561462E-02  0.1209845E+00
         -2   -1    0    0    0  501 -0.00000000000E+00  0.00000000000E+00  0.26781244771E+03  0.26781244771E+03  0.00000000000E+00 0.  1.
          2   -1    0    0  501    0  0.00000000000E+00 -0.00000000000E+00 -0.16813024767E+03  0.16813024767E+03  0.00000000000E+00 0. -1.
         23    2    1    2    0    0 -0.69747989015E+02 -0.80042919990E+02 -0.10814284774E+03  0.17655766332E+03  0.90587427101E+02 0.  0.
          5    1    1    2  502    0 -0.24870968653E+02  0.27785696466E+02  0.99316796557E+02  0.10616924455E+03  0.41800000000E+01 0. -1.
         -5    1    1    2    0  502  0.94618957668E+02  0.52257223523E+02  0.10850825122E+03  0.15321578751E+03  0.41800000000E+01 0.  1.
        -11    1    3    3    0    0 -0.42944443914E+02 -0.98194818505E+02 -0.84184522779E+02  0.13628456083E+03  0.00000000000E+00 0. -1.
         11    1    3    3    0    0 -0.26803545101E+02  0.18151898516E+02 -0.23958324960E+02  0.40273102495E+02  0.00000000000E+00 0.  1.
</event>
<event>
 7    1  0.4274778E-006  0.8323814E+02  0.7561462E-02  0.1320105E+00
         -2   -1    0    0    0  501 -0.00000000000E+00  0.00000000000E+00  0.49569928645E+02  0.49569928645E+02  0.00000000000E+00 0.  1.
          2   -1    0    0  501    0  0.00000000000E+00 -0.00000000000E+00 -0.35706513712E+03  0.35706513712E+03  0.00000000000E+00 0. -1.
         23    2    1    2    0    0 -0.76186356214E+02 -0.66960227109E+01 -0.15196135813E+03  0.19289051567E+03  0.90913690247E+02 0.  0.
          5    1    1    2  502    0  0.42454079849E+02  0.45024366831E+01 -0.17102769570E+03  0.17632517100E+03  0.41800000000E+01 0.  1.
         -5    1    1    2    0  502  0.33732276365E+02  0.21935860278E+01  0.15493845357E+02  0.37419379102E+02  0.41800000000E+01 0.  1.
        -11    1    3    3    0    0 -0.64734707164E+02  0.13662438943E+02 -0.15575677308E+03  0.16922593451E+03  0.00000000000E+00 0. -1.
         11    1    3    3    0    0 -0.11451649049E+02 -0.20358461654E+02  0.37954149444E+01  0.23664581159E+02  0.00000000000E+00 0.  1.
</event>
<event>
 7    1  0.4274778E-006  0.1097041E+03  0.7561462E-02  0.1261119E+00
         -1   -1    0    0    0  501 -0.00000000000E+00  0.00000000000E+00  0.19115327321E+03  0.19115327321E+03  0.00000000000E+00 0.  1.
          1   -1    0    0  501    0  0.00000000000E+00 -0.00000000000E+00 -0.83305905703E+02  0.83305905703E+02  0.00000000000E+00 0. -1.
         23    2    1    2    0    0  0.21023521675E+02  0.60879247420E+02  0.12098076652E+02  0.11182741843E+03  0.90613116183E+02 0.  0.
          5    1    1    2  502    0 -0.19581196482E+02  0.26038717846E+02 -0.52515045001E+00  0.32850970545E+02  0.41800000000E+01 0. -1.
         -5    1    1    2    0  502 -0.14423251935E+01 -0.86917965266E+02  0.96274441309E+02  0.12978078994E+03  0.41800000000E+01 0.  1.
        -11    1    3    3    0    0  0.49802778778E+02  0.41595631327E+02 -0.16445983513E+02  0.66940150084E+02  0.00000000000E+00 0. -1.
         11    1    3    3    0    0 -0.28779257103E+02  0.19283616093E+02  0.28544060165E+02  0.44887268348E+02  0.00000000000E+00 0.  1.
</event>
<event>
 7    1  0.4274778E-006  0.1213962E+03  0.7561462E-02  0.1240811E+00
          1   -1    0    0  501    0  0.00000000000E+00  0.00000000000E+00  0.15861736315E+03  0.15861736315E+03  0.00000000000E+00 0. -1.
         -1   -1    0    0    0  501 -0.00000000000E+00 -0.00000000000E+00 -0.10217705771E+03  0.10217705771E+03  0.00000000000E+00 0.  1.
         23    2    1    2    0    0  0.64458832689E+02  0.78447270684E+01  0.10917512254E+02  0.11268834185E+03  0.91449381963E+02 0.  0.
          5    1    1    2  502    0 -0.81686467910E+02  0.34174756584E+02  0.79231547095E+01  0.88999111275E+02  0.41800000000E+01 0.  1.
         -5    1    1    2    0  502  0.17227635221E+02 -0.42019483652E+02  0.37599638473E+02  0.59106967736E+02  0.41800000000E+01 0.  1.
        -11    1    3    3    0    0 -0.14405041028E+02 -0.20224960339E+02 -0.93956369090E+01  0.26548676439E+02  0.00000000000E+00 0.  1.
         11    1    3    3    0    0  0.78863873717E+02  0.28069687407E+02  0.20313149163E+02  0.86139665414E+02  0.00000000000E+00 0. -1.
</event>
<event>
 7    1  0.4274778E-006  0.1331014E+03  0.7561462E-02  0.1222925E+00
          1   -1    0    0  501    0  0.00000000000E+00  0.00000000000E+00  0.51810389761E+03  0.51810389761E+03  0.00000000000E+00 0. -1.
         -1   -1    0    0    0  501 -0.00000000000E+00 -0.00000000000E+00 -0.55775829396E+02  0.55775829396E+02  0.00000000000E+00 0.  1.
         23    2    1    2    0    0  0.50306119449E+02 -0.71366183800E+02  0.37959683625E+03  0.40033989500E+03  0.92490191859E+02 0.  0.
          5    1    1    2  502    0 -0.89627577267E+02  0.37026710234E+02  0.69912894265E+02  0.11962175831E+03  0.41800000000E+01 0.  1.
         -5    1    1    2    0  502  0.39321457818E+02  0.34339473567E+02  0.12818337698E+02  0.53918073696E+02  0.41800000000E+01 0.  1.
        -11    1    3    3    0    0 -0.20780823059E+02 -0.21713621196E+02  0.41121549295E+02  0.50934328001E+02  0.00000000000E+00 0.  1.
         11    1    3    3    0    0  0.71086942508E+02 -0.49652562605E+02  0.33847528695E+03  0.34940556699E+03  0.00000000000E+00 0. -1.
</event>
<event>
 7    1  0.4274778E-006  0.8376168E+02  0.7561462E-02  0.1318703E+00
         -2   -1    0    0    0  501 -0.00000000000E+00  0.00000000000E+00  0.14899445949E+03  0.14899445949E+03  0.00000000000E+00 0.  1.
          2   -1    0    0  501    0  0.00000000000E+00 -0.00000000000E+00 -0.83482048102E+02  0.83482048102E+02  0.00000000000E+00 0. -1.
         23    2    1    2    0    0  0.68323526311E+01  0.17858287622E+02  0.17263624207E+02  0.97727515773E+02  0.94271072653E+02 0.  0.
          5    1    1    2  502    0 -0.26512059788E+01 -0.59578306387E+02 -0.12246701901E+02  0.61025057087E+02  0.41800000000E+01 0. -1.
         -5    1    1    2    0  502 -0.41811466523E+01  0.41720018764E+02  0.60495489079E+02  0.73723934729E+02  0.41800000000E+01 0.  1.
        -11    1    3    3    0    0 -0.20263504439E+02  0.29763812486E+02  0.44680882508E+02  0.57383581342E+02  0.00000000000E+00 0.  1.
         11    1    3    3    0    0  0.27095857070E+02 -0.11905524864E+02 -0.27417258302E+02  0.40343934432E+02  0.00000000000E+00 0. -1.
</event>
<event>
 7    1  0.4274778E-006  0.1105478E+03  0.7561462E-02  0.1259559E+00
          1   -1    0    0  501    0  0.00000000000E+00  0.00000000000E+00  0.29901464300E+03  0.29901464300E+03  0.00000000000E+00 0. -1.
         -1   -1    0    0    0  501 -0.00000000000E+00 -0.00000000000E+00 -0.52260350954E+02  0.52260350954E+02  0.00000000000E+00 0.  1.
         23    2    1    2    0    0 -0.40243913515E+02  0.68200924887E+01  0.17317328458E+03  0.20051671915E+03  0.92476385782E+02 0.  0.
          5    1    1    2  502    0  0.81322068907E+02 -0.35966878990E+01  0.72874886481E+02  0.10933634590E+03  0.41800000000E+01 0. -1.
         -5    1    1    2    0  502 -0.41078155392E+02 -0.32234045897E+01  0.70612098178E+00  0.41421928908E+02  0.41800000000E+01 0. -1.
        -11    1    3    3    0    0  0.28827201823E+02  0.80673695558E+00  0.31005378385E+02  0.42343734817E+02  0.00000000000E+00 0.  1.
         11    1    3    3    0    0 -0.69071115338E+02  0.60133555331E+01  0.14216790620E+03  0.15817298433E+03  0.00000000000E+00 0. -1.
</event>
<event>
 7    1  0.4274778E-006  0.1520371E+03  0.7561462E-02  0.1197992E+00
          2   -1    0    0  501    0  0.00000000000E+00  0.00000000000E+00  0.22908733541E+03  0.22908733541E+03  0.00000000000E+00 0. -1.
         -2   -1    0    0    0  501 -0.00000000000E+00 -0.00000000000E+00 -0.11198449275E+03  0.11198449275E+03  0.00000000000E+00 0.  1.
         23    2    1    2    0    0  0.11394440317E+03 -0.24009304347E+02  0.69217625212E+02  0.16358804585E+03  0.91707117487E+02 0.  0.
          5    1    1    2  502    0 -0.33812181319E+02  0.64467067541E+02 -0.52183097873E+01  0.73102459329E+02  0.41800000000E+01 0. -1.
         -5    1    1    2    0  502 -0.80132221848E+02 -0.40457763194E+02  0.53103527236E+02  0.10438132297E+03  0.41800000000E+01 0. -1.
        -11    1    3    3    0    0  0.12100686754E+03 -0.36975284293E+02  0.43252115015E+02  0.13371828257E+03  0.00000000000E+00 0.  1.
         11    1    3    3    0    0 -0.70624643697E+01  0.12965979946E+02  0.25965510197E+02  0.29869763285E+02  0.00000000000E+00 0. -1.
</event>
<event>
 7    1  0.4274778E-006  0.1826668E+03  0.7561462E-02  0.1165247E+00
         -1   -1    0    0    0  501 -0.00000000000E+00  0.00000000000E+00  0.30295541428E+03  0.30295541428E+03  0.00000000000E+00 0.  1.
          1   -1    0    0  501    0  0.00000000000E+00 -0.00000000000E+00 -0.12486012372E+03  0.12486012372E+03  0.00000000000E+00 0. -1.
         23    2    1    2    0    0  0.15604314314E+03  0.37413319729E+02  0.73078460278E+02  0.19884836077E+03  0.91929267416E+02 0.  0.
          5    1    1    2  502    0 -0.14817320569E+03 -0.59513136975E+02  0.47400121613E+02  0.16661739490E+03  0.41800000000E+01 0.  1.
         -5    1    1    2    0  502 -0.78699374569E+01  0.22099817246E+02  0.57616708677E+02  0.62349782331E+02  0.41800000000E+01 0.  1.
        -11    1    3    3    0    0  0.11322504024E+03  0.65269019937E+02  0.68521085707E+02  0.14756386376E+03  0.00000000000E+00 0.  1.
         11    1    3    3    0    0  0.42818102903E+02 -0.27855700208E+02  0.45573745711E+01  0.51284497007E+02  0.00000000000E+00 0. -1.
</event>
<event>
 7    1  0.4274778E-006  0.2012045E+03  0.7561462E-02  0.1148727E+00
          2   -1    0    0  501    0  0.00000000000E+00  0.00000000000E+00  0.12151941270E+04  0.12151941270E+04  0.00000000000E+00 0. -1.
         -2   -1    0    0    0  501 -0.00000000000E+00 -0.00000000000E+00 -0.33760850209E+02  0.33760850209E+02  0.00000000000E+00 0.  1.
         23    2    1    2    0    0 -0.61242505925E+02  0.15852598490E+03  0.60986005568E+03  0.63967328357E+03  0.91495845709E+02 0.  0.
          5    1    1    2  502    0 -0.33693836769E+02 -0.77791736748E+02  0.19727298208E+03  0.21475784224E+03  0.41800000000E+01 0.  1.
         -5    1    1    2    0  502  0.94936342694E+02 -0.80734248147E+02  0.37430023904E+03  0.39452385142E+03  0.41800000000E+01 0.  1.
        -11    1    3    3    0    0 -0.85394581260E+02  0.11794533179E+03  0.44863199443E+03  0.47167149821E+03  0.00000000000E+00 0.  1.
         11    1    3    3    0    0  0.24152075334E+02  0.40580653104E+02  0.16122806126E+03  0.16800178536E+03  0.00000000000E+00 0. -1.
</event>
<event>
 7    1  0.4274778E-006  0.1002363E+03  0.7561462E-02  0.1279800E+00
          2   -1    0    0  501    0  0.00000000000E+00  0.00000000000E+00  0.89596911722E+02  0.89596911722E+02  0.00000000000E+00 0. -1.
         -2   -1    0    0    0  501 -0.00000000000E+00 -0.00000000000E+00 -0.14019759159E+03  0.14019759159E+03  0.00000000000E+00 0.  1.
         23    2    1    2    0    0  0.17575221162E+02  0.19669207448E+01  0.52639869396E+01  0.91660484407E+02  0.89784061320E+02 0.  0.
          5    1    1    2  502    0 -0.24092217615E+02  0.55921072366E+02 -0.50985122274E+02  0.79527079523E+02  0.41800000000E+01 0. -1.
         -5    1    1    2    0  502  0.65169964524E+01 -0.57887993111E+02 -0.48795445365E+01  0.58606939385E+02  0.41800000000E+01 0. -1.
        -11    1    3    3    0    0  0.47246786013E+02  0.13599925731E+02 -0.17834253003E+02  0.52299879049E+02  0.00000000000E+00 0.  1.
         11    1    3    3    0    0 -0.29671564851E+02 -0.11633004986E+02  0.23098239942E+02  0.39360605358E+02  0.00000000000E+00 0. -1.
</event>
<event>
 7    1  0.4274778E-006  0.1048527E+03  0.7561462E-02  0.1270410E+00
          4   -1    0    0  501    0  0.00000000000E+00  0.00000000000E+00  0.13436144834E+03  0.13436144834E+03  0.00000000000E+00 0. -1.
         -4   -1    0    0    0  501 -0.00000000000E+00 -0.00000000000E+00 -0.18267484363E+03  0.18267484363E+03  0.00000000000E+00 0.  1.
         23    2    1    2    0    0  0.26194806163E+02 -0.10014890442E+03  0.19081018741E+02  0.14123630122E+03  0.94168129316E+02 0.  0.
          5    1    1    2  502    0  0.18262553802E+01  0.97061489809E+01  0.34804067678E+02  0.36418951985E+02  0.41800000000E+01 0.  1.
         -5    1    1    2    0  502 -0.28021061543E+02  0.90442755442E+02 -0.10219848171E+03  0.13938103876E+03  0.41800000000E+01 0.  1.
        -11    1    3    3    0    0  0.22213042128E+02 -0.62200180011E+02 -0.35234004845E+02  0.74857977073E+02  0.00000000000E+00 0.  1.
         11    1    3    3    0    0  0.39817640351E+01 -0.37948724412E+02  0.54315023587E+02  0.66378324147E+02  0.00000000000E+00 0. -1.
</event>
<event>
 7    1  0.4274778E-006  0.1056902E+03  0.7561462E-02  0.1268766E+00
          2   -1    0    0  501    0  0.00000000000E+00  0.00000000000E+00  0.18511837963E+03  0.18511837963E+03  0.00000000000E+00 0. -1.
         -2   -1    0    0    0  501 -0.00000000000E+00 -0.00000000000E+00 -0.13864418220E+03  0.13864418220E+03  0.00000000000E+00 0.  1.
         23    2    1    2    0    0  0.51300246379E+02  0.38463895404E+02  0.11799230609E+03  0.16162585099E+03  0.89941897269E+02 0.  0.
          5    1    1    2  502    0  0.88868134477E+01 -0.40785106881E+02  0.24597968275E+02  0.48630575154E+02  0.41800000000E+01 0. -1.
         -5    1    1    2    0  502 -0.60187059827E+02  0.23212114774E+01 -0.96116076929E+02  0.11350613568E+03  0.41800000000E+01 0.  1.
        -11    1    3    3    0    0  0.71339280503E+02  0.48870020328E+02  0.10316576411E+03  0.13461332294E+03  0.00000000000E+00 0.  1.
         11    1    3    3    0    0 -0.20039034124E+02 -0.10406124924E+02  0.14826541984E+02  0.27012528052E+02  0.00000000000E+00 0. -1.
</event>
<event>
 7    1  0.4274778E-006  0.9667721E+02  0.7561462E-02  0.1287443E+00
          1   -1    0    0  501    0  0.00000000000E+00  0.00000000000E+00  0.10610078190E+04  0.10610078190E+04  0.00000000000E+00 0. -1.
         -1   -1    0    0    0  501 -0.00000000000E+00 -0.00000000000E+00 -0.13315452400E+02  0.13315452400E+02  0.00000000000E+00 0.  1.
         23    2    1    2    0    0 -0.13267850421E+01 -0.40296265339E+02  0.34357146898E+03  0.35804156845E+03  0.92341004339E+02 0.  0.
          5    1    1    2  502    0 -0.24378693881E+02 -0.17343052784E+02  0.45404791781E+02  0.54535948804E+02  0.41800000000E+01 0.  1.
         -5    1    1    2    0  502  0.25705478924E+02  0.57639318123E+02  0.65871610587E+03  0.66174575417E+03  0.41800000000E+01 0.  1.
        -11    1    3    3    0    0 -0.45676256357E+02 -0.11784320875E+02  0.18575103545E+03  0.19164717004E+03  0.00000000000E+00 0.  1.
         11    1    3    3    0    0  0.44349471315E+02 -0.28511944463E+02  0.15782043353E+03  0.16639439841E+03  0.00000000000E+00 0. -1.
</event>
<event>
 7    1  0.4274778E-006  0.7660283E+02  0.7561462E-02  0.1338978E+00
          4   -1    0    0  501    0  0.00000000000E+00  0.00000000000E+00  0.55358991747E+02  0.55358991747E+02  0.00000000000E+00 0. -1.
         -4   -1    0    0    0  501 -0.00000000000E+00 -0.00000000000E+00 -0.36063572989E+03  0.36063572989E+03  0.00000000000E+00 0.  1.
         23    2    1    2    0    0  0.26849563565E+00  0.14622854938E+02 -0.48682195160E+01  0.90253967397E+02  0.88927943264E+02 0.  0.
          5    1    1    2  502    0  0.54834241247E+02 -0.18081837591E+02 -0.22412721756E+03  0.23148267520E+03  0.41800000000E+01 0.  1.
         -5    1    1    2    0  502 -0.55102736882E+02  0.34589826534E+01 -0.76281301069E+02  0.94258079048E+02  0.41800000000E+01 0.  1.
        -11    1    3    3    0    0 -0.26534191455E+01 -0.12443433182E+02  0.37664215081E+02  0.39755160170E+02  0.00000000000E+00 0. -1.
         11    1    3    3    0    0  0.29219147811E+01  0.27066288120E+02 -0.42532434597E+02  0.50498807227E+02  0.00000000000E+00 0.  1.
</event>
<event>
 7    1  0.4274778E-006  0.1218653E+03  0.7561462E-02  0.1240051E+00
         -2   -1    0    0    0  501 -0.00000000000E+00  0.00000000000E+00  0.69312826490E+02  0.69312826490E+02  0.00000000000E+00 0.  1.
          2   -1    0    0  501    0  0.00000000000E+00 -0.00000000000E+00 -0.24864015013E+03  0.24864015013E+03  0.00000000000E+00 0. -1.
         23    2    1    2    0    0 -0.20765316798E+02  0.70759055352E+02 -0.85193086758E+02  0.14490797749E+03  0.91117603195E+02 0.  0.
          5    1    1    2  502    0 -0.48940319776E+02 -0.39731797326E+02 -0.19221037458E+02  0.66035530584E+02  0.41800000000E+01 0. -1.
         -5    1    1    2    0  502  0.69705636574E+02 -0.31027258025E+02 -0.74913199419E+02  0.10700946854E+03  0.41800000000E+01 0. -1.
        -11    1    3    3    0    0  0.26107231712E+02  0.11350976495E+02 -0.57798983554E+02  0.64429455336E+02  0.00000000000E+00 0.  1.
         11    1    3    3    0    0 -0.46872548510E+02  0.59408078856E+02 -0.27394103204E+02  0.80478522151E+02  0.00000000000E+00 0. -1.
</event>
<event>
 7    1  0.4274778E-006  0.1774133E+03  0.7561462E-02  0.1170330E+00
         -2   -1    0    0    0  501 -0.00000000000E+00  0.00000000000E+00  0.63181834645E+02  0.63181834645E+02  0.00000000000E+00 0.  1.
          2   -1    0    0  501    0  0.00000000000E+00 -0.00000000000E+00 -0.75370743039E+03  0.75370743039E+03  0.00000000000E+00 0. -1.
         23    2    1    2    0    0  0.16545188802E+03 -0.15311299842E+02 -0.50040323553E+03  0.53510400574E+03  0.91236701402E+02 0.  0.
          5    1    1    2  502    0 -0.50746096545E+02  0.10934041384E+02 -0.15213423462E+03  0.16080117325E+03  0.41800000000E+01 0.  1.
         -5    1    1    2    0  502 -0.11470579147E+03  0.43772584577E+01 -0.37988125597E+02  0.12098408604E+03  0.41800000000E+01 0.  1.
        -11    1    3    3    0    0  0.15190435381E+00 -0.22428881134E+02 -0.39786955725E+02  0.45673620721E+02  0.00000000000E+00 0.  1.
         11    1    3    3    0    0  0.16529998366E+03  0.71175812921E+01 -0.46061627981E+03  0.48943038502E+03  0.00000000000E+00 0. -1.
</event>
<event>
 7    1  0.4274778E-006  0.8370490E+02  0.7561462E-02  0.1318855E+00
         -2   -1    0    0    0  501 -0.00000000000E+00  0.00000000000E+00  0.44915208655E+02  0.44915208655E+02  0.00000000000E+00 0.  1.
          2   -1    0    0  501    0  0.00000000000E+00 -0.00000000000E+00 -0.40132909454E+03  0.40132909454E+03  0.00000000000E+00 0. -1.
         23    2    1    2    0    0 -0.60974192527E+02  0.27417544820E+00 -0.24123145308E+03  0.26560201373E+03  0.92918719402E+02 0.  0.
          5    1    1    2  502    0  0.19867553830E+02  0.18461459096E+02 -0.13003970963E+03  0.13290351255E+03  0.41800000000E+01 0.  1.
         -5    1    1    2    0  502  0.41106638697E+02 -0.18735634545E+02  0.14857276827E+02  0.47738776916E+02  0.41800000000E+01 0.  1.
        -11    1    3    3    0    0  0.11523584570E+02 -0.16559208831E+02 -0.96667937282E+01  0.22370679458E+02  0.00000000000E+00 0.  1.
         11    1    3    3    0    0 -0.72497777097E+02  0.16833384279E+02 -0.23156465935E+03  0.24323133427E+03  0.00000000000E+00 0. -1.
</event>
<event>
 7    1  0.4274778E-006  0.2729521E+03  0.7561462E-02  0.1099602E+00
          2   -1    0    0  501    0  0.00000000000E+00  0.00000000000E+00  0.42596860850E+03  0.42596860850E+03  0.00000000000E+00 0. -1.
         -2   -1    0    0    0  501 -0.00000000000E+00 -0.00000000000E+00 -0.41758256130E+03  0.41758256130E+03  0.00000000000E+00 0.  1.
         23    2    1    2    0    0  0.60977955132E+02  0.12716540099E+03  0.13749962300E+03  0.21849302622E+03  0.94571168750E+02 0.  0.
          5    1    1    2  502    0  0.14526868309E+03 -0.78409137024E+02  0.18381399257E+03  0.24709520295E+03  0.41800000000E+01 0. -1.
         -5    1    1    2    0  502 -0.20624663822E+03 -0.48756263968E+02 -0.31292756836E+03  0.37796294064E+03  0.41800000000E+01 0.  1.
        -11    1    3    3    0    0  0.35324680681E+02  0.13688331291E+03  0.12339830756E+03  0.18764865235E+03  0.00000000000E+00 0. -1.
         11    1    3    3    0    0  0.25653274451E+02 -0.97179119232E+01  0.14101315444E+02  0.30844373870E+02  0.00000000000E+00 0.  1.
</event>
<event>
 7    1  0.4274778E-006  0.2122429E+03  0.7561462E-02  0.1139802E+00
         -1   -1    0    0    0  501 -0.00000000000E+00  0.00000000000E+00  0.19977523140E+03  0.19977523140E+03  0.00000000000E+00 0.  1.
          1   -1    0    0  501    0  0.00000000000E+00 -0.00000000000E+00 -0.33040128218E+03  0.33040128218E+03  0.00000000000E+00 0. -1.
         23    2    1    2    0    0 -0.19308784888E+03  0.33490869349E+02 -0.19582240876E+03  0.29167073418E+03  0.91218669640E+02 0.  0.
          5    1    1    2  502    0  0.79862817193E+02  0.42319129034E+02  0.85569056280E+01  0.90882733707E+02  0.41800000000E+01 0. -1.
         -5    1    1    2    0  502  0.11322503168E+03 -0.75809998383E+02  0.56639452354E+02  0.14762304569E+03  0.41800000000E+01 0.  1.
        -11    1    3    3    0    0 -0.25873314565E+02  0.13766903924E+02 -0.85473258960E+02  0.90358364568E+02  0.00000000000E+00 0.  1.
         11    1    3    3    0    0 -0.16721453431E+03  0.19723965425E+02 -0.11034914980E+03  0.20131236961E+03  0.00000000000E+00 0. -1.
</event>
<event>
 7    1  0.4274778E-006  0.2301979E+03  0.7561462E-02  0.1126501E+00
         -3   -1    0    0    0  501 -0.00000000000E+00  0.00000000000E+00  0.23557065462E+03  0.23557065462E+03  0.00000000000E+00 0.  1.
          3   -1    0    0  501    0  0.00000000000E+00 -0.00000000000E+00 -0.26537537282E+03  0.26537537282E+03  0.00000000000E+00 0. -1.
         23    2    1    2    0    0  0.48020280772E+02  0.21561561905E+03 -0.56877128181E+02  0.24564884537E+03  0.91171843121E+02 0.  0.
          5    1    1    2  502    0 -0.33559076811E+02 -0.21478777095E+03  0.54356320968E+02  0.22412514409E+03  0.41800000000E+01 0.  1.
         -5    1    1    2    0  502 -0.14461203961E+02 -0.82784810214E+00 -0.27283910987E+02  0.31172037971E+02  0.41800000000E+01 0.  1.
        -11    1    3    3    0    0  0.49147116262E+02  0.92334762501E+02  0.10547001935E+02  0.10513033175E+03  0.00000000000E+00 0.  1.
         11    1    3    3    0    0 -0.11268354905E+01  0.12328085655E+03 -0.67424130115E+02  0.14051851363E+03  0.00000000000E+00 0. -1.
</event>
<event>
 7    1  0.4274778E-006  0.1051774E+03  0.7561462E-02  0.1269771E+00
         -1   -1    0    0    0  501 -0.00000000000E+00  0.00000000000E+00  0.17158930731E+02  0.17158930731E+02  0.00000000000E+00 0.  1.
          1   -1    0    0  501    0  0.00000000000E+00 -0.00000000000E+00 -0.94932855194E+03  0.94932855194E+03  0.00000000000E+00 0. -1.
         23    2    1    2    0    0 -0.62295940218E+02 -0.24042547339E+02 -0.37799717924E+03  0.39443955150E+03  0.90784712503E+02 0.  0.
          5    1    1    2  502    0 -0.12369824532E+02 -0.20460235410E+02 -0.34008095367E+03  0.34094597995E+03  0.41800000000E+01 0. -1.
         -5    1    1    2    0  502  0.74665764750E+02  0.44502782748E+02 -0.21409148830E+03  0.23110195122E+03  0.41800000000E+01 0. -1.
        -11    1    3    3    0    0  0.40160492635E+01  0.19383070604E+02 -0.21451133358E+02  0.29188751259E+02  0.00000000000E+00 0.  1.
         11    1    3    3    0    0 -0.66311989481E+02 -0.43425617943E+02 -0.35654604588E+03  0.36525080024E+03  0.00000000000E+00 0. -1.
</event>
<event>
 7    1  0.4274778E-006  0.7104709E+02  0.7561462E-02  0.1356568E+00
          4   -1    0    0  501    0  0.00000000000E+00  0.00000000000E+00  0.57382404275E+02  0.57382404275E+02  0.00000000000E+00 0. -1.
         -4   -1    0    0    0  501 -0.00000000000E+00 -0.00000000000E+00 -0.26705051995E+03  0.26705051995E+03  0.00000000000E+00 0.  1.
         23    2    1    2    0    0 -0.10814552637E+02  0.28219492060E+02 -0.26591071139E+02  0.10064519928E+03  0.92244657259E+02 0.  0.
          5    1    1    2  502    0  0.29799794517E+02 -0.83469212306E+01 -0.19205260743E+03  0.19457485775E+03  0.41800000000E+01 0.  1.
         -5    1    1    2    0  502 -0.18985241880E+02 -0.19872570830E+02  0.89755628943E+01  0.29212867198E+02  0.41800000000E+01 0.  1.
        -11    1    3    3    0    0  0.17656220768E+02 -0.20242208948E+02  0.14962274267E+02  0.30746687726E+02  0.00000000000E+00 0. -1.
         11    1    3    3    0    0 -0.28470773405E+02  0.48461701008E+02 -0.41553345406E+02  0.69898511553E+02  0.00000000000E+00 0.  1.
</event>
<event>
 7    1  0.4274778E-006  0.1245245E+03  0.7561462E-02  0.1235814E+00
         -1   -1    0    0    0  501 -0.00000000000E+00  0.00000000000E+00  0.31517147237E+03  0.31517147237E+03  0.00000000000E+00 0.  1.
          1   -1    0    0  501    0  0.00000000000E+00 -0.00000000000E+00 -0.70170321296E+02  0.70170321296E+02  0.00000000000E+00 0. -1.
         23    2    1    2    0    0  0.97977047624E+02  0.10725043758E+02  0.51418996027E+02  0.13922275102E+03  0.83812486090E+02 0.  0.
          5    1    1    2  502    0 -0.40676214993E+01 -0.48666878192E+02  0.47068015122E+02  0.67954992644E+02  0.41800000000E+01 0. -1.
         -5    1    1    2    0  502 -0.93909426124E+02  0.37941834435E+02  0.14651413992E+03  0.17816405000E+03  0.41800000000E+01 0.  1.
        -11    1    3    3    0    0  0.25037193631E+02  0.47037775447E+01  0.60335921744E+02  0.65493587784E+02  0.00000000000E+00 0.  1.
         11    1    3    3    0    0  0.72939853992E+02  0.60212662129E+01 -0.89169257175E+01  0.73729163236E+02  0.00000000000E+00 0. -1.
</event>
<event>
 7    1  0.4274778E-006  0.1223496E+03  0.7561462E-02  0.1239270E+00
          3   -1    0    0  501    0  0.00000000000E+00  0.00000000000E+00  0.42977757409E+02  0.42977757409E+02  0.00000000000E+00 0. -1.
         -3   -1    0    0    0  501 -0.00000000000E+00 -0.00000000000E+00 -0.60392751506E+03  0.60392751506E+03  0.00000000000E+00 0.  1.
         23    2    1    2    0    0 -0.67854369445E+02 -0.78557638536E+02 -0.17334434068E+03  0.22659803208E+03  0.10258113702E+03 0.  0.
          5    1    1    2  502    0  0.73320269925E+02  0.93532278984E+02 -0.20526985596E+03  0.23722844551E+03  0.41800000000E+01 0. -1.
         -5    1    1    2    0  502 -0.54659004793E+01 -0.14974640448E+02 -0.18233556101E+03  0.18307879487E+03  0.41800000000E+01 0. -1.
        -11    1    3    3    0    0 -0.12497777660E+02  0.82270176896E+00  0.12103564165E+02  0.17417449587E+02  0.00000000000E+00 0. -1.
         11    1    3    3    0    0 -0.55356591786E+02 -0.79380340305E+02 -0.18544790485E+03  0.20918058250E+03  0.00000000000E+00 0.  1.
</event>
<event>
 7    1  0.4274778E-006  0.4335774E+03  0.7561462E-02  0.1032736E+00
         -2   -1    0    0    0  501 -0.00000000000E+00  0.00000000000E+00  0.97372794281E+03  0.97372794281E+03  0.00000000000E+00 0.  1.
          2   -1    0    0  501    0  0.00000000000E+00 -0.00000000000E+00 -0.22125031925E+03  0.22125031925E+03  0.00000000000E+00 0. -1.
         23    2    1    2    0    0 -0.42186828321E+03  0.13003446817E+02  0.16569906597E+03  0.46142530234E+03  0.85528890836E+02 0.  0.
          5    1    1    2  502    0  0.37158722919E+03 -0.48623564767E+02  0.46699730499E+03  0.59878650220E+03  0.41800000000E+01 0. -1.
         -5    1    1    2    0  502  0.50281054023E+02  0.35620117951E+02  0.11978125260E+03  0.13476645751E+03  0.41800000000E+01 0. -1.
        -11    1    3    3    0    0 -0.70076625030E+02  0.34616502324E+02  0.32253978003E+02  0.84553856835E+02  0.00000000000E+00 0.  1.
         11    1    3    3    0    0 -0.35179165818E+03 -0.21613055507E+02  0.13344508796E+03  0.37687144550E+03  0.00000000000E+00 0. -1.
</event>
<event>
 7    1  0.4274778E-006  0.1438172E+03  0.7561462E-02  0.1208283E+00
          2   -1    0    0  501    0  0.00000000000E+00  0.00000000000E+00  0.41572683578E+03  0.41572683578E+03  0.00000000000E+00 0. -1.
         -2   -1    0    0    0  501 -0.00000000000E+00 -0.00000000000E+00 -0.61837825276E+02  0.61837825276E+02  0.00000000000E+00 0.  1.
         23    2    1    2    0    0 -0.10642268150E+03  0.40122876705E+02  0.20742225062E+03  0.25387409995E+03  0.92154414980E+02 0.  0.
          5    1    1    2  502    0 -0.18463756348E+02 -0.14587992113E+02  0.72315496387E+02  0.76162479149E+02  0.41800000000E+01 0. -1.
         -5    1    1    2    0  502  0.12488643784E+03 -0.25534884592E+02  0.74151263501E+02  0.14752808196E+03  0.41800000000E+01 0. -1.
        -11    1    3    3    0    0  0.11357605529E+02  0.86696005632E+01  0.64308129387E+02  0.65876343876E+02  0.00000000000E+00 0. -1.
         11    1    3    3    0    0 -0.11778028703E+03  0.31453276142E+02  0.14311412123E+03  0.18799775607E+03  0.00000000000E+00 0.  1.
</event>
<event>
 7    1  0.4274778E-006  0.1145767E+03  0.7561462E-02  0.1252322E+00
          2   -1    0    0  501    0  0.00000000000E+00  0.00000000000E+00  0.37250937173E+02  0.37250937173E+02  0.00000000000E+00 0. -1.
         -2   -1    0    0    0  501 -0.00000000000E+00 -0.00000000000E+00 -0.42113247200E+03  0.42113247200E+03  0.00000000000E+00 0.  1.
         23    2    1    2    0    0 -0.12713619157E+02 -0.57627304052E+02 -0.12357664705E+03  0.16362171873E+03  0.89545166593E+02 0.  0.
          5    1    1    2  502    0  0.24900691627E+02  0.86604670675E+02 -0.11565536259E+03  0.14667668091E+03  0.41800000000E+01 0.  1.
         -5    1    1    2    0  502 -0.12187072469E+02 -0.28977366623E+02 -0.14464952519E+03  0.14808500953E+03  0.41800000000E+01 0.  1.
        -11    1    3    3    0    0  0.22809350750E+02 -0.66762910616E+02 -0.82438689697E+02  0.10850663701E+03  0.00000000000E+00 0. -1.
         11    1    3    3    0    0 -0.35522969908E+02  0.91356065639E+01 -0.41137957354E+02  0.55115081725E+02  0.00000000000E+00 0.  1.
</event>
<event>
 7    1  0.4274778E-006  0.9192340E+02  0.7561462E-02  0.1298260E+00
         -2   -1    0    0    0  501 -0.00000000000E+00  0.00000000000E+00  0.83245147493E+02  0.83245147493E+02  0.00000000000E+00 0.  1.
          2   -1    0    0  501    0  0.00000000000E+00 -0.00000000000E+00 -0.14658790371E+03  0.14658790371E+03  0.00000000000E+00 0. -1.
         23    2    1    2    0    0 -0.86941449092E+01 -0.15291001526E+02 -0.35839837193E+02  0.10055182726E+03  0.92286364926E+02 0.  0.
          5    1    1    2  502    0  0.65866428025E+02  0.26395665322E+00 -0.61314691003E+01  0.66283658070E+02  0.41800000000E+01 0.  1.
         -5    1    1    2    0  502 -0.57172283115E+02  0.15027044873E+02 -0.21371449923E+02  0.62997565874E+02  0.41800000000E+01 0.  1.
        -11    1    3    3    0    0 -0.31000410740E+02  0.91482144861E+00  0.20947210752E+02  0.37425232165E+02  0.00000000000E+00 0.  1.
         11    1    3    3    0    0  0.22306265831E+02 -0.16205822975E+02 -0.56787047944E+02  0.63126595091E+02  0.00000000000E+00 0. -1.
</event>
<event>
 7    1  0.4274778E-006  0.1438043E+03  0.7561462E-02  0.1208300E+00
         -1   -1    0    0    0  501 -0.00000000000E+00  0.00000000000E+00  0.33300432122E+03  0.33300432122E+03  0.00000000000E+00 0.  1.
          1   -1    0    0  501    0  0.00000000000E+00 -0.00000000000E+00 -0.10587819888E+03  0.10587819888E+03  0.00000000000E+00 0. -1.
         23    2    1    2    0    0 -0.68611809694E+02 -0.12403049538E+03  0.28520382696E+02  0.16468835148E+03  0.78852372655E+02 0.  0.
          5    1    1    2  502    0  0.19209272421E+02  0.67704266691E+02  0.99961738650E+01  0.71205756558E+02  0.41800000000E+01 0. -1.
         -5    1    1    2    0  502  0.49402537273E+02  0.56326228684E+02  0.18860956578E+03  0.20298841206E+03  0.41800000000E+01 0. -1.
        -11    1    3    3    0    0 -0.49398467381E+02 -0.97656382486E+02  0.55169281738E+02  0.12255866868E+03  0.00000000000E+00 0.  1.
         11    1    3    3    0    0 -0.19213342313E+02 -0.26374112889E+02 -0.26648899042E+02  0.42129682810E+02  0.00000000000E+00 0. -1.
</event>
<event>
 7    1  0.4274778E-006  0.1188896E+03  0.7561462E-02  0.1244940E+00
          1   -1    0    0  501    0  0.00000000000E+00  0.00000000000E+00  0.63417581613E+03  0.63417581613E+03  0.00000000000E+00 0. -1.
         -1   -1    0    0    0  501 -0.00000000000E+00 -0.00000000000E+00 -0.93561736328E+02  0.93561736328E+02  0.00000000000E+00 0.  1.
         23    2    1    2    0    0  0.25126260455E+02 -0.76095609992E+02  0.56368859420E+03  0.57739415425E+03  0.96006808628E+02 0.  0.
          5    1    1    2  502    0 -0.31794422837E+02 -0.15406078370E+02 -0.43564795290E+02  0.56245856407E+02  0.41800000000E+01 0.  1.
         -5    1    1    2    0  502  0.66681623815E+01  0.91501688362E+02  0.20490280893E+02  0.94097541805E+02  0.41800000000E+01 0.  1.
        -11    1    3    3    0    0  0.36195911539E+02 -0.87364905631E+02  0.54396851511E+03  0.55212726448E+03  0.00000000000E+00 0. -1.
         11    1    3    3    0    0 -0.11069651084E+02  0.11269295639E+02  0.19720079089E+02  0.25266889769E+02  0.00000000000E+00 0.  1.
</event>
<event>
 7    1  0.4274778E-006  0.2398449E+03  0.7561462E-02  0.1119896E+00
         -1   -1    0    0    0  501 -0.00000000000E+00  0.00000000000E+00  0.84333437177E+02  0.84333437177E+02  0.00000000000E+00 0.  1.
          1   -1    0    0  501    0  0.00000000000E+00 -0.00000000000E+00 -0.77594772414E+03  0.77594772414E+03  0.00000000000E+00 0. -1.
         23    2    1    2    0    0  0.20664629927E+03  0.55734053640E+02 -0.19011146826E+03  0.30084966122E+03  0.92515785428E+02 0.  0.
          5    1    1    2  502    0  0.13121880033E+02 -0.20881193705E+02 -0.42361818760E+02  0.49195569667E+02  0.41800000000E+01 0.  1.
         -5    1    1    2    0  502 -0.21976817930E+03 -0.34852859935E+02 -0.45914099994E+03  0.51023593043E+03  0.41800000000E+01 0.  1.
        -11    1    3    3    0    0  0.15605999201E+03 -0.10632591189E+01 -0.11414624694E+03  0.19335257256E+03  0.00000000000E+00 0. -1.
         11    1    3    3    0    0  0.50586307257E+02  0.56797312759E+02 -0.75965221322E+02  0.10749708865E+03  0.00000000000E+00 0.  1.
</event>
<event>
 7    1  0.4274778E-006  0.9951688E+02  0.7561462E-02  0.1281315E+00
         -1   -1    0    0    0  501 -0.00000000000E+00  0.00000000000E+00  0.17350031617E+02  0.17350031617E+02  0.00000000000E+00 0.  1.
          1   -1    0    0  501    0  0.00000000000E+00 -0.00000000000E+00 -0.95262930606E+03  0.95262930606E+03  0.00000000000E+00 0. -1.
         23    2    1    2    0    0  0.10477844643E+02  0.59829472705E+02 -0.52125313620E+03  0.53322659887E+03  0.94532654211E+02 0.  0.
          5    1    1    2  502    0  0.20579815274E+02 -0.50698472467E+02 -0.39536274320E+03  0.39915289679E+03  0.41800000000E+01 0.  1.
         -5    1    1    2    0  502 -0.31057659916E+02 -0.91310002380E+01 -0.18663395040E+02  0.37599842011E+02  0.41800000000E+01 0.  1.
        -11    1    3    3    0    0 -0.37555048404E+02  0.49926236446E+02 -0.25910037566E+03  0.26652582504E+03  0.00000000000E+00 0.  1.
         11    1    3    3    0    0  0.48032893047E+02  0.99032362587E+01 -0.26215276054E+03  0.26670077383E+03  0.00000000000E+00 0. -1.
</event>
<event>
 7    1  0.4274778E-006  0.9065118E+02  0.7561462E-02  0.1301282E+00
          2   -1    0    0  501    0  0.00000000000E+00  0.00000000000E+00  0.50473748008E+02  0.50473748008E+02  0.00000000000E+00 0. -1.
         -2   -1    0    0    0  501 -0.00000000000E+00 -0.00000000000E+00 -0.46276625519E+03  0.46276625519E+03  0.00000000000E+00 0.  1.
         23    2    1    2    0    0  0.62598675450E+02 -0.38000412517E+02 -0.57659950424E+02  0.13012604298E+03  0.90804689629E+02 0.  0.
          5    1    1    2  502    0 -0.38905449618E+02 -0.47766402276E+01 -0.18727109388E+02  0.43642036248E+02  0.41800000000E+01 0.  1.
         -5    1    1    2    0  502 -0.23693225832E+02  0.42777052744E+02 -0.33590544738E+03  0.33947192398E+03  0.41800000000E+01 0.  1.
        -11    1    3    3    0    0  0.15421168788E+02 -0.42693730215E+02 -0.67848509482E+02  0.81633248652E+02  0.00000000000E+00 0.  1.
         11    1    3    3    0    0  0.47177506662E+02  0.46933176982E+01  0.10188559058E+02  0.48492794326E+02  0.00000000000E+00 0. -1.
</event>
<event>
 7    1  0.4274778E-006  0.6495394E+02  0.7561462E-02  0.1378145E+00
          2   -1    0    0  501    0  0.00000000000E+00  0.00000000000E+00  0.31908921245E+03  0.31908921245E+03  0.00000000000E+00 0. -1.
         -2   -1    0    0    0  501 -0.00000000000E+00 -0.00000000000E+00 -0.38759258083E+02  0.38759258083E+02  0.00000000000E+00 0.  1.
         23    2    1    2    0    0  0.24946532515E+02 -0.47165830016E+01  0.12910953053E+03  0.15996014941E+03  0.90958248039E+02 0.  0.
          5    1    1    2  502    0  0.56235997406E+01  0.98373158411E+01  0.16375038751E+03  0.16419518710E+03  0.41800000000E+01 0.  1.
         -5    1    1    2    0  502 -0.30570132255E+02 -0.51207328395E+01 -0.12529963669E+02  0.33693134026E+02  0.41800000000E+01 0.  1.
        -11    1    3    3    0    0  0.15567485474E+02  0.38921317888E+02  0.30879470057E+02  0.52064933123E+02  0.00000000000E+00 0.  1.
         11    1    3    3    0    0  0.93790470413E+01 -0.43637900890E+02  0.98230060468E+02  0.10789521628E+03  0.00000000000E+00 0. -1.
</event>
<event>
 7    1  0.4274778E-006  0.1652594E+03  0.7561462E-02  0.1182884E+00
         -1   -1    0    0    0  501 -0.00000000000E+00  0.00000000000E+00  0.34914179489E+02  0.34914179489E+02  0.00000000000E+00 0.  1.
          1   -1    0    0  501    0  0.00000000000E+00 -0.00000000000E+00 -0.10903446656E+04  0.10903446656E+04  0.00000000000E+00 0. -1.
         23    2    1    2    0    0  0.14403280753E+03  0.11286366751E+02 -0.71293763044E+03  0.73305767058E+03  0.90667810025E+02 0.  0.
          5    1    1    2  502    0 -0.13467168404E+03 -0.39690733508E+02 -0.33155999838E+03  0.36008515900E+03  0.41800000000E+01 0.  1.
         -5    1    1    2    0  502 -0.93611234895E+01  0.28404366757E+02 -0.10932857292E+02  0.32116015513E+02  0.41800000000E+01 0.  1.
        -11    1    3    3    0    0  0.51992535969E+02  0.37563196821E+02 -0.16900887820E+03  0.18077117708E+03  0.00000000000E+00 0.  1.
         11    1    3    3    0    0  0.92040271557E+02 -0.26276830070E+02 -0.54392875224E+03  0.55228649349E+03  0.00000000000E+00 0. -1.
</event>
<event>
 7    1  0.4274778E-006  0.9322869E+02  0.7561462E-02  0.1295216E+00
         -1   -1    0    0    0  501 -0.00000000000E+00  0.00000000000E+00  0.27524330193E+03  0.27524330193E+03  0.00000000000E+00 0.  1.
          1   -1    0    0  501    0  0.00000000000E+00 -0.00000000000E+00 -0.69309421214E+02  0.69309421214E+02  0.00000000000E+00 0. -1.
         23    2    1    2    0    0 -0.25601133897E+02 -0.21454670959E+02 -0.54568568017E+01  0.96658386439E+02  0.90539192729E+02 0.  0.
          5    1    1    2  502    0 -0.30779749645E+00  0.61724128376E+02  0.50143452915E+02  0.79635425743E+02  0.41800000000E+01 0.  1.
         -5    1    1    2    0  502  0.25908931394E+02 -0.40269457416E+02  0.16124728460E+03  0.16825891096E+03  0.41800000000E+01 0.  1.
        -11    1    3    3    0    0  0.21126594262E+02 -0.21009615904E+02 -0.31337043253E+02  0.43240573833E+02  0.00000000000E+00 0. -1.
         11    1    3    3    0    0 -0.46727728159E+02 -0.44505505548E+00  0.25880186451E+02  0.53417812606E+02  0.00000000000E+00 0.  1.
</event>
<event>
 7    1  0.4274778E-006  0.1153921E+03  0.7561462E-02  0.1250898E+00
         -1   -1    0    0    0  501 -0.00000000000E+00  0.00000000000E+00  0.11260538391E+03  0.11260538391E+03  0.00000000000E+00 0.  1.
          1   -1    0    0  501    0  0.00000000000E+00 -0.00000000000E+00 -0.17759259970E+03  0.17759259970E+03  0.00000000000E+00 0. -1.
         23    2    1    2    0    0 -0.22008195296E+01  0.87958413457E+02 -0.48224020193E+02  0.13634520137E+03  0.92319725458E+02 0.  0.
          5    1    1    2  502    0 -0.30127267280E+02 -0.12546216462E+02 -0.54329538699E+02  0.63515596168E+02  0.41800000000E+01 0.  1.
         -5    1    1    2    0  502  0.32328086810E+02 -0.75412196994E+02  0.37566343109E+02  0.90337186069E+02  0.41800000000E+01 0.  1.
        -11    1    3    3    0    0  0.33396991513E+02  0.19782240127E+02 -0.44915013232E+02  0.59363747188E+02  0.00000000000E+00 0.  1.
         11    1    3    3    0    0 -0.35597811043E+02  0.68176173330E+02 -0.33090069614E+01  0.76981454182E+02  0.00000000000E+00 0. -1.
</event>
<event>
 7    1  0.4274778E-006  0.1055637E+03  0.7561462E-02  0.1269013E+00
         -2   -1    0    0    0  501 -0.00000000000E+00  0.00000000000E+00  0.32507144910E+03  0.32507144910E+03  0.00000000000E+00 0.  1.
          2   -1    0    0  501    0  0.00000000000E+00 -0.00000000000E+00 -0.43258072715E+02  0.43258072715E+02  0.00000000000E+00 0. -1.
         23    2    1    2    0    0 -0.66260233151E-01  0.48193222341E+02  0.11613841190E+03  0.15521437130E+03  0.90998787198E+02 0.  0.
          5    1    1    2  502    0  0.42364216903E+02 -0.50307732564E+02  0.15617637372E+03  0.16951143601E+03  0.41800000000E+01 0.  1.
         -5    1    1    2    0  502 -0.42297956670E+02  0.21145102231E+01  0.94985907695E+01  0.43603714504E+02  0.41800000000E+01 0.  1.
        -11    1    3    3    0    0  0.38020652885E+02  0.51972563715E+02  0.78517315529E+02  0.10154647341E+03  0.00000000000E+00 0.  1.
         11    1    3    3    0    0 -0.38086913118E+02 -0.37793413737E+01  0.37621096369E+02  0.53667897891E+02  0.00000000000E+00 0. -1.
</event>
<event>
 7    1  0.4274778E-006  0.1452740E+03  0.7561462E-02  0.1206404E+00
         -2   -1    0    0    0  501 -0.00000000000E+00  0.00000000000E+00  0.60630027322E+02  0.60630027322E+02  0.00000000000E+00 0.  1.
          2   -1    0    0  501    0  0.00000000000E+00 -0.00000000000E+00 -0.38013124366E+03  0.38013124366E+03  0.00000000000E+00 0. -1.
         23    2    1    2    0    0 -0.91681867002E+02  0.46541845204E+02 -0.19762251888E+03  0.23809684664E+03  0.84046060718E+02 0.  0.
          5    1    1    2  502    0  0.49262667846E+02  0.39615447281E+02 -0.65965027218E+02  0.91460654505E+02  0.41800000000E+01 0. -1.
         -5    1    1    2    0  502  0.42419199155E+02 -0.86157292486E+02 -0.55913670247E+02  0.11120376984E+03  0.41800000000E+01 0. -1.
        -11    1    3    3    0    0 -0.10452788919E+03  0.27473507731E+02 -0.17599711108E+03  0.20653294254E+03  0.00000000000E+00 0. -1.
         11    1    3    3    0    0  0.12846022185E+02  0.19068337473E+02 -0.21625407799E+02  0.31563904106E+02  0.00000000000E+00 0.  1.
</event>
<event>
 7    1  0.4274778E-006  0.1031111E+03  0.7561462E-02  0.1273886E+00
          1   -1    0    0  501    0  0.00000000000E+00  0.00000000000E+00  0.36908878101E+02  0.36908878101E+02  0.00000000000E+00 0. -1.
         -1   -1    0    0    0  501 -0.00000000000E+00 -0.00000000000E+00 -0.39211140462E+03  0.39211140462E+03  0.00000000000E+00 0.  1.
         23    2    1    2    0    0  0.13390804234E+02  0.23782986916E+02 -0.77793388616E+02  0.12349107035E+03  0.91941769826E+02 0.  0.
          5    1    1    2  502    0 -0.18015068126E+02 -0.65692254522E+02 -0.87587500220E+02  0.11103628947E+03  0.41800000000E+01 0.  1.
         -5    1    1    2    0  502  0.46242638922E+01  0.41909267606E+02 -0.18982163768E+03  0.19449292290E+03  0.41800000000E+01 0.  1.
        -11    1    3    3    0    0 -0.39357413183E+02  0.15065953323E+02 -0.29463405917E+02  0.51420630201E+02  0.00000000000E+00 0.  1.
         11    1    3    3    0    0  0.52748217418E+02  0.87170335929E+01 -0.48329982699E+02  0.72070440148E+02  0.00000000000E+00 0. -1.
</event>
<event>
 7    1  0.4274778E-006  0.1579671E+03  0.7561462E-02  0.1191011E+00
         -1   -1    0    0    0  501 -0.00000000000E+00  0.00000000000E+00  0.66855714557E+02  0.66855714557E+02  0.00000000000E+00 0.  1.
          1   -1    0    0  501    0  0.00000000000E+00 -0.00000000000E+00 -0.47029367183E+03  0.47029367183E+03  0.00000000000E+00 0. -1.
         23    2    1    2    0    0 -0.45285992335E+01  0.13437351383E+03 -0.24707062239E+03  0.29595421245E+03  0.92023116597E+02 0.  0.
          5    1    1    2  502    0  0.23532713301E+02 -0.15178428667E+03 -0.14907202579E+03  0.21408456168E+03  0.41800000000E+01 0. -1.
         -5    1    1    2    0  502 -0.19004114068E+02  0.17410772837E+02 -0.72953090909E+01  0.27110612258E+02  0.41800000000E+01 0. -1.
        -11    1    3    3    0    0  0.87552877366E+01  0.53989578669E+02 -0.18671126233E+03  0.19455751116E+03  0.00000000000E+00 0. -1.
         11    1    3    3    0    0 -0.13283886970E+02  0.80383935164E+02 -0.60359360057E+02  0.10139670129E+03  0.00000000000E+00 0.  1.
</event>
<event>
 7    1  0.4274778E-006  0.8370097E+02  0.7561462E-02  0.1318865E+00
         -1   -1    0    0    0  501 -0.00000000000E+00  0.00000000000E+00  0.71914803045E+02  0.71914803045E+02  0.00000000000E+00 0.  1.
          1   -1    0    0  501    0  0.00000000000E+00 -0.00000000000E+00 -0.26161023381E+03  0.26161023381E+03  0.00000000000E+00 0. -1.
         23    2    1    2    0    0  0.19352961771E+02 -0.37497820154E+02 -0.17401678105E+03  0.20057085444E+03  0.90367051081E+02 0.  0.
          5    1    1    2  502    0  0.51784273874E+00  0.65340788878E+02 -0.51458697135E+02  0.83277588601E+02  0.41800000000E+01 0.  1.
         -5    1    1    2    0  502 -0.19870804510E+02 -0.27842968724E+02  0.35780047418E+02  0.49676593809E+02  0.41800000000E+01 0.  1.
        -11    1    3    3    0    0 -0.16238250843E+02 -0.67421098010E+00  0.27958123672E+01  0.16490964729E+02  0.00000000000E+00 0.  1.
         11    1    3    3    0    0  0.35591212614E+02 -0.36823609174E+02 -0.17681259341E+03  0.18407988972E+03  0.00000000000E+00 0. -1.
</event>
<event>
 7    1  0.4274778E-006  0.2143139E+03  0.7561462E-02  0.1138195E+00
          2   -1    0    0  501    0  0.00000000000E+00  0.00000000000E+00  0.60125430467E+03  0.60125430467E+03  0.00000000000E+00 0. -1.
         -2   -1    0    0    0  501 -0.00000000000E+00 -0.00000000000E+00 -0.10532078147E+03  0.10532078147E+03  0.00000000000E+00 0.  1.
         23    2    1    2    0    0 -0.18938678200E+03  0.61521258727E+02  0.39267059217E+03  0.44975093988E+03  0.91834064986E+02 0.  0.
          5    1    1    2  502    0  0.67619330406E+02  0.10738836294E+02 -0.17374503475E+02  0.70760456616E+02  0.41800000000E+01 0.  1.
         -5    1    1    2    0  502  0.12176745160E+03 -0.72260095021E+02  0.12063743450E+03  0.18606368964E+03  0.41800000000E+01 0.  1.
        -11    1    3    3    0    0 -0.13718519906E+03 -0.66390758004E+00  0.26601367629E+03  0.29930502099E+03  0.00000000000E+00 0.  1.
         11    1    3    3    0    0 -0.52201582942E+02  0.62185166307E+02  0.12665691588E+03  0.15044591889E+03  0.00000000000E+00 0. -1.
</event>
<event>
 7    1  0.4274778E-006  0.1054829E+03  0.7561462E-02  0.1269171E+00
         -1   -1    0    0    0  501 -0.00000000000E+00  0.00000000000E+00  0.33283002215E+02  0.33283002215E+02  0.00000000000E+00 0.  1.
          1   -1    0    0  501    0  0.00000000000E+00 -0.00000000000E+00 -0.36327725004E+03  0.36327725004E+03  0.00000000000E+00 0. -1.
         23    2    1    2    0    0  0.16374781089E+02  0.11427244242E+02 -0.15233428925E+03  0.17836480013E+03  0.90606571923E+02 0.  0.
          5    1    1    2  502    0  0.52362100289E+02  0.56604517478E+01 -0.99340509385E+02  0.11251595205E+03  0.41800000000E+01 0.  1.
         -5    1    1    2    0  502 -0.68736881378E+02 -0.17087695989E+02 -0.78319449186E+02  0.10567950008E+03  0.41800000000E+01 0.  1.
        -11    1    3    3    0    0  0.22926691939E+01 -0.36834906219E+02 -0.96050605372E+02  0.10289696517E+03  0.00000000000E+00 0. -1.
         11    1    3    3    0    0  0.14082111896E+02  0.48262150460E+02 -0.56283683880E+02  0.75467834960E+02  0.00000000000E+00 0.  1.
</event>
<event>
 7    1  0.4274778E-006  0.8751880E+02  0.7561462E-02  0.1308974E+00
          1   -1    0    0  501    0  0.00000000000E+00  0.00000000000E+00  0.13477283888E+03  0.13477283888E+03  0.00000000000E+00 0. -1.
         -1   -1    0    0    0  501 -0.00000000000E+00 -0.00000000000E+00 -0.11643316376E+03  0.11643316376E+03  0.00000000000E+00 0.  1.
         23    2    1    2    0    0  0.49436177760E+02 -0.29389772243E+02  0.32440711798E+02  0.11282173283E+03  0.91480321566E+02 0.  0.
          5    1    1    2  502    0 -0.55690050513E+01 -0.79834324919E+01 -0.62266660283E+02  0.63161367895E+02  0.41800000000E+01 0.  1.
         -5    1    1    2    0  502 -0.43867172709E+02  0.37373204734E+02  0.48165623609E+02  0.75222901906E+02  0.41800000000E+01 0.  1.
        -11    1    3    3    0    0  0.27515666407E+01 -0.53876801681E+02  0.25431494938E+02  0.59640940747E+02  0.00000000000E+00 0.  1.
         11    1    3    3    0    0  0.46684611119E+02  0.24487029439E+02  0.70092168591E+01  0.53180792088E+02  0.00000000000E+00 0. -1.
</event>
<event>
 7    1  0.4274778E-006  0.1684054E+03  0.7561462E-02  0.1179521E+00
         -2   -1    0    0    0  501 -0.00000000000E+00  0.00000000000E+00  0.24688169225E+02  0.24688169225E+02  0.00000000000E+00 0.  1.
          2   -1    0    0  501    0  0.00000000000E+00 -0.00000000000E+00 -0.13234188734E+04  0.13234188734E+04  0.00000000000E+00 0. -1.
         23    2    1    2    0    0 -0.14080514039E+03  0.15068997424E+02 -0.73074472939E+03  0.74951865750E+03  0.87961333353E+02 0.  0.
          5    1    1    2  502    0 -0.12313268339E+02 -0.17003177328E+02 -0.18970565345E+02  0.28602086741E+02  0.41800000000E+01 0. -1.
         -5    1    1    2    0  502  0.15311840873E+03  0.19341799041E+01 -0.54901540942E+03  0.56998629837E+03  0.41800000000E+01 0. -1.
        -11    1    3    3    0    0 -0.64447957448E+02 -0.32578029847E+02 -0.41329905852E+03  0.41956045931E+03  0.00000000000E+00 0. -1.
         11    1    3    3    0    0 -0.76357182942E+02  0.47647027271E+02 -0.31744567088E+03  0.32995819819E+03  0.00000000000E+00 0.  1.
</event>
<event>
 7    1  0.4274778E-006  0.7528971E+02  0.7561462E-02  0.1342976E+00
         -2   -1    0    0    0  501 -0.00000000000E+00  0.00000000000E+00  0.55971411188E+02  0.55971411188E+02  0.00000000000E+00 0.  1.
          2   -1    0    0  501    0  0.00000000000E+00 -0.00000000000E+00 -0.22760900708E+03  0.22760900708E+03  0.00000000000E+00 0. -1.
         23    2    1    2    0    0 -0.96699471967E+01  0.30115163822E+02 -0.77431954650E+02  0.12382158399E+03  0.91299759525E+02 0.  0.
          5    1    1    2  502    0 -0.13907303942E+02  0.11499417823E+02 -0.10818020033E+03  0.10975462568E+03  0.41800000000E+01 0.  1.
         -5    1    1    2    0  502  0.23577251138E+02 -0.41614581645E+02  0.13974559088E+02  0.50004208607E+02  0.41800000000E+01 0.  1.
        -11    1    3    3    0    0  0.33937782876E+02  0.68640857405E+01 -0.63745573981E+02  0.72542311665E+02  0.00000000000E+00 0. -1.
         11    1    3    3    0    0 -0.43607730073E+02  0.23251078082E+02 -0.13686380670E+02  0.51279272322E+02  0.00000000000E+00 0.  1.
</event>
<event>
 7    1  0.5660046E-006  0.3756510E+03  0.7561462E-02  0.1052553E+00
          2   -1    0    0  501    0  0.00000000000E+00  0.00000000000E+00  0.32403363920E+03  0.32403363920E+03  0.00000000000E+00 0. -1.
         -2   -1    0    0    0  501 -0.00000000000E+00 -0.00000000000E+00 -0.48494869511E+03  0.48494869511E+03  0.00000000000E+00 0.  1.
         23    2    1    2    0    0 -0.19203704348E+03  0.31063292018E+03  0.30645735041E+02  0.37803700598E+03  0.92745779638E+02 0.  0.
          5    1    1    2  502    0  0.73471550239E+02 -0.20786627876E+03 -0.66686143203E+02  0.23037137981E+03  0.41800000000E+01 0.  1.
         -5    1    1    2    0  502  0.11856549324E+03 -0.10276664142E+03 -0.12487464774E+03  0.20057394852E+03  0.41800000000E+01 0.  1.
        -11    1    3    3    0    0 -0.11360947064E+03  0.25032804767E+03  0.15192598302E+01  0.27490644121E+03  0.00000000000E+00 0.  1.
         11    1    3    3    0    0 -0.78427572839E+02  0.60304872513E+02  0.29126475210E+02  0.10313056476E+03  0.00000000000E+00 0. -1.
</event>
<event>
 7    1  0.4274778E-006  0.2559256E+03  0.7561462E-02  0.1109616E+00
         -2   -1    0    0    0  501 -0.00000000000E+00  0.00000000000E+00  0.52325226773E+03  0.52325226773E+03  0.00000000000E+00 0.  1.
          2   -1    0    0  501    0  0.00000000000E+00 -0.00000000000E+00 -0.13383173810E+03  0.13383173810E+03  0.00000000000E+00 0. -1.
         23    2    1    2    0    0  0.24070728977E+03  0.61502961655E+01  0.19143552400E+03  0.32119224379E+03  0.92407100025E+02 0.  0.
          5    1    1    2  502    0 -0.25378879188E+03 -0.63300455403E+01  0.17254834025E+03  0.30698407529E+03  0.41800000000E+01 0. -1.
         -5    1    1    2    0  502  0.13081502115E+02  0.17974937481E+00  0.25436665376E+02  0.28907686744E+02  0.41800000000E+01 0. -1.
        -11    1    3    3    0    0  0.14502957066E+03 -0.16287317419E+02  0.61724595611E+02  0.15845749833E+03  0.00000000000E+00 0. -1.
         11    1    3    3    0    0  0.95677719104E+02  0.22437613584E+02  0.12971092839E+03  0.16273474546E+03  0.00000000000E+00 0.  1.
</event>
<event>
 7    1  0.4274778E-006  0.8838728E+02  0.7561462E-02  0.1306805E+00
         -1   -1    0    0    0  501 -0.00000000000E+00  0.00000000000E+00  0.10117816789E+03  0.10117816789E+03  0.00000000000E+00 0.  1.
          1   -1    0    0  501    0  0.00000000000E+00 -0.00000000000E+00 -0.19995729625E+03  0.19995729625E+03  0.00000000000E+00 0. -1.
         23    2    1    2    0    0 -0.32866007045E+02 -0.27878065430E+02 -0.12252157431E+03  0.16659468294E+03  0.10433068226E+03 0.  0.
          5    1    1    2  502    0  0.58733867929E+02  0.99845722943E+01  0.61158465971E+02  0.85482099212E+02  0.41800000000E+01 0.  1.
         -5    1    1    2    0  502 -0.25867860884E+02  0.17893493136E+02 -0.37416020021E+02  0.49058681980E+02  0.41800000000E+01 0.  1.
        -11    1    3    3    0    0 -0.56410814198E+02 -0.14512610861E+02 -0.21630777773E+02  0.62134421857E+02  0.00000000000E+00 0.  1.
         11    1    3    3    0    0  0.23544807153E+02 -0.13365454569E+02 -0.10089079654E+03  0.10446026109E+03  0.00000000000E+00 0. -1.
</event>
<event>
 7    1  0.4274778E-006  0.9977543E+02  0.7561462E-02  0.1280769E+00
         -2   -1    0    0    0  501 -0.00000000000E+00  0.00000000000E+00  0.27161315359E+03  0.27161315359E+03  0.00000000000E+00 0.  1.
          2   -1    0    0  501    0  0.00000000000E+00 -0.00000000000E+00 -0.66619159843E+02  0.66619159843E+02  0.00000000000E+00 0. -1.
         23    2    1    2    0    0  0.50012305451E+02  0.27229177980E+02  0.23765541178E+02  0.11078301283E+03  0.92007696165E+02 0.  0.
          5    1    1    2  502    0 -0.18421570355E+02 -0.69101276185E+02  0.53815306701E+02  0.89598550546E+02  0.41800000000E+01 0.  1.
         -5    1    1    2    0  502 -0.31590735097E+02  0.41872098205E+02  0.12741314587E+03  0.13785075006E+03  0.41800000000E+01 0.  1.
        -11    1    3    3    0    0  0.51970027913E+02  0.37979353302E+02  0.50556690669E+02  0.81849215328E+02  0.00000000000E+00 0.  1.
         11    1    3    3    0    0 -0.19577224615E+01 -0.10750175321E+02 -0.26791149491E+02  0.28933797499E+02  0.00000000000E+00 0. -1.
</event>
<event>
 7    1  0.4274778E-006  0.1204905E+03  0.7561462E-02  0.1242290E+00
         -1   -1    0    0    0  501 -0.00000000000E+00  0.00000000000E+00  0.58291780289E+02  0.58291780289E+02  0.00000000000E+00 0.  1.
          1   -1    0    0  501    0  0.00000000000E+00 -0.00000000000E+00 -0.31464458160E+03  0.31464458160E+03  0.00000000000E+00 0. -1.
         23    2    1    2    0    0 -0.49163566068E+02  0.52377243266E+02 -0.16603223976E+03  0.20274541632E+03  0.91534514572E+02 0.  0.
          5    1    1    2  502    0  0.89529189167E+02 -0.18826489961E+02 -0.56403337967E+02  0.10755799074E+03  0.41800000000E+01 0.  1.
         -5    1    1    2    0  502 -0.40365623099E+02 -0.33550753306E+02 -0.33917223581E+02  0.62632954832E+02  0.41800000000E+01 0.  1.
        -11    1    3    3    0    0 -0.21443050752E+02  0.63387794645E+02 -0.51630753980E+02  0.84519534382E+02  0.00000000000E+00 0.  1.
         11    1    3    3    0    0 -0.27720515315E+02 -0.11010551379E+02 -0.11440148578E+03  0.11822588194E+03  0.00000000000E+00 0. -1.
</event>
<event>
 7    1  0.4274778E-006  0.1161278E+03  0.7561462E-02  0.1249625E+00
         -4   -1    0    0    0  501 -0.00000000000E+00  0.00000000000E+00  0.85661995347E+03  0.85661995347E+03  0.00000000000E+00 0.  1.
          4   -1    0    0  501    0  0.00000000000E+00 -0.00000000000E+00 -0.32214515387E+02  0.32214515387E+02  0.00000000000E+00 0. -1.
         23    2    1    2    0    0  0.16409334240E+02 -0.11311688736E+03  0.25324984552E+03  0.29307411108E+03  0.93232257689E+02 0.  0.
          5    1    1    2  502    0 -0.17883064797E+02  0.84684700215E+02  0.14706992479E+03  0.17069955371E+03  0.41800000000E+01 0. -1.
         -5    1    1    2    0  502  0.14737305569E+01  0.28432187142E+02  0.42408566778E+03  0.42506080407E+03  0.41800000000E+01 0. -1.
        -11    1    3    3    0    0 -0.11604665288E+00 -0.78165697264E+02  0.23967489843E+03  0.25209908099E+03  0.00000000000E+00 0.  1.
         11    1    3    3    0    0  0.16525380893E+02 -0.34951190093E+02  0.13574947084E+02  0.40975030090E+02  0.00000000000E+00 0. -1.
</event>
<event>
 7    1  0.4274778E-006  0.1183113E+03  0.7561462E-02  0.1245909E+00
          2   -1    0    0  501    0  0.00000000000E+00  0.00000000000E+00  0.10445261882E+04  0.10445261882E+04  0.00000000000E+00 0. -1.
         -2   -1    0    0    0  501 -0.00000000000E+00 -0.00000000000E+00 -0.13576105172E+02  0.13576105172E+02  0.00000000000E+00 0.  1.
         23    2    1    2    0    0  0.50339423548E+02 -0.46917902636E+01  0.45652237281E+03  0.46804292958E+03  0.89974644209E+02 0.  0.
          5    1    1    2  502    0 -0.47848203250E+01  0.61552436295E+02  0.27238194690E+03  0.27932238421E+03  0.41800000000E+01 0.  1.
         -5    1    1    2    0  502 -0.45554603222E+02 -0.56860646032E+02  0.30204576328E+03  0.31073697955E+03  0.41800000000E+01 0.  1.
        -11    1    3    3    0    0  0.58010354616E+02 -0.36836382649E+02  0.26948059328E+03  0.27810413604E+03  0.00000000000E+00 0.  1.
         11    1    3    3    0    0 -0.76709310689E+01  0.32144592385E+02  0.18704177953E+03  0.18993879354E+03  0.00000000000E+00 0. -1.
</event>
<event>
 7    1  0.4274778E-006  0.1052312E+03  0.7561462E-02  0.1269665E+00
         -2   -1    0    0    0  501 -0.00000000000E+00  0.00000000000E+00  0.38955664957E+03  0.38955664957E+03  0.00000000000E+00 0.  1.
          2   -1    0    0  501    0  0.00000000000E+00 -0.00000000000E+00 -0.39654358628E+02  0.39654358628E+02  0.00000000000E+00 0. -1.
         23    2    1    2    0    0 -0.23804257335E+02 -0.51089930389E+02  0.10002008957E+03  0.14673357538E+03  0.91377788178E+02 0.  0.
          5    1    1    2  502    0  0.10069283739E+02  0.89790831210E+02  0.17169992431E+03  0.19406730856E+03  0.41800000000E+01 0. -1.
         -5    1    1    2    0  502  0.13734973596E+02 -0.38700900821E+02  0.78182277056E+02  0.88410124249E+02  0.41800000000E+01 0.  1.
        -11    1    3    3    0    0 -0.35407518597E+02 -0.11117898516E+02 -0.13652597942E+01  0.37137097018E+02  0.00000000000E+00 0. -1.
         11    1    3    3    0    0  0.11603261261E+02 -0.39972031872E+02  0.10138534937E+03  0.10959647837E+03  0.00000000000E+00 0.  1.
</event>
<event>
 7    1  0.4274778E-006  0.1129637E+03  0.7561462E-02  0.1255178E+00
          2   -1    0    0  501    0  0.00000000000E+00  0.00000000000E+00  0.34234082153E+03  0.34234082153E+03  0.00000000000E+00 0. -1.
         -2   -1    0    0    0  501 -0.00000000000E+00 -0.00000000000E+00 -0.46863960199E+02  0.46863960199E+02  0.00000000000E+00 0.  1.
         23    2    1    2    0    0  0.36744342191E+02 -0.51325985336E+02  0.13972795902E+03  0.17971509377E+03  0.93750247702E+02 0.  0.
          5    1    1    2  502    0  0.38174298032E+02 -0.10778426945E+02  0.27506423474E+02  0.48451287392E+02  0.41800000000E+01 0. -1.
         -5    1    1    2    0  502 -0.74918640224E+02  0.62104412282E+02  0.12824247884E+03  0.16103840056E+03  0.41800000000E+01 0. -1.
        -11    1    3    3    0    0  0.54307016756E+02 -0.42633339994E+02  0.43704628520E+02  0.81712595737E+02  0.00000000000E+00 0.  1.
         11    1    3    3    0    0 -0.17562674565E+02 -0.86926453429E+01  0.96023330502E+02  0.98002498037E+02  0.00000000000E+00 0. -1.
</event>
<event>
 7    1  0.4274778E-006  0.7186767E+02  0.7561462E-02  0.1353855E+00
          1   -1    0    0  501    0  0.00000000000E+00  0.00000000000E+00  0.20323121190E+02  0.20323121190E+02  0.00000000000E+00 0. -1.
         -1   -1    0    0    0  501 -0.00000000000E+00 -0.00000000000E+00 -0.73210090610E+03  0.73210090610E+03  0.00000000000E+00 0.  1.
         23    2    1    2    0    0  0.98382554954E+01 -0.15194982264E+01 -0.15967717081E+03  0.18624384788E+03  0.95346063630E+02 0.  0.
          5    1    1    2  502    0 -0.28640267513E+02 -0.21480420886E+02 -0.42622381175E+02  0.55819469557E+02  0.41800000000E+01 0.  1.
         -5    1    1    2    0  502  0.18802012018E+02  0.22999919112E+02 -0.50947823292E+03  0.51036070985E+03  0.41800000000E+01 0.  1.
        -11    1    3    3    0    0  0.43755058929E+02 -0.13026445970E+01 -0.14075575131E+03  0.14740550733E+03  0.00000000000E+00 0.  1.
         11    1    3    3    0    0 -0.33916803434E+02 -0.21685362934E+00 -0.18921419497E+02  0.38838340547E+02  0.00000000000E+00 0. -1.
</event>
<event>
 7    1  0.4274778E-006  0.2404085E+03  0.7561462E-02  0.1119521E+00
          2   -1    0    0  501    0  0.00000000000E+00  0.00000000000E+00  0.40940721404E+03  0.40940721404E+03  0.00000000000E+00 0. -1.
         -2   -1    0    0    0  501 -0.00000000000E+00 -0.00000000000E+00 -0.17583831924E+03  0.17583831924E+03  0.00000000000E+00 0.  1.
         23    2    1    2    0    0 -0.17902601062E+03  0.13359830336E+03  0.22731519672E+03  0.32914947558E+03  0.82270039984E+02 0.  0.
          5    1    1    2  502    0  0.79823625533E+02 -0.12139014720E+03 -0.32293461552E+02  0.14888827720E+03  0.41800000000E+01 0. -1.
         -5    1    1    2    0  502  0.99202385083E+02 -0.12208156161E+02  0.38547159632E+02  0.10720778050E+03  0.41800000000E+01 0. -1.
        -11    1    3    3    0    0 -0.17186790193E+03  0.95396114837E+02  0.20634416174E+03  0.28498580232E+03  0.00000000000E+00 0. -1.
         11    1    3    3    0    0 -0.71581086829E+01  0.38202188520E+02  0.20971034978E+02  0.44163673258E+02  0.00000000000E+00 0.  1.
</event>
<event>
 6    1  0.4274778E-006  0.7403296E+02  0.7561462E-02  0.1346892E+00
          2   -1    0    0  501    0  0.00000000000E+00  0.00000000000E+00  0.51276543465E+02  0.51276543465E+02  0.00000000000E+00 0. -1.
         -2   -1    0    0    0  501 -0.00000000000E+00 -0.00000000000E+00 -0.12224831056E+03  0.12224831056E+03  0.00000000000E+00 0.  1.
          5    1    1    2  502    0 -0.13364698361E+02  0.59239673460E+02 -0.55349542146E+02  0.82273922295E+02  0.41800000000E+01 0. -1.
         -5    1    1    2    0  502  0.51394746515E+01 -0.50849860048E+02 -0.17690859699E+02  0.54245381218E+02  0.41800000000E+01 0.  1.
        -11    1    1    2    0    0  0.21301681562E+02 -0.82312416588E+01  0.54913230402E+01  0.23487647932E+02  0.00000000000E+00 0. -1.
         11    1    1    2    0    0 -0.13076457852E+02 -0.15857175307E+00 -0.34226882870E+01  0.13517902577E+02  0.00000000000E+00 0.  1.
</event>
<event>
 7    1  0.4274778E-006  0.1690632E+03  0.7561462E-02  0.1178828E+00
          2   -1    0    0  501    0  0.00000000000E+00  0.00000000000E+00  0.36282835177E+03  0.36282835177E+03  0.00000000000E+00 0. -1.
         -2   -1    0    0    0  501 -0.00000000000E+00 -0.00000000000E+00 -0.82226712705E+02  0.82226712705E+02  0.00000000000E+00 0.  1.
         23    2    1    2    0    0 -0.13187854668E+03 -0.17711149480E+02  0.15517849113E+03  0.22350537450E+03  0.90380597651E+02 0.  0.
          5    1    1    2  502    0 -0.18769399769E+01 -0.37560758472E+02  0.25421469312E+02  0.45585710291E+02  0.41800000000E+01 0.  1.
         -5    1    1    2    0  502  0.13375548665E+03  0.55271907952E+02  0.10000167862E+03  0.17596397968E+03  0.41800000000E+01 0.  1.
        -11    1    3    3    0    0 -0.10449535748E+03 -0.47720434739E+02  0.13757584907E+03  0.17923067225E+03  0.00000000000E+00 0.  1.
         11    1    3    3    0    0 -0.27383189192E+02  0.30009285260E+02  0.17602642066E+02  0.44274702256E+02  0.00000000000E+00 0. -1.
</event>
<event>
 7    1  0.4274778E-006  0.1087105E+03  0.7561462E-02  0.1262977E+00
         -2   -1    0    0    0  501 -0.00000000000E+00  0.00000000000E+00  0.67861541857E+03  0.67861541857E+03  0.00000000000E+00 0.  1.
          2   -1    0    0  501    0  0.00000000000E+00 -0.00000000000E+00 -0.29213618502E+02  0.29213618502E+02  0.00000000000E+00 0. -1.
         23    2    1    2    0    0 -0.84478416668E+02 -0.34582054664E+02  0.23233596111E+03  0.26294275580E+03  0.82621865237E+02 0.  0.
          5    1    1    2  502    0 -0.35190358206E+01 -0.13451857367E+02 -0.13737563401E+01  0.14584090174E+02  0.41800000000E+01 0. -1.
         -5    1    1    2    0  502  0.87997452489E+02  0.48033912031E+02  0.41843959530E+03  0.43030219110E+03  0.41800000000E+01 0. -1.
        -11    1    3    3    0    0 -0.50712339235E+02 -0.44393619586E+02  0.21170481354E+03  0.22217439746E+03  0.00000000000E+00 0.  1.
         11    1    3    3    0    0 -0.33766077433E+02  0.98115649216E+01  0.20631147562E+02  0.40768358333E+02  0.00000000000E+00 0. -1.
</event>
<event>
 7    1  0.4274778E-006  0.6653058E+02  0.7561462E-02  0.1372305E+00
          2   -1    0    0  501    0  0.00000000000E+00  0.00000000000E+00  0.64572207515E+02  0.64572207515E+02  0.00000000000E+00 0. -1.
         -2   -1    0    0    0  501 -0.00000000000E+00 -0.00000000000E+00 -0.20879974072E+03  0.20879974072E+03  0.00000000000E+00 0.  1.
         23    2    1    2    0    0  0.41552502639E+01 -0.35058317057E+02 -0.27991692788E+02  0.99011258801E+02  0.88166562849E+02 0.  0.
          5    1    1    2  502    0  0.35985029753E+01  0.27764135563E+02  0.21876900710E+02  0.35775237692E+02  0.41800000000E+01 0. -1.
         -5    1    1    2    0  502 -0.77537532393E+01  0.72941814935E+01 -0.13811274113E+03  0.13858545174E+03  0.41800000000E+01 0. -1.
        -11    1    3    3    0    0  0.28333974189E+02  0.18989016814E+02 -0.14885525561E+01  0.34141069720E+02  0.00000000000E+00 0.  1.
         11    1    3    3    0    0 -0.24178723925E+02 -0.54047333871E+02 -0.26503140232E+02  0.64870189081E+02  0.00000000000E+00 0. -1.
</event>
<event>
 7    1  0.4274778E-006  0.1245373E+03  0.7561462E-02  0.1235794E+00
         -2   -1    0    0    0  501 -0.00000000000E+00  0.00000000000E+00  0.19810395770E+02  0.19810395770E+02  0.00000000000E+00 0.  1.
          2   -1    0    0  501    0  0.00000000000E+00 -0.00000000000E+00 -0.10520000152E+04  0.10520000152E+04  0.00000000000E+00 0. -1.
         23    2    1    2    0    0 -0.24217497317E+01 -0.94553516805E+02 -0.51833468747E+03  0.53455724015E+03  0.90190699909E+02 0.  0.
          5    1    1    2  502    0  0.36126550630E+02  0.98992573751E+02 -0.25214848614E+03  0.27331481625E+03  0.41800000000E+01 0. -1.
         -5    1    1    2    0  502 -0.33704800898E+02 -0.44390569458E+01 -0.26170644578E+03  0.26393835453E+03  0.41800000000E+01 0. -1.
        -11    1    3    3    0    0  0.22452144383E+02 -0.17721939262E+02 -0.38437533390E+02  0.47912523329E+02  0.00000000000E+00 0.  1.
         11    1    3    3    0    0 -0.24873894114E+02 -0.76831577543E+02 -0.47989715408E+03  0.48664471683E+03  0.00000000000E+00 0. -1.
</event>
<event>
 7    1  0.4274778E-006  0.1142139E+03  0.7561462E-02  0.1252960E+00
         -3   -1    0    0    0  501 -0.00000000000E+00  0.00000000000E+00  0.13527991775E+03  0.13527991775E+03  0.00000000000E+00 0.  1.
          3   -1    0    0  501    0  0.00000000000E+00 -0.00000000000E+00 -0.17265452093E+03  0.17265452093E+03  0.00000000000E+00 0. -1.
         23    2    1    2    0    0 -0.41528309840E+01  0.10320900332E+03 -0.48404887229E+02  0.14533411509E+03  0.90053470393E+02 0.  0.
          5    1    1    2  502    0 -0.16123105053E+02 -0.79666105762E+02  0.62306300313E+02  0.10249970918E+03  0.41800000000E+01 0. -1.
         -5    1    1    2    0  502  0.20275936037E+02 -0.23542897559E+02 -0.51276016262E+02  0.60100614401E+02  0.41800000000E+01 0. -1.
        -11    1    3    3    0    0  0.20118076294E+02  0.78563741714E+02 -0.67774568440E+02  0.10569006875E+03  0.00000000000E+00 0. -1.
         11    1    3    3    0    0 -0.24270907278E+02  0.24645261607E+02  0.19369681211E+02  0.39644046337E+02  0.00000000000E+00 0.  1.
</event>
<event>
 7    1  0.4274778E-006  0.9939517E+02  0.7561462E-02  0.1281573E+00
          1   -1    0    0  501    0  0.00000000000E+00  0.00000000000E+00  0.15005658234E+03  0.15005658234E+03  0.00000000000E+00 0. -1.
         -1   -1    0    0    0  501 -0.00000000000E+00 -0.00000000000E+00 -0.81015242033E+02  0.81015242033E+02  0.00000000000E+00 0.  1.
         23    2    1    2    0    0 -0.13283318615E+01 -0.20777811113E+01  0.50310795143E+02  0.10456603426E+03  0.91634042657E+02 0.  0.
          5    1    1    2  502    0  0.28763735967E+02 -0.54137257756E+02  0.17145168733E+02  0.63793607791E+02  0.41800000000E+01 0. -1.
         -5    1    1    2    0  502 -0.27435404106E+02  0.56215038868E+02  0.15853764357E+01  0.62712182323E+02  0.41800000000E+01 0. -1.
        -11    1    3    3    0    0  0.24879826286E+02  0.26176427598E+02 -0.57173931870E+01  0.36563639078E+02  0.00000000000E+00 0.  1.
         11    1    3    3    0    0 -0.26208158147E+02 -0.28254208709E+02  0.56028188330E+02  0.68002395184E+02  0.00000000000E+00 0. -1.
</event>
<event>
 7    1  0.4274778E-006  0.9850702E+02  0.7561462E-02  0.1283467E+00
         -1   -1    0    0    0  501 -0.00000000000E+00  0.00000000000E+00  0.26399947134E+03  0.26399947134E+03  0.00000000000E+00 0. -1.
          1   -1    0    0  501    0  0.00000000000E+00 -0.00000000000E+00 -0.62484817707E+02  0.62484817707E+02  0.00000000000E+00 0.  1.
         23    2    1    2    0    0 -0.14959251022E+02 -0.57558416226E+02  0.42733588449E+02  0.11578506679E+03  0.89684288698E+02 0.  0.
          5    1    1    2  502    0  0.40592456341E+02  0.22058373716E+02  0.16010858622E+03  0.16669298469E+03  0.41800000000E+01 0.  1.
         -5    1    1    2    0  502 -0.25633205318E+02  0.35500042509E+02 -0.13275210383E+01  0.44006237571E+02  0.41800000000E+01 0.  1.
        -11    1    3    3    0    0 -0.42363303843E+02  0.57982911042E+00  0.24649999872E+02  0.49016407538E+02  0.00000000000E+00 0. -1.
         11    1    3    3    0    0  0.27404052821E+02 -0.58138245336E+02  0.18083588578E+02  0.66768659247E+02  0.00000000000E+00 0.  1.
</event>
<event>
 7    1  0.4274778E-006  0.1610609E+03  0.7561462E-02  0.1187504E+00
          3   -1    0    0  501    0  0.00000000000E+00  0.00000000000E+00  0.28484234635E+03  0.28484234635E+03  0.00000000000E+00 0. -1.
         -3   -1    0    0    0  501 -0.00000000000E+00 -0.00000000000E+00 -0.11191546775E+03  0.11191546775E+03  0.00000000000E+00 0.  1.
         23    2    1    2    0    0  0.27119403797E+02  0.12385629816E+03  0.14395956754E+03  0.21630908082E+03  0.99947069509E+02 0.  0.
          5    1    1    2  502    0  0.19004053125E+02  0.79967532064E+01 -0.23164596053E+02  0.31291740241E+02  0.41800000000E+01 0. -1.
         -5    1    1    2    0  502 -0.46123456922E+02 -0.13185305137E+03  0.52131907108E+02  0.14915699304E+03  0.41800000000E+01 0. -1.
        -11    1    3    3    0    0  0.94734865771E+01  0.13824273455E+03  0.12075031170E+03  0.18379727522E+03  0.00000000000E+00 0.  1.
         11    1    3    3    0    0  0.17645917220E+02 -0.14386436391E+02  0.23209255847E+02  0.32511805602E+02  0.00000000000E+00 0. -1.
</event>
<event>
 7    1  0.4274778E-006  0.1757684E+03  0.7561462E-02  0.1171962E+00
          2   -1    0    0  501    0  0.00000000000E+00  0.00000000000E+00  0.68566922916E+02  0.68566922916E+02  0.00000000000E+00 0. -1.
         -2   -1    0    0    0  501 -0.00000000000E+00 -0.00000000000E+00 -0.83284625546E+03  0.83284625546E+03  0.00000000000E+00 0.  1.
         23    2    1    2    0    0 -0.58362478761E+02 -0.39470000246E+02 -0.55328222383E+02  0.12411997599E+03  0.85909815504E+02 0.  0.
          5    1    1    2  502    0  0.24833099845E+02 -0.97696286820E+02 -0.69713808262E+02  0.12263251921E+03  0.41800000000E+01 0. -1.
         -5    1    1    2    0  502  0.33529378916E+02  0.13716628707E+03 -0.63923730189E+03  0.65466068317E+03  0.41800000000E+01 0.  1.
        -11    1    3    3    0    0 -0.59774131009E+02 -0.62398225168E+02 -0.34269225947E+02  0.92956253631E+02  0.00000000000E+00 0. -1.
         11    1    3    3    0    0  0.14116522481E+01  0.22928224922E+02 -0.21058996435E+02  0.31163722355E+02  0.00000000000E+00 0.  1.
</event>
<event>
 7    1  0.4274778E-006  0.1644904E+03  0.7561462E-02  0.1183718E+00
         -1   -1    0    0    0  501 -0.00000000000E+00  0.00000000000E+00  0.12387544611E+03  0.12387544611E+03  0.00000000000E+00 0.  1.
          1   -1    0    0  501    0  0.00000000000E+00 -0.00000000000E+00 -0.56373543159E+03  0.56373543159E+03  0.00000000000E+00 0. -1.
         23    2    1    2    0    0  0.93774592813E+02 -0.43286492440E+02 -0.47927865467E+03  0.50637145034E+03  0.12663578567E+03 0.  0.
          5    1    1    2  502    0 -0.54647073043E+02 -0.48415416034E+02 -0.20989499273E+01  0.73158957707E+02  0.41800000000E+01 0. -1.
         -5    1    1    2    0  502 -0.39127519770E+02  0.91701908474E+02  0.41517619122E+02  0.10808046964E+03  0.41800000000E+01 0.  1.
        -11    1    3    3    0    0  0.99464339810E+02 -0.74540673801E+02 -0.43110813207E+03  0.44866879598E+03  0.00000000000E+00 0. -1.
         11    1    3    3    0    0 -0.56897469968E+01  0.31254181361E+02 -0.48170522601E+02  0.57702654368E+02  0.00000000000E+00 0.  1.
</event>
<event>
 7    1  0.4274778E-006  0.8712074E+02  0.7561462E-02  0.1309978E+00
          1   -1    0    0  501    0  0.00000000000E+00  0.00000000000E+00  0.14354675786E+03  0.14354675786E+03  0.00000000000E+00 0. -1.
         -1   -1    0    0    0  501 -0.00000000000E+00 -0.00000000000E+00 -0.10299990500E+03  0.10299990500E+03  0.00000000000E+00 0.  1.
         23    2    1    2    0    0 -0.22587640198E+02 -0.36813361234E+02  0.52218804746E+02  0.11369936368E+03  0.91297955496E+02 0.  0.
          5    1    1    2  502    0 -0.12081087966E+02  0.59089021646E+02 -0.48435251411E+02  0.77465548116E+02  0.41800000000E+01 0.  1.
         -5    1    1    2    0  502  0.34668728164E+02 -0.22275660413E+02  0.36763299516E+02  0.55381751062E+02  0.41800000000E+01 0.  1.
        -11    1    3    3    0    0 -0.16867416353E+02  0.13576266666E+02  0.58707078548E+02  0.62572724270E+02  0.00000000000E+00 0. -1.
         11    1    3    3    0    0 -0.57202238443E+01 -0.50389627899E+02 -0.64882738018E+01  0.51126639412E+02  0.00000000000E+00 0.  1.
</event>
<event>
 7    1  0.4274778E-006  0.2141597E+03  0.7561462E-02  0.1138314E+00
          1   -1    0    0  501    0  0.00000000000E+00  0.00000000000E+00  0.11123007958E+04  0.11123007958E+04  0.00000000000E+00 0. -1.
         -1   -1    0    0    0  501 -0.00000000000E+00 -0.00000000000E+00 -0.54264918579E+02  0.54264918579E+02  0.00000000000E+00 0.  1.
         23    2    1    2    0    0 -0.18342308818E+03  0.61093811904E+02  0.76201814251E+03  0.79152910781E+03  0.92033667003E+02 0.  0.
          5    1    1    2  502    0  0.12052639694E+03  0.24921698267E+02  0.14644496528E+03  0.19134080500E+03  0.41800000000E+01 0.  1.
         -5    1    1    2    0  502  0.62896691241E+02 -0.86015510171E+02  0.14957276947E+03  0.18369580160E+03  0.41800000000E+01 0.  1.
        -11    1    3    3    0    0 -0.66734580387E+02  0.45584673095E+02  0.46614780209E+03  0.47310172272E+03  0.00000000000E+00 0. -1.
         11    1    3    3    0    0 -0.11668850780E+03  0.15509138809E+02  0.29587034042E+03  0.31842738510E+03  0.00000000000E+00 0.  1.
</event>
<event>
 7    1  0.4274778E-006  0.1093435E+03  0.7561462E-02  0.1261791E+00
          2   -1    0    0  501    0  0.00000000000E+00  0.00000000000E+00  0.19516448092E+03  0.19516448092E+03  0.00000000000E+00 0.  1.
         -2   -1    0    0    0  501 -0.00000000000E+00 -0.00000000000E+00 -0.99531466243E+02  0.99531466243E+02  0.00000000000E+00 0. -1.
         23    2    1    2    0    0 -0.72702462793E+02 -0.48457157159E+02  0.39618266790E+02  0.13215512082E+03  0.90893480064E+02 0.  0.
          5    1    1    2  502    0  0.72034450358E+02 -0.90309712245E+01 -0.11656057180E+02  0.73646836651E+02  0.41800000000E+01 0. -1.
         -5    1    1    2    0  502  0.66801243499E+00  0.57488128383E+02  0.67670805066E+02  0.88893989695E+02  0.41800000000E+01 0. -1.
        -11    1    3    3    0    0 -0.37924909583E+02 -0.17512585041E+02  0.66401690232E+02  0.78448542800E+02  0.00000000000E+00 0.  1.
         11    1    3    3    0    0 -0.34777553210E+02 -0.30944572118E+02 -0.26783423443E+02  0.53706578015E+02  0.00000000000E+00 0. -1.
</event>
<event>
 7    1  0.4274778E-006  0.1194506E+03  0.7561462E-02  0.1244006E+00
          2   -1    0    0  501    0  0.00000000000E+00  0.00000000000E+00  0.57230204937E+03  0.57230204937E+03  0.00000000000E+00 0. -1.
         -2   -1    0    0    0  501 -0.00000000000E+00 -0.00000000000E+00 -0.37802819134E+02  0.37802819134E+02  0.00000000000E+00 0.  1.
         23    2    1    2    0    0 -0.67547900746E+02 -0.64784406817E+01  0.36289917899E+03  0.38084283302E+03  0.93492033149E+02 0.  0.
          5    1    1    2  502    0  0.25695340706E+02  0.70328404227E+02  0.74939687387E+02  0.10601775380E+03  0.41800000000E+01 0. -1.
         -5    1    1    2    0  502  0.41852560040E+02 -0.63849963545E+02  0.96660363859E+02  0.12324428168E+03  0.41800000000E+01 0.  1.
        -11    1    3    3    0    0 -0.77122711713E+01  0.20434113328E+02  0.14260320002E+02  0.26084264235E+02  0.00000000000E+00 0.  1.
         11    1    3    3    0    0 -0.59835629574E+02 -0.26912554010E+02  0.34863885899E+03  0.35475856879E+03  0.00000000000E+00 0. -1.
</event>
<event>
 7    1  0.4274778E-006  0.1444978E+03  0.7561462E-02  0.1207402E+00
         -3   -1    0    0    0  501 -0.00000000000E+00  0.00000000000E+00  0.18056850414E+03  0.18056850414E+03  0.00000000000E+00 0.  1.
          3   -1    0    0  501    0  0.00000000000E+00 -0.00000000000E+00 -0.15309147921E+03  0.15309147921E+03  0.00000000000E+00 0. -1.
         23    2    1    2    0    0  0.21556710954E+02 -0.22234535211E+02 -0.32106288566E+02  0.99009842916E+02  0.88391565692E+02 0.  0.
          5    1    1    2  502    0  0.42061656218E+02 -0.82886171191E+02 -0.96705287907E+01  0.93542994530E+02  0.41800000000E+01 0. -1.
         -5    1    1    2    0  502 -0.63618367172E+02  0.10512070640E+03  0.69253842285E+02  0.14110714591E+03  0.41800000000E+01 0.  1.
        -11    1    3    3    0    0 -0.10071129703E+02 -0.36826318874E+02  0.14488218963E+02  0.40835204224E+02  0.00000000000E+00 0.  1.
         11    1    3    3    0    0  0.31627840657E+02  0.14591783663E+02 -0.46594507529E+02  0.58174638692E+02  0.00000000000E+00 0. -1.
</event>
<event>
 7    1  0.4274778E-006  0.1398165E+03  0.7561462E-02  0.1213576E+00
         -1   -1    0    0    0  501 -0.00000000000E+00  0.00000000000E+00  0.37828616729E+02  0.37828616729E+02  0.00000000000E+00 0.  1.
          1   -1    0    0  501    0  0.00000000000E+00 -0.00000000000E+00 -0.71743614231E+03  0.71743614231E+03  0.00000000000E+00 0. -1.
         23    2    1    2    0    0  0.33221935763E+02 -0.95347610085E+02 -0.50337234706E+03  0.52143490403E+03  0.91190874498E+02 0.  0.
          5    1    1    2  502    0 -0.10101317154E+02 -0.21852826131E+02 -0.49033971912E+01  0.24921844277E+02  0.41800000000E+01 0. -1.
         -5    1    1    2    0  502 -0.23120618609E+02  0.11720043622E+03 -0.17133178133E+03  0.20890801073E+03  0.41800000000E+01 0.  1.
        -11    1    3    3    0    0 -0.14277270418E+02 -0.86099032843E+02 -0.34226284635E+03  0.35321486364E+03  0.00000000000E+00 0. -1.
         11    1    3    3    0    0  0.47499206181E+02 -0.92485772426E+01 -0.16110950071E+03  0.16822004039E+03  0.00000000000E+00 0.  1.
</event>
<event>
 7    1  0.4274778E-006  0.4723425E+02  0.7561462E-02  0.1460857E+00
          2   -1    0    0  501    0  0.00000000000E+00  0.00000000000E+00  0.32585164171E+02  0.32585164171E+02  0.00000000000E+00 0. -1.
         -2   -1    0    0    0  501 -0.00000000000E+00 -0.00000000000E+00 -0.30854226710E+03  0.30854226710E+03  0.00000000000E+00 0.  1.
         23    2    1    2    0    0 -0.22334916300E+02 -0.14525728134E+02 -0.82912674382E+02  0.11403182752E+03  0.73613183945E+02 0.  0.
          5    1    1    2  502    0  0.11009304799E+02 -0.28393535127E+01  0.14262586365E+02  0.18712575727E+02  0.41800000000E+01 0. -1.
         -5    1    1    2    0  502  0.11325611501E+02  0.17365081646E+02 -0.20730701491E+03  0.20838302802E+03  0.41800000000E+01 0.  1.
        -11    1    3    3    0    0  0.16984013936E+02  0.44354592240E+01 -0.64167429076E+02  0.66525100392E+02  0.00000000000E+00 0. -1.
         11    1    3    3    0    0 -0.39318930236E+02 -0.18961187358E+02 -0.18745245306E+02  0.47506727129E+02  0.00000000000E+00 0.  1.
</event>
<event>
 7    1  0.4274778E-006  0.2100335E+03  0.7561462E-02  0.1141539E+00
          1   -1    0    0  501    0  0.00000000000E+00  0.00000000000E+00  0.46780958565E+03  0.46780958565E+03  0.00000000000E+00 0. -1.
         -1   -1    0    0    0  501 -0.00000000000E+00 -0.00000000000E+00 -0.12473017382E+03  0.12473017382E+03  0.00000000000E+00 0.  1.
         23    2    1    2    0    0 -0.11063808636E+03 -0.14383805469E+03  0.30880964266E+03  0.36948663907E+03  0.90701758101E+02 0.  0.
          5    1    1    2  502    0  0.55713949832E+02  0.15246728860E+03  0.11371355570E+02  0.16277929361E+03  0.41800000000E+01 0. -1.
         -5    1    1    2    0  502  0.54924136528E+02 -0.86292339089E+01  0.22898413603E+02  0.60273826797E+02  0.41800000000E+01 0. -1.
        -11    1    3    3    0    0 -0.82814174732E+02 -0.15186025327E+03  0.25098592066E+03  0.30481741490E+03  0.00000000000E+00 0.  1.
         11    1    3    3    0    0 -0.27823911628E+02  0.80221985810E+01  0.57823722001E+02  0.64669224167E+02  0.00000000000E+00 0. -1.
</event>
<event>
 7    1  0.4274778E-006  0.1196893E+03  0.7561462E-02  0.1243610E+00
          4   -1    0    0  501    0  0.00000000000E+00  0.00000000000E+00  0.42993443711E+03  0.42993443711E+03  0.00000000000E+00 0. -1.
         -4   -1    0    0    0  501 -0.00000000000E+00 -0.00000000000E+00 -0.34394954885E+02  0.34394954885E+02  0.00000000000E+00 0.  1.
         23    2    1    2    0    0 -0.35571362549E+01 -0.53713030949E+02  0.18940623176E+03  0.21727446941E+03  0.91846238454E+02 0.  0.
          5    1    1    2  502    0 -0.56755360458E+02  0.54188531866E+01  0.10683224636E+03  0.12116573844E+03  0.41800000000E+01 0.  1.
         -5    1    1    2    0  502  0.60312496713E+02  0.48294177762E+02  0.99301004103E+02  0.12588918413E+03  0.41800000000E+01 0.  1.
        -11    1    3    3    0    0 -0.37145524531E+02 -0.60091239755E+02  0.10887363125E+03  0.12978526369E+03  0.00000000000E+00 0.  1.
         11    1    3    3    0    0  0.33588388276E+02  0.63782088065E+01  0.80532600507E+02  0.87489205729E+02  0.00000000000E+00 0. -1.
</event>
<event>
 7    1  0.4274778E-006  0.7304953E+02  0.7561462E-02  0.1350020E+00
         -1   -1    0    0    0  501 -0.00000000000E+00  0.00000000000E+00  0.10277835201E+03  0.10277835201E+03  0.00000000000E+00 0.  1.
          1   -1    0    0  501    0  0.00000000000E+00 -0.00000000000E+00 -0.14277619882E+03  0.14277619882E+03  0.00000000000E+00 0. -1.
         23    2    1    2    0    0  0.37421957363E+02  0.38996487947E+02 -0.25727605203E+02  0.10854117910E+03  0.90543629956E+02 0.  0.
          5    1    1    2  502    0  0.34060344004E+01  0.19222127714E+02 -0.52503072015E+02  0.56170599385E+02  0.41800000000E+01 0. -1.
         -5    1    1    2    0  502 -0.40827991764E+02 -0.58218615661E+02  0.38232830408E+02  0.80842772355E+02  0.41800000000E+01 0. -1.
        -11    1    3    3    0    0  0.14297258596E+02  0.21867903718E+02  0.33623626529E+02  0.42581276136E+02  0.00000000000E+00 0.  1.
         11    1    3    3    0    0  0.23124698767E+02  0.17128584229E+02 -0.59351231733E+02  0.65959902963E+02  0.00000000000E+00 0. -1.
</event>
<event>
 7    1  0.4274778E-006  0.1055041E+03  0.7561462E-02  0.1269130E+00
          1   -1    0    0  501    0  0.00000000000E+00  0.00000000000E+00  0.87154723336E+02  0.87154723336E+02  0.00000000000E+00 0. -1.
         -1   -1    0    0    0  501 -0.00000000000E+00 -0.00000000000E+00 -0.16743445273E+03  0.16743445273E+03  0.00000000000E+00 0.  1.
         23    2    1    2    0    0  0.28627572429E+02  0.22611776142E+02  0.57322268620E+01  0.98466664098E+02  0.91279763312E+02 0.  0.
          5    1    1    2  502    0 -0.26489888264E+02  0.50105685497E+02 -0.45117642937E+02  0.72562855536E+02  0.41800000000E+01 0.  1.
         -5    1    1    2    0  502 -0.21376841656E+01 -0.72717461639E+02 -0.40894313316E+02  0.83559656428E+02  0.41800000000E+01 0.  1.
        -11    1    3    3    0    0 -0.52829562029E+01  0.41943209873E+02 -0.24709099946E+02  0.48966132181E+02  0.00000000000E+00 0.  1.
         11    1    3    3    0    0  0.33910528632E+02 -0.19331433731E+02  0.30441326808E+02  0.49500531917E+02  0.00000000000E+00 0. -1.
</event>
<event>
 7    1  0.4274778E-006  0.8704132E+02  0.7561462E-02  0.1310179E+00
          2   -1    0    0  501    0  0.00000000000E+00  0.00000000000E+00  0.10711634811E+02  0.10711634811E+02  0.00000000000E+00 0. -1.
         -2   -1    0    0    0  501 -0.00000000000E+00 -0.00000000000E+00 -0.11966882220E+04  0.11966882220E+04  0.00000000000E+00 0.  1.
         23    2    1    2    0    0  0.16576134615E+01  0.12903946316E+02 -0.33698145083E+03  0.34914023545E+03  0.90405454998E+02 0.  0.
          5    1    1    2  502    0 -0.12444289156E+02 -0.46222818657E+02 -0.13330185203E+03  0.14169779622E+03  0.41800000000E+01 0.  1.
         -5    1    1    2    0  502  0.10786675694E+02  0.33318872341E+02 -0.71569328435E+03  0.71656182517E+03  0.41800000000E+01 0.  1.
        -11    1    3    3    0    0  0.10768059113E+02 -0.37770231375E+02 -0.12672496623E+03  0.13267161920E+03  0.00000000000E+00 0. -1.
         11    1    3    3    0    0 -0.91104456511E+01  0.50674177691E+02 -0.21025648461E+03  0.21646861625E+03  0.00000000000E+00 0.  1.
</event>
<event>
 7    1  0.4274778E-006  0.1338597E+03  0.7561462E-02  0.1221839E+00
          2   -1    0    0  501    0  0.00000000000E+00  0.00000000000E+00  0.20496297971E+03  0.20496297971E+03  0.00000000000E+00 0. -1.
         -2   -1    0    0    0  501 -0.00000000000E+00 -0.00000000000E+00 -0.10245168133E+03  0.10245168133E+03  0.00000000000E+00 0.  1.
         23    2    1    2    0    0  0.69078702535E+02 -0.65802572486E+02  0.59678307479E+02  0.14438357082E+03  0.90461425207E+02 0.  0.
          5    1    1    2  502    0 -0.31365978561E+02 -0.31679719203E+02 -0.99407142740E+01  0.45866321197E+02  0.41800000000E+01 0.  1.
         -5    1    1    2    0  502 -0.37712723973E+02  0.97482291689E+02  0.52773705178E+02  0.11716476902E+03  0.41800000000E+01 0.  1.
        -11    1    3    3    0    0  0.67177770090E+02 -0.79742632614E+02  0.25380352965E+02  0.10731217343E+03  0.00000000000E+00 0.  1.
         11    1    3    3    0    0  0.19009324445E+01  0.13940060128E+02  0.34297954514E+02  0.37071397389E+02  0.00000000000E+00 0. -1.
</event>
<event>
 7    1  0.4274778E-006  0.1331620E+03  0.7561462E-02  0.1222838E+00
         -2   -1    0    0    0  501 -0.00000000000E+00  0.00000000000E+00  0.30028378500E+03  0.30028378500E+03  0.00000000000E+00 0.  1.
          2   -1    0    0  501    0  0.00000000000E+00 -0.00000000000E+00 -0.75963282289E+02  0.75963282289E+02  0.00000000000E+00 0. -1.
         23    2    1    2    0    0 -0.10041287417E+03  0.31000946849E+02  0.92999712327E+02  0.16663577413E+03  0.89859505473E+02 0.  0.
          5    1    1    2  502    0  0.86100421583E+02 -0.61046566401E+02  0.13960374780E+03  0.17506183098E+03  0.41800000000E+01 0. -1.
         -5    1    1    2    0  502  0.14312452582E+02  0.30045619552E+02 -0.82829574162E+01  0.34549462177E+02  0.41800000000E+01 0. -1.
        -11    1    3    3    0    0 -0.51796455582E+02 -0.21067065962E+02  0.92322757898E+01  0.56673882833E+02  0.00000000000E+00 0.  1.
         11    1    3    3    0    0 -0.48616418583E+02  0.52068012811E+02  0.83767436537E+02  0.10996189130E+03  0.00000000000E+00 0. -1.
</event>
<event>
 7    1  0.4274778E-006  0.7685940E+02  0.7561462E-02  0.1338208E+00
         -1   -1    0    0    0  501 -0.00000000000E+00  0.00000000000E+00  0.20403465026E+03  0.20403465026E+03  0.00000000000E+00 0.  1.
          1   -1    0    0  501    0  0.00000000000E+00 -0.00000000000E+00 -0.13311778598E+03  0.13311778598E+03  0.00000000000E+00 0. -1.
         23    2    1    2    0    0  0.69817467343E+01 -0.17450419622E+02 -0.77581970509E+02  0.12168688991E+03  0.91844842510E+02 0.  0.
          5    1    1    2  502    0  0.21019830741E+02  0.23047230786E+02 -0.24619923130E+02  0.39957742006E+02  0.41800000000E+01 0. -1.
         -5    1    1    2    0  502 -0.28001577476E+02 -0.55968111639E+01  0.17311875792E+03  0.17550780433E+03  0.41800000000E+01 0.  1.
        -11    1    3    3    0    0 -0.13385896296E+02  0.34811598202E+02 -0.25817411396E+02  0.45360426808E+02  0.00000000000E+00 0.  1.
         11    1    3    3    0    0  0.20367643031E+02 -0.52262017824E+02 -0.51764559113E+02  0.76326463103E+02  0.00000000000E+00 0. -1.
</event>
<event>
 7    1  0.4274778E-006  0.1117010E+03  0.7561462E-02  0.1257452E+00
          3   -1    0    0  501    0  0.00000000000E+00  0.00000000000E+00  0.90399964459E+01  0.90399964459E+01  0.00000000000E+00 0. -1.
         -3   -1    0    0    0  501 -0.00000000000E+00 -0.00000000000E+00 -0.13834965053E+04  0.13834965053E+04  0.00000000000E+00 0.  1.
         23    2    1    2    0    0 -0.14578841818E+02  0.17908615916E+02 -0.56410599396E+03  0.57226255985E+03  0.93464452227E+02 0.  0.
          5    1    1    2  502    0 -0.38935142991E+02 -0.50860573771E+02 -0.39972157690E+03  0.40484262962E+03  0.41800000000E+01 0. -1.
         -5    1    1    2    0  502  0.53513984809E+02  0.32951957855E+02 -0.41062893803E+03  0.41543131231E+03  0.41800000000E+01 0. -1.
        -11    1    3    3    0    0 -0.49741579414E+02  0.31110276113E+02 -0.35253804558E+03  0.35738655204E+03  0.00000000000E+00 0.  1.
         11    1    3    3    0    0  0.35162737596E+02 -0.13201660197E+02 -0.21156794838E+03  0.21487600781E+03  0.00000000000E+00 0. -1.
</event>
<event>
 7    1  0.4274778E-006  0.1155197E+03  0.7561462E-02  0.1250677E+00
         -1   -1    0    0    0  501 -0.00000000000E+00  0.00000000000E+00  0.22022564251E+03  0.22022564251E+03  0.00000000000E+00 0.  1.
          1   -1    0    0  501    0  0.00000000000E+00 -0.00000000000E+00 -0.72874274014E+02  0.72874274014E+02  0.00000000000E+00 0. -1.
         23    2    1    2    0    0 -0.14454879118E+02 -0.54289418270E+02  0.28923267251E+02  0.11191111043E+03  0.92364802723E+02 0.  0.
          5    1    1    2  502    0  0.66928403807E+02  0.25969177250E+02  0.39077126281E+02  0.81843164660E+02  0.41800000000E+01 0. -1.
         -5    1    1    2    0  502 -0.52473524689E+02  0.28320241019E+02  0.79350974964E+02  0.99345641437E+02  0.41800000000E+01 0. -1.
        -11    1    3    3    0    0  0.28647068636E+02 -0.47854549667E+02  0.37879280173E+02  0.67420711445E+02  0.00000000000E+00 0.  1.
         11    1    3    3    0    0 -0.43101947753E+02 -0.64348686026E+01 -0.89560129226E+01  0.44490398981E+02  0.00000000000E+00 0. -1.
</event>
<event>
 7    1  0.4274778E-006  0.1397573E+03  0.7561462E-02  0.1213656E+00
          1   -1    0    0  501    0  0.00000000000E+00  0.00000000000E+00  0.19945538220E+03  0.19945538220E+03  0.00000000000E+00 0. -1.
         -1   -1    0    0    0  501 -0.00000000000E+00 -0.00000000000E+00 -0.16802320876E+03  0.16802320876E+03  0.00000000000E+00 0.  1.
         23    2    1    2    0    0 -0.10983198747E+03  0.18406591908E+02  0.11127398931E+03  0.18194049747E+03  0.91206226897E+02 0.  0.
          5    1    1    2  502    0  0.50307694657E+02  0.49713189684E+02 -0.10813618560E+02  0.71670580552E+02  0.41800000000E+01 0.  1.
         -5    1    1    2    0  502  0.59524292810E+02 -0.68119781592E+02 -0.69028197319E+02  0.11386751294E+03  0.41800000000E+01 0.  1.
        -11    1    3    3    0    0 -0.62972162228E+02  0.30118883447E+02  0.11035051319E+02  0.70671158993E+02  0.00000000000E+00 0.  1.
         11    1    3    3    0    0 -0.46859825239E+02 -0.11712291539E+02  0.10023893800E+03  0.11126933848E+03  0.00000000000E+00 0. -1.
</event>
<event>
 7    1  0.4274778E-006  0.2031256E+03  0.7561462E-02  0.1147128E+00
         -2   -1    0    0    0  501 -0.00000000000E+00  0.00000000000E+00  0.58440505815E+02  0.58440505815E+02  0.00000000000E+00 0. -1.
          2   -1    0    0  501    0  0.00000000000E+00 -0.00000000000E+00 -0.10117848178E+04  0.10117848178E+04  0.00000000000E+00 0.  1.
         23    2    1    2    0    0 -0.42335340289E+01 -0.18257686630E+03 -0.72070791599E+03  0.74910362503E+03  0.91564763645E+02 0.  0.
          5    1    1    2  502    0  0.28175774790E+02  0.13888645745E+02  0.12649054338E+01  0.31714998840E+02  0.41800000000E+01 0. -1.
         -5    1    1    2    0  502 -0.23942240761E+02  0.16868822056E+03 -0.23390130143E+03  0.28940669974E+03  0.41800000000E+01 0. -1.
        -11    1    3    3    0    0 -0.47130956452E+02 -0.11240623399E+03 -0.44491482470E+03  0.46130867077E+03  0.00000000000E+00 0.  1.
         11    1    3    3    0    0  0.42897422423E+02 -0.70170632313E+02 -0.27579309129E+03  0.28779495425E+03  0.00000000000E+00 0. -1.
</event>
<event>
 7    1  0.4274778E-006  0.1333234E+03  0.7561462E-02  0.1222606E+00
          1   -1    0    0  501    0  0.00000000000E+00  0.00000000000E+00  0.16438964886E+04  0.16438964886E+04  0.00000000000E+00 0. -1.
         -1   -1    0    0    0  501 -0.00000000000E+00 -0.00000000000E+00 -0.13948841263E+02  0.13948841263E+02  0.00000000000E+00 0.  1.
         23    2    1    2    0    0  0.96182824963E+02 -0.42423620499E+02  0.78934455626E+03  0.80150958348E+03  0.91114677888E+02 0.  0.
          5    1    1    2  502    0 -0.93229857073E+02  0.59030017903E+02  0.82680572681E+03  0.83414718818E+03  0.41800000000E+01 0. -1.
         -5    1    1    2    0  502 -0.29529678898E+01 -0.16606397405E+02  0.13797364263E+02  0.22188558194E+02  0.41800000000E+01 0. -1.
        -11    1    3    3    0    0 -0.14751339095E+02 -0.21311500395E+02  0.12882831095E+03  0.13140972474E+03  0.00000000000E+00 0. -1.
         11    1    3    3    0    0  0.11093416406E+03 -0.21112120104E+02  0.66051624530E+03  0.67009985874E+03  0.00000000000E+00 0.  1.
</event>
<event>
 7    1  0.4274778E-006  0.8663604E+02  0.7561462E-02  0.1311209E+00
         -1   -1    0    0    0  501 -0.00000000000E+00  0.00000000000E+00  0.98000421988E+02  0.98000421988E+02  0.00000000000E+00 0. -1.
          1   -1    0    0  501    0  0.00000000000E+00 -0.00000000000E+00 -0.14521875207E+03  0.14521875207E+03  0.00000000000E+00 0.  1.
         23    2    1    2    0    0  0.19682919755E+02 -0.44580314399E+02 -0.32395949564E+02  0.10815727106E+03  0.90959749191E+02 0.  0.
          5    1    1    2  502    0 -0.14107193660E+02  0.55410285161E+02 -0.63006949795E+02  0.85186036045E+02  0.41800000000E+01 0.  1.
         -5    1    1    2    0  502 -0.55757260951E+01 -0.10829970762E+02  0.48184569276E+02  0.49875866955E+02  0.41800000000E+01 0.  1.
        -11    1    3    3    0    0 -0.12612456755E+01  0.27741360756E+02 -0.63552115552E+01  0.28487936941E+02  0.00000000000E+00 0. -1.
         11    1    3    3    0    0  0.20944165430E+02 -0.72321675155E+02 -0.26040738009E+02  0.79669334118E+02  0.00000000000E+00 0.  1.
</event>
<event>
 7    1  0.4274778E-006  0.1180227E+03  0.7561462E-02  0.1246395E+00
          2   -1    0    0  501    0  0.00000000000E+00  0.00000000000E+00  0.67732364114E+02  0.67732364114E+02  0.00000000000E+00 0. -1.
         -2   -1    0    0    0  501 -0.00000000000E+00 -0.00000000000E+00 -0.31867848619E+03  0.31867848619E+03  0.00000000000E+00 0.  1.
         23    2    1    2    0    0 -0.42364567567E+02  0.89093048376E+02 -0.96711378032E+02  0.16483427464E+03  0.89916180980E+02 0.  0.
          5    1    1    2  502    0 -0.89568802148E+01 -0.53704377122E+02 -0.14921793161E+03  0.15889571844E+03  0.41800000000E+01 0. -1.
         -5    1    1    2    0  502  0.51321447782E+02 -0.35388671254E+02 -0.50168124416E+01  0.62680857226E+02  0.41800000000E+01 0. -1.
        -11    1    3    3    0    0 -0.53894354752E+02  0.36437418504E+02 -0.14702705675E+02  0.66696750262E+02  0.00000000000E+00 0. -1.
         11    1    3    3    0    0  0.11529787185E+02  0.52655629872E+02 -0.82008672357E+02  0.98137524380E+02  0.00000000000E+00 0.  1.
</event>
<event>
 7    1  0.4274778E-006  0.1095234E+03  0.7561462E-02  0.1261455E+00
          1   -1    0    0  501    0  0.00000000000E+00  0.00000000000E+00  0.74727133987E+02  0.74727133987E+02  0.00000000000E+00 0. -1.
         -1   -1    0    0    0  501 -0.00000000000E+00 -0.00000000000E+00 -0.17856575394E+03  0.17856575394E+03  0.00000000000E+00 0.  1.
         23    2    1    2    0    0 -0.17235239253E+02  0.33225907880E+02 -0.55754705483E+02  0.11413312053E+03  0.92286334806E+02 0.  0.
          5    1    1    2  502    0 -0.51491077255E+02  0.48806678230E+01 -0.18633391426E+02  0.55134631869E+02  0.41800000000E+01 0. -1.
         -5    1    1    2    0  502  0.68726316508E+02 -0.38106575703E+02 -0.29450523040E+02  0.84025135524E+02  0.41800000000E+01 0. -1.
        -11    1    3    3    0    0 -0.18893308577E+02  0.59349994363E+02 -0.12427558047E+02  0.63512385713E+02  0.00000000000E+00 0. -1.
         11    1    3    3    0    0  0.16580693243E+01 -0.26124086484E+02 -0.43327147436E+02  0.50620734817E+02  0.00000000000E+00 0.  1.
</event>
<event>
 7    1  0.4274778E-006  0.1140626E+03  0.7561462E-02  0.1253226E+00
          1   -1    0    0  501    0  0.00000000000E+00  0.00000000000E+00  0.41847217581E+03  0.41847217581E+03  0.00000000000E+00 0. -1.
         -1   -1    0    0    0  501 -0.00000000000E+00 -0.00000000000E+00 -0.33535653339E+02  0.33535653339E+02  0.00000000000E+00 0.  1.
         23    2    1    2    0    0 -0.24558443588E+02  0.41028650957E+02  0.18400980871E+03  0.21054113492E+03  0.90451602759E+02 0.  0.
          5    1    1    2  502    0  0.44466326682E+02  0.33250116247E+02  0.68514558071E+02  0.88286700622E+02  0.41800000000E+01 0.  1.
         -5    1    1    2    0  502 -0.19907883094E+02 -0.74278767204E+02  0.13241215570E+03  0.15317999361E+03  0.41800000000E+01 0.  1.
        -11    1    3    3    0    0  0.28491031715E+02  0.20453679017E+00  0.24581977014E+02  0.37630497172E+02  0.00000000000E+00 0.  1.
         11    1    3    3    0    0 -0.53049475304E+02  0.40824114167E+02  0.15942783170E+03  0.17291063775E+03  0.00000000000E+00 0. -1.
</event>
<event>
 7    1  0.4274778E-006  0.9627986E+02  0.7561462E-02  0.1288319E+00
          1   -1    0    0  501    0  0.00000000000E+00  0.00000000000E+00  0.69472940981E+03  0.69472940981E+03  0.00000000000E+00 0. -1.
         -1   -1    0    0    0  501 -0.00000000000E+00 -0.00000000000E+00 -0.16074260390E+02  0.16074260390E+02  0.00000000000E+00 0.  1.
         23    2    1    2    0    0 -0.15027562044E+02  0.83997044484E+01  0.24164348660E+03  0.25591976650E+03  0.82504361199E+02 0.  0.
          5    1    1    2  502    0  0.64210041001E+02 -0.21132105222E+02  0.32255889682E+03  0.32959249014E+03  0.41800000000E+01 0.  1.
         -5    1    1    2    0  502 -0.49182478957E+02  0.12732400773E+02  0.11445276600E+03  0.12529141356E+03  0.41800000000E+01 0.  1.
        -11    1    3    3    0    0 -0.15938303290E+02  0.39577352144E+02  0.74168168172E+02  0.85564674279E+02  0.00000000000E+00 0.  1.
         11    1    3    3    0    0  0.91074124593E+00 -0.31177647696E+02  0.16747531842E+03  0.17035509222E+03  0.00000000000E+00 0. -1.
</event>
<event>
 7    1  0.4274778E-006  0.1126119E+03  0.7561462E-02  0.1255808E+00
          2   -1    0    0  501    0  0.00000000000E+00  0.00000000000E+00  0.81345602037E+02  0.81345602037E+02  0.00000000000E+00 0. -1.
         -2   -1    0    0    0  501 -0.00000000000E+00 -0.00000000000E+00 -0.16574776188E+03  0.16574776188E+03  0.00000000000E+00 0.  1.
         23    2    1    2    0    0  0.88668532306E+01 -0.36064701421E+02 -0.70063423353E+01  0.95380736713E+02  0.87573468175E+02 0.  0.
          5    1    1    2  502    0 -0.41988558994E+02  0.70693923457E+02 -0.50981474796E+02  0.96836217773E+02  0.41800000000E+01 0.  1.
         -5    1    1    2    0  502  0.33121705763E+02 -0.34629222036E+02 -0.26414342717E+02  0.54876409436E+02  0.41800000000E+01 0.  1.
        -11    1    3    3    0    0  0.39530645040E+02  0.87544379258E+01 -0.69214091689E+01  0.41075759099E+02  0.00000000000E+00 0. -1.
         11    1    3    3    0    0 -0.30663791810E+02 -0.44819139347E+02 -0.84933166404E-01  0.54304977613E+02  0.00000000000E+00 0.  1.
</event>
<event>
 7    1  0.4274778E-006  0.1047176E+03  0.7561462E-02  0.1270677E+00
         -2   -1    0    0    0  501 -0.00000000000E+00  0.00000000000E+00  0.23063844242E+03  0.23063844242E+03  0.00000000000E+00 0.  1.
          2   -1    0    0  501    0  0.00000000000E+00 -0.00000000000E+00 -0.81376555005E+02  0.81376555005E+02  0.00000000000E+00 0. -1.
         23    2    1    2    0    0  0.69024847520E+02 -0.44039328561E+02  0.43536455867E+02  0.12892868665E+03  0.89572826329E+02 0.  0.
          5    1    1    2  502    0 -0.68061930376E+02  0.23853839674E+02  0.13151884532E+03  0.15005369408E+03  0.41800000000E+01 0. -1.
         -5    1    1    2    0  502 -0.96291714400E+00  0.20185488887E+02 -0.25793413776E+02  0.33032616687E+02  0.41800000000E+01 0. -1.
        -11    1    3    3    0    0  0.87336368277E+02 -0.26669325784E+02  0.48206808097E+02  0.10326078882E+03  0.00000000000E+00 0.  1.
         11    1    3    3    0    0 -0.18311520756E+02 -0.17370002776E+02 -0.46703522306E+01  0.25667897826E+02  0.00000000000E+00 0. -1.
</event>
<event>
 7    1  0.4274778E-006  0.1017675E+03  0.7561462E-02  0.1276622E+00
          2   -1    0    0  501    0  0.00000000000E+00  0.00000000000E+00  0.49967456270E+03  0.49967456270E+03  0.00000000000E+00 0. -1.
         -2   -1    0    0    0  501 -0.00000000000E+00 -0.00000000000E+00 -0.28753850554E+02  0.28753850554E+02  0.00000000000E+00 0.  1.
         23    2    1    2    0    0 -0.49503576981E+02 -0.14482426022E+02  0.22223763107E+03  0.24532651696E+03  0.90195290706E+02 0.  0.
          5    1    1    2  502    0  0.62744671238E+02 -0.31001624958E+02  0.73489940066E+02  0.10156888406E+03  0.41800000000E+01 0.  1.
         -5    1    1    2    0  502 -0.13241094257E+02  0.45484050981E+02  0.17519314101E+03  0.18153301223E+03  0.41800000000E+01 0.  1.
        -11    1    3    3    0    0 -0.43787528172E+02 -0.40248990717E+02  0.74890514181E+02  0.95634292968E+02  0.00000000000E+00 0.  1.
         11    1    3    3    0    0 -0.57160488092E+01  0.25766564694E+02  0.14734711688E+03  0.14969222399E+03  0.00000000000E+00 0. -1.
</event>
<event>
 7    1  0.4274778E-006  0.9672482E+02  0.7561462E-02  0.1287338E+00
         -2   -1    0    0    0  501 -0.00000000000E+00  0.00000000000E+00  0.44783364670E+03  0.44783364670E+03  0.00000000000E+00 0. -1.
          2   -1    0    0  501    0  0.00000000000E+00 -0.00000000000E+00 -0.93289918172E+02  0.93289918172E+02  0.00000000000E+00 0.  1.
         23    2    1    2    0    0  0.44056890101E+02 -0.38097019629E+02 -0.47272846556E+02  0.12030269034E+03  0.94051171239E+02 0.  0.
          5    1    1    2  502    0  0.39372297164E+01 -0.24616922195E+02  0.23336259124E+03  0.23472764223E+03  0.41800000000E+01 0. -1.
         -5    1    1    2    0  502 -0.47994119817E+02  0.62713941824E+02  0.16845398385E+03  0.18609323231E+03  0.41800000000E+01 0.  1.
        -11    1    3    3    0    0  0.62066540900E+02 -0.25442245822E+02 -0.63957259101E+02  0.92682761954E+02  0.00000000000E+00 0. -1.
         11    1    3    3    0    0 -0.18009650799E+02 -0.12654773807E+02  0.16684412545E+02  0.27619928385E+02  0.00000000000E+00 0.  1.
</event>
<event>
 7    1  0.4274778E-006  0.1036993E+03  0.7561462E-02  0.1272704E+00
          1   -1    0    0  501    0  0.00000000000E+00  0.00000000000E+00  0.76647786409E+02  0.76647786409E+02  0.00000000000E+00 0. -1.
         -1   -1    0    0    0  501 -0.00000000000E+00 -0.00000000000E+00 -0.17089977986E+03  0.17089977986E+03  0.00000000000E+00 0.  1.
         23    2    1    2    0    0  0.25045679418E+02 -0.85625675469E+01 -0.19090928939E+02  0.99231757125E+02  0.93711655806E+02 0.  0.
          5    1    1    2  502    0 -0.67169435755E+02  0.34829549157E+01 -0.67760701803E+01  0.67729252186E+02  0.41800000000E+01 0.  1.
         -5    1    1    2    0  502  0.42123756337E+02  0.50796126312E+01 -0.68384994329E+02  0.80586556955E+02  0.41800000000E+01 0.  1.
        -11    1    3    3    0    0  0.44635239730E+02 -0.40261882525E+02 -0.11394098149E+02  0.61181282128E+02  0.00000000000E+00 0. -1.
         11    1    3    3    0    0 -0.19589560312E+02  0.31699314978E+02 -0.76968307897E+01  0.38050474997E+02  0.00000000000E+00 0.  1.
</event>
<event>
 7    1  0.4274778E-006  0.1278455E+03  0.7561462E-02  0.1230688E+00
         -2   -1    0    0    0  501 -0.00000000000E+00  0.00000000000E+00  0.33290612594E+02  0.33290612594E+02  0.00000000000E+00 0.  1.
          2   -1    0    0  501    0  0.00000000000E+00 -0.00000000000E+00 -0.63606362191E+03  0.63606362191E+03  0.00000000000E+00 0. -1.
         23    2    1    2    0    0 -0.68965483662E+02 -0.25338636545E+02 -0.36567520201E+03  0.38414647751E+03  0.91934098055E+02 0.  0.
          5    1    1    2  502    0  0.10657564111E+03  0.44762210660E+02 -0.18108320967E+03  0.21487350699E+03  0.41800000000E+01 0. -1.
         -5    1    1    2    0  502 -0.37610157448E+02 -0.19423574115E+02 -0.56014597645E+02  0.70334250007E+02  0.41800000000E+01 0.  1.
        -11    1    3    3    0    0 -0.64089116700E+02  0.72830015595E+01 -0.32706941133E+03  0.33336895000E+03  0.00000000000E+00 0.  1.
         11    1    3    3    0    0 -0.48763669619E+01 -0.32621638104E+02 -0.38605790671E+02  0.50777527516E+02  0.00000000000E+00 0. -1.
</event>
<event>
 7    1  0.4274778E-006  0.1408794E+03  0.7561462E-02  0.1212151E+00
          2   -1    0    0  501    0  0.00000000000E+00  0.00000000000E+00  0.29612792895E+03  0.29612792895E+03  0.00000000000E+00 0. -1.
         -2   -1    0    0    0  501 -0.00000000000E+00 -0.00000000000E+00 -0.84724070124E+02  0.84724070124E+02  0.00000000000E+00 0.  1.
         23    2    1    2    0    0 -0.11771647111E+03 -0.12297972818E+02  0.13650550473E+03  0.20234040797E+03  0.91101482794E+02 0.  0.
          5    1    1    2  502    0 -0.17862809377E+02  0.11066824864E+02  0.27410455162E+02  0.34790228853E+02  0.41800000000E+01 0. -1.
         -5    1    1    2    0  502  0.13557928049E+03  0.12311479543E+01  0.47487898935E+02  0.14372136226E+03  0.41800000000E+01 0.  1.
        -11    1    3    3    0    0 -0.82775937422E+02  0.97824311533E+01  0.13773198351E+03  0.16098959922E+03  0.00000000000E+00 0.  1.
         11    1    3    3    0    0 -0.34940533691E+02 -0.22080403972E+02 -0.12264787739E+01  0.41350808751E+02  0.00000000000E+00 0. -1.
</event>
<event>
 7    1  0.4274778E-006  0.1100739E+03  0.7561462E-02  0.1260433E+00
          2   -1    0    0  501    0  0.00000000000E+00  0.00000000000E+00  0.23164789468E+03  0.23164789468E+03  0.00000000000E+00 0. -1.
         -2   -1    0    0    0  501 -0.00000000000E+00 -0.00000000000E+00 -0.99326277734E+02  0.99326277734E+02  0.00000000000E+00 0.  1.
         23    2    1    2    0    0 -0.56436622293E+02 -0.45068612270E+02  0.14820688044E+03  0.18566827450E+03  0.85388269673E+02 0.  0.
          5    1    1    2  502    0  0.32653147085E+02  0.68696631368E+02 -0.54748947139E+02  0.93810312806E+02  0.41800000000E+01 0.  1.
         -5    1    1    2    0  502  0.23783475208E+02 -0.23628019097E+02  0.38863683643E+02  0.51495585109E+02  0.41800000000E+01 0.  1.
        -11    1    3    3    0    0 -0.20529430805E+02 -0.65659445527E+02  0.76586526936E+02  0.10294715355E+03  0.00000000000E+00 0. -1.
         11    1    3    3    0    0 -0.35907191488E+02  0.20590833257E+02  0.71620353508E+02  0.82721120951E+02  0.00000000000E+00 0.  1.
</event>
<event>
 7    1  0.4274778E-006  0.1068759E+03  0.7561462E-02  0.1266467E+00
         -2   -1    0    0    0  501 -0.00000000000E+00  0.00000000000E+00  0.15029160977E+04  0.15029160977E+04  0.00000000000E+00 0.  1.
          2   -1    0    0  501    0  0.00000000000E+00 -0.00000000000E+00 -0.12348622860E+02  0.12348622860E+02  0.00000000000E+00 0. -1.
         23    2    1    2    0    0 -0.55570466453E+02  0.41997093628E+02  0.42607834431E+03  0.44118982310E+03  0.90850822265E+02 0.  0.
          5    1    1    2  502    0  0.49956289500E+02  0.73672254009E+01  0.91675924941E+03  0.91815842895E+03  0.41800000000E+01 0.  1.
         -5    1    1    2    0  502  0.56141769530E+01 -0.49364319028E+02  0.14772988114E+03  0.15591646852E+03  0.41800000000E+01 0.  1.
        -11    1    3    3    0    0  0.17392187462E+02  0.36042289089E+02  0.12077533756E+03  0.12723292400E+03  0.00000000000E+00 0. -1.
         11    1    3    3    0    0 -0.72962653915E+02  0.59548045387E+01  0.30530300675E+03  0.31395689910E+03  0.00000000000E+00 0.  1.
</event>
<event>
 7    1  0.4274778E-006  0.7199084E+02  0.7561462E-02  0.1353451E+00
         -1   -1    0    0    0  501 -0.00000000000E+00  0.00000000000E+00  0.10888966605E+03  0.10888966605E+03  0.00000000000E+00 0.  1.
          1   -1    0    0  501    0  0.00000000000E+00 -0.00000000000E+00 -0.10948997234E+03  0.10948997234E+03  0.00000000000E+00 0. -1.
         23    2    1    2    0    0  0.85879880201E+00 -0.10246551165E+02 -0.61697527292E+01  0.92746097410E+02  0.91967621421E+02 0.  0.
          5    1    1    2  502    0 -0.22651953177E+02  0.17481768806E+02 -0.54220384516E+02  0.61449538000E+02  0.41800000000E+01 0.  1.
         -5    1    1    2    0  502  0.21793154375E+02 -0.72352176405E+01  0.59789830960E+02  0.64184002977E+02  0.41800000000E+01 0.  1.
        -11    1    3    3    0    0 -0.42519350433E+02  0.10265608652E+02  0.31941330250E+01  0.43857500704E+02  0.00000000000E+00 0.  1.
         11    1    3    3    0    0  0.43378149235E+02 -0.20512159817E+02 -0.93638857542E+01  0.48888596706E+02  0.00000000000E+00 0. -1.
</event>
<event>
 7    1  0.4274778E-006  0.1441306E+03  0.7561462E-02  0.1207877E+00
         -2   -1    0    0    0  501 -0.00000000000E+00  0.00000000000E+00  0.31191475222E+02  0.31191475222E+02  0.00000000000E+00 0.  1.
          2   -1    0    0  501    0  0.00000000000E+00 -0.00000000000E+00 -0.75455534450E+03  0.75455534450E+03  0.00000000000E+00 0. -1.
         23    2    1    2    0    0  0.52339829802E+02 -0.91038828640E+02 -0.36590102427E+03  0.39273939069E+03  0.96608194967E+02 0.  0.
          5    1    1    2  502    0 -0.10338942588E+02 -0.30466343453E+02 -0.10122348299E+03  0.10629561480E+03  0.41800000000E+01 0. -1.
         -5    1    1    2    0  502 -0.42000887214E+02  0.12150517209E+03 -0.25623936201E+03  0.28671181423E+03  0.41800000000E+01 0. -1.
        -11    1    3    3    0    0  0.69278964596E+01 -0.80205501025E+02 -0.30807352139E+03  0.31841829835E+03  0.00000000000E+00 0.  1.
         11    1    3    3    0    0  0.45411933342E+02 -0.10833327615E+02 -0.57827502881E+02  0.74321092339E+02  0.00000000000E+00 0. -1.
</event>
<event>
 7    1  0.4274778E-006  0.1903461E+03  0.7561462E-02  0.1158150E+00
          1   -1    0    0  501    0  0.00000000000E+00  0.00000000000E+00  0.21602248833E+03  0.21602248833E+03  0.00000000000E+00 0. -1.
         -1   -1    0    0    0  501 -0.00000000000E+00 -0.00000000000E+00 -0.23650232032E+03  0.23650232032E+03  0.00000000000E+00 0.  1.
         23    2    1    2    0    0 -0.26081921244E+02 -0.17143569552E+03  0.85785963132E+02  0.21375541964E+03  0.90893804198E+02 0.  0.
          5    1    1    2  502    0 -0.29391083205E+02  0.13168311788E+03 -0.10391891485E+03  0.17035519532E+03  0.41800000000E+01 0. -1.
         -5    1    1    2    0  502  0.55473004449E+02  0.39752577636E+02 -0.23468802745E+01  0.68414193691E+02  0.41800000000E+01 0. -1.
        -11    1    3    3    0    0 -0.34730574941E+02 -0.11178831611E+03  0.10809302260E+02  0.11755714130E+03  0.00000000000E+00 0.  1.
         11    1    3    3    0    0  0.86486536965E+01 -0.59647379411E+02  0.74976660872E+02  0.96198278346E+02  0.00000000000E+00 0. -1.
</event>
<event>
 7    1  0.4274778E-006  0.1373759E+03  0.7561462E-02  0.1216904E+00
         -2   -1    0    0    0  501 -0.00000000000E+00  0.00000000000E+00  0.30649362408E+02  0.30649362408E+02  0.00000000000E+00 0.  1.
          2   -1    0    0  501    0  0.00000000000E+00 -0.00000000000E+00 -0.75432353971E+03  0.75432353971E+03  0.00000000000E+00 0. -1.
         23    2    1    2    0    0 -0.10076467730E+03  0.24990889828E+02 -0.38702218465E+03  0.41112490994E+03  0.91975297770E+02 0.  0.
          5    1    1    2  502    0  0.12442507854E+02 -0.58090769757E+02 -0.75553099804E+02  0.96203413779E+02  0.41800000000E+01 0. -1.
         -5    1    1    2    0  502  0.88322169443E+02  0.33099879929E+02 -0.26109889285E+03  0.27764457840E+03  0.41800000000E+01 0. -1.
        -11    1    3    3    0    0 -0.26808472128E+02 -0.20683373817E+02 -0.35676579366E+02  0.49186527074E+02  0.00000000000E+00 0.  1.
         11    1    3    3    0    0 -0.73956205169E+02  0.45674263645E+02 -0.35134560528E+03  0.36193838287E+03  0.00000000000E+00 0. -1.
</event>
<event>
 7    1  0.4274778E-006  0.1257069E+03  0.7561462E-02  0.1233969E+00
         -2   -1    0    0    0  501 -0.00000000000E+00  0.00000000000E+00  0.25210299085E+02  0.25210299085E+02  0.00000000000E+00 0.  1.
          2   -1    0    0  501    0  0.00000000000E+00 -0.00000000000E+00 -0.72436349686E+03  0.72436349686E+03  0.00000000000E+00 0. -1.
         23    2    1    2    0    0 -0.36789452778E+02  0.61703130642E+02 -0.41333733875E+03  0.42941937987E+03  0.91610632750E+02 0.  0.
          5    1    1    2  502    0  0.41571225362E+02 -0.98267102605E+02 -0.22163132848E+03  0.24601322809E+03  0.41800000000E+01 0.  1.
         -5    1    1    2    0  502 -0.47817725842E+01  0.36563971963E+02 -0.64184530540E+02  0.74141187982E+02  0.41800000000E+01 0.  1.
        -11    1    3    3    0    0  0.57815983377E+01  0.64594509210E+02 -0.32385206742E+03  0.33028175710E+03  0.00000000000E+00 0. -1.
         11    1    3    3    0    0 -0.42571051116E+02 -0.28913785684E+01 -0.89485271333E+02  0.99137622771E+02  0.00000000000E+00 0.  1.
</event>
<event>
 7    1  0.4274778E-006  0.1110433E+03  0.7561462E-02  0.1258650E+00
         -1   -1    0    0    0  501 -0.00000000000E+00  0.00000000000E+00  0.70988929614E+02  0.70988929614E+02  0.00000000000E+00 0.  1.
          1   -1    0    0  501    0  0.00000000000E+00 -0.00000000000E+00 -0.24630641163E+03  0.24630641163E+03  0.00000000000E+00 0. -1.
         23    2    1    2    0    0  0.12456585965E+02  0.76673199489E+02 -0.76371087179E+02  0.13989507882E+03  0.87773253718E+02 0.  0.
          5    1    1    2  502    0 -0.57283677984E+02 -0.80051396785E+02 -0.48879460699E+02  0.10998327131E+03  0.41800000000E+01 0.  1.
         -5    1    1    2    0  502  0.44827092019E+02  0.33781972967E+01 -0.50066934136E+02  0.67416991105E+02  0.41800000000E+01 0.  1.
        -11    1    3    3    0    0  0.22973048540E+01  0.46877102217E+02  0.99816799813E+01  0.47983062190E+02  0.00000000000E+00 0.  1.
         11    1    3    3    0    0  0.10159281111E+02  0.29796097272E+02 -0.86352767161E+02  0.91912016633E+02  0.00000000000E+00 0. -1.
</event>
<event>
 7    1  0.4274778E-006  0.5067383E+03  0.7561462E-02  0.1012035E+00
          2   -1    0    0  501    0  0.00000000000E+00  0.00000000000E+00  0.16595905626E+03  0.16595905626E+03  0.00000000000E+00 0. -1.
         -2   -1    0    0    0  501 -0.00000000000E+00 -0.00000000000E+00 -0.17791971691E+04  0.17791971691E+04  0.00000000000E+00 0.  1.
         23    2    1    2    0    0 -0.22016753983E+03 -0.45305562083E+03 -0.49351749039E+03  0.71099440390E+03  0.90666354819E+02 0.  0.
          5    1    1    2  502    0  0.17342986535E+03  0.41302733145E+03 -0.10469626906E+04  0.11387791018E+04  0.41800000000E+01 0.  1.
         -5    1    1    2    0  502  0.46737674487E+02  0.40028289375E+02 -0.72757931824E+02  0.95382719662E+02  0.41800000000E+01 0.  1.
        -11    1    3    3    0    0 -0.23893482873E+02 -0.56628793616E+02 -0.10779988348E+03  0.12409082831E+03  0.00000000000E+00 0.  1.
         11    1    3    3    0    0 -0.19627405696E+03 -0.39642682721E+03 -0.38571760691E+03  0.58690357560E+03  0.00000000000E+00 0. -1.
</event>
<event>
 7    1  0.4274778E-006  0.1465750E+03  0.7561462E-02  0.1204746E+00
         -1   -1    0    0    0  501 -0.00000000000E+00  0.00000000000E+00  0.36577196045E+02  0.36577196045E+02  0.00000000000E+00 0.  1.
          1   -1    0    0  501    0  0.00000000000E+00 -0.00000000000E+00 -0.10137463377E+04  0.10137463377E+04  0.00000000000E+00 0. -1.
         23    2    1    2    0    0 -0.10990781619E+03 -0.82891220996E+02 -0.67805521750E+03  0.69809135114E+03  0.92854585159E+02 0.  0.
          5    1    1    2  502    0  0.29401111241E+02  0.17950057069E+02  0.10531478745E+01  0.34716154905E+02  0.41800000000E+01 0.  1.
         -5    1    1    2    0  502  0.80506704949E+02  0.64941163927E+02 -0.30016707205E+03  0.31751602771E+03  0.41800000000E+01 0.  1.
        -11    1    3    3    0    0 -0.38681512355E+02  0.79556292641E+01 -0.82671209725E+02  0.91619213883E+02  0.00000000000E+00 0.  1.
         11    1    3    3    0    0 -0.71226303835E+02 -0.90846850260E+02 -0.59538400778E+03  0.60647213726E+03  0.00000000000E+00 0. -1.
</event>
<event>
 7    1  0.4274778E-006  0.9059490E+02  0.7561462E-02  0.1301417E+00
         -1   -1    0    0    0  501 -0.00000000000E+00  0.00000000000E+00  0.25507669129E+03  0.25507669129E+03  0.00000000000E+00 0.  1.
          1   -1    0    0  501    0  0.00000000000E+00 -0.00000000000E+00 -0.15956216513E+03  0.15956216513E+03  0.00000000000E+00 0. -1.
         23    2    1    2    0    0 -0.19605006545E+02 -0.30530874647E+02 -0.12479435695E+03  0.15891263297E+03  0.91450001664E+02 0.  0.
          5    1    1    2  502    0  0.16983343190E+02 -0.43170141300E+02  0.41980950062E+02  0.62705403387E+02  0.41800000000E+01 0. -1.
         -5    1    1    2    0  502  0.26216633546E+01  0.73701015947E+02  0.17832793305E+03  0.19302082006E+03  0.41800000000E+01 0.  1.
        -11    1    3    3    0    0 -0.18643971930E+01  0.13315709841E+02  0.95453265485E+01  0.16489310610E+02  0.00000000000E+00 0.  1.
         11    1    3    3    0    0 -0.17740609352E+02 -0.43846584488E+02 -0.13433968350E+03  0.14242332236E+03  0.00000000000E+00 0. -1.
</event>
<event>
 7    1  0.4274778E-006  0.1178349E+03  0.7561462E-02  0.1246712E+00
          1   -1    0    0  501    0  0.00000000000E+00  0.00000000000E+00  0.15970049852E+03  0.15970049852E+03  0.00000000000E+00 0. -1.
         -1   -1    0    0    0  501 -0.00000000000E+00 -0.00000000000E+00 -0.97117105094E+02  0.97117105094E+02  0.00000000000E+00 0.  1.
         23    2    1    2    0    0  0.37376529849E+02  0.49366668684E+02  0.34314029530E+02  0.11440882430E+03  0.89876879638E+02 0.  0.
          5    1    1    2  502    0  0.17748773156E+02  0.32753292814E+02  0.21425395849E+02  0.43177738778E+02  0.41800000000E+01 0.  1.
         -5    1    1    2    0  502 -0.55125303005E+02 -0.82119961498E+02  0.68439680451E+01  0.99231040539E+02  0.41800000000E+01 0.  1.
        -11    1    3    3    0    0 -0.14936908735E+02 -0.11557335424E+02 -0.11346988623E+02  0.22032643860E+02  0.00000000000E+00 0.  1.
         11    1    3    3    0    0  0.52313438584E+02  0.60924004108E+02  0.45661018153E+02  0.92376180435E+02  0.00000000000E+00 0. -1.
</event>
<event>
 7    1  0.4274778E-006  0.1124426E+03  0.7561462E-02  0.1256112E+00
         -1   -1    0    0    0  501 -0.00000000000E+00  0.00000000000E+00  0.10446101499E+03  0.10446101499E+03  0.00000000000E+00 0.  1.
          1   -1    0    0  501    0  0.00000000000E+00 -0.00000000000E+00 -0.33168017859E+03  0.33168017859E+03  0.00000000000E+00 0. -1.
         23    2    1    2    0    0  0.99417503476E+02  0.25773257843E+01 -0.22279558439E+03  0.26037256972E+03  0.90914905449E+02 0.  0.
          5    1    1    2  502    0 -0.39457734013E+02  0.20375598514E+02 -0.70575246701E+02  0.83489015057E+02  0.41800000000E+01 0. -1.
         -5    1    1    2    0  502 -0.59959769463E+02 -0.22952924298E+02  0.66151667500E+02  0.92279608804E+02  0.41800000000E+01 0.  1.
        -11    1    3    3    0    0  0.92949924666E+02 -0.17733430043E+02 -0.21920426270E+03  0.23875651158E+03  0.00000000000E+00 0. -1.
         11    1    3    3    0    0  0.64675788101E+01  0.20310755828E+02 -0.35913216906E+01  0.21616058138E+02  0.00000000000E+00 0.  1.
</event>
<event>
 7    1  0.4274778E-006  0.1022558E+03  0.7561462E-02  0.1275622E+00
          2   -1    0    0  501    0  0.00000000000E+00  0.00000000000E+00  0.45896069597E+03  0.45896069597E+03  0.00000000000E+00 0. -1.
         -2   -1    0    0    0  501 -0.00000000000E+00 -0.00000000000E+00 -0.34889402284E+02  0.34889402284E+02  0.00000000000E+00 0.  1.
         23    2    1    2    0    0 -0.46171172531E+02  0.45834465328E+02  0.19994067149E+03  0.22905945215E+03  0.90881159304E+02 0.  0.
          5    1    1    2  502    0  0.34020798998E+02  0.98818212951E+01  0.19927569567E+03  0.20244342528E+03  0.41800000000E+01 0. -1.
         -5    1    1    2    0  502  0.12150373533E+02 -0.55716286624E+02  0.24854926530E+02  0.62347220828E+02  0.41800000000E+01 0. -1.
        -11    1    3    3    0    0 -0.54842870962E+02 -0.94921263483E+01  0.10467651160E+03  0.11855384025E+03  0.00000000000E+00 0. -1.
         11    1    3    3    0    0  0.86716984308E+01  0.55326591677E+02  0.95264159891E+02  0.11050561189E+03  0.00000000000E+00 0.  1.
</event>
<event>
 7    1  0.4274778E-006  0.1147240E+03  0.7561462E-02  0.1252064E+00
          3   -1    0    0  501    0  0.00000000000E+00  0.00000000000E+00  0.45470266010E+03  0.45470266010E+03  0.00000000000E+00 0. -1.
         -3   -1    0    0    0  501 -0.00000000000E+00 -0.00000000000E+00 -0.46150151837E+02  0.46150151837E+02  0.00000000000E+00 0.  1.
         23    2    1    2    0    0 -0.22465311200E+02  0.54858862502E+02  0.30743770503E+03  0.32943331404E+03  0.10244110952E+03 0.  0.
          5    1    1    2  502    0 -0.35094916449E+02 -0.48928129868E+01  0.86671834855E+02  0.93728715646E+02  0.41800000000E+01 0. -1.
         -5    1    1    2    0  502  0.57560227649E+02 -0.49966049516E+02  0.14442968369E+02  0.77690782249E+02  0.41800000000E+01 0. -1.
        -11    1    3    3    0    0  0.34716887653E+02 -0.45032225752E+01  0.11145500485E+03  0.11682362522E+03  0.00000000000E+00 0.  1.
         11    1    3    3    0    0 -0.57182198853E+02  0.59362085078E+02  0.19598270018E+03  0.21260968882E+03  0.00000000000E+00 0. -1.
</event>
<event>
 7    1  0.4274778E-006  0.8497432E+02  0.7561462E-02  0.1315500E+00
          2   -1    0    0  501    0  0.00000000000E+00  0.00000000000E+00  0.53884089037E+02  0.53884089037E+02  0.00000000000E+00 0. -1.
         -2   -1    0    0    0  501 -0.00000000000E+00 -0.00000000000E+00 -0.22481909217E+03  0.22481909217E+03  0.00000000000E+00 0.  1.
         23    2    1    2    0    0 -0.81642964372E+01  0.13030665687E+02 -0.57610721221E+02  0.10921376707E+03  0.91499714395E+02 0.  0.
          5    1    1    2  502    0  0.62164547493E+02 -0.28755823912E+02 -0.51436748981E+02  0.85758614259E+02  0.41800000000E+01 0. -1.
         -5    1    1    2    0  502 -0.54000251056E+02  0.15725158225E+02 -0.61887532929E+02  0.83730799873E+02  0.41800000000E+01 0. -1.
        -11    1    3    3    0    0  0.76241745025E+01 -0.12658049232E+02 -0.73610518434E+02  0.75079042824E+02  0.00000000000E+00 0.  1.
         11    1    3    3    0    0 -0.15788470940E+02  0.25688714919E+02  0.15999797213E+02  0.34134724250E+02  0.00000000000E+00 0. -1.
</event>
<event>
 7    1  0.4274778E-006  0.1247846E+03  0.7561462E-02  0.1235406E+00
         -1   -1    0    0    0  501 -0.00000000000E+00  0.00000000000E+00  0.28771831788E+02  0.28771831788E+02  0.00000000000E+00 0.  1.
          1   -1    0    0  501    0  0.00000000000E+00 -0.00000000000E+00 -0.63115341174E+03  0.63115341174E+03  0.00000000000E+00 0. -1.
         23    2    1    2    0    0  0.20103119699E+02 -0.63804862310E+02 -0.37161015264E+03  0.38904113033E+03  0.93721393874E+02 0.  0.
          5    1    1    2  502    0 -0.55638195227E+02  0.82025578970E+02 -0.13955755314E+03  0.17122379335E+03  0.41800000000E+01 0.  1.
         -5    1    1    2    0  502  0.35535075528E+02 -0.18220716661E+02 -0.91213874179E+02  0.99660319843E+02  0.41800000000E+01 0.  1.
        -11    1    3    3    0    0  0.48545194509E+02 -0.10310126461E+02 -0.22495384800E+03  0.23036312281E+03  0.00000000000E+00 0. -1.
         11    1    3    3    0    0 -0.28442074810E+02 -0.53494735848E+02 -0.14665630464E+03  0.15867800753E+03  0.00000000000E+00 0.  1.
</event>
<event>
 7    1  0.4274778E-006  0.9345810E+02  0.7561462E-02  0.1294687E+00
          3   -1    0    0  501    0  0.00000000000E+00  0.00000000000E+00  0.74132679563E+02  0.74132679563E+02  0.00000000000E+00 0.  1.
         -3   -1    0    0    0  501 -0.00000000000E+00 -0.00000000000E+00 -0.22165101170E+03  0.22165101170E+03  0.00000000000E+00 0. -1.
         23    2    1    2    0    0  0.30080092859E+02  0.19485019212E+02 -0.91087688805E+00  0.99758410211E+02  0.93093677288E+02 0.  0.
          5    1    1    2  502    0 -0.32413528704E+02 -0.51353709440E+02 -0.15164656217E+03  0.16340744333E+03  0.41800000000E+01 0.  1.
         -5    1    1    2    0  502  0.23334358451E+01  0.31868690227E+02  0.50391069177E+01  0.32617837730E+02  0.41800000000E+01 0.  1.
        -11    1    3    3    0    0  0.12819704030E+02  0.53854097951E+02 -0.17231921825E+02  0.57978856554E+02  0.00000000000E+00 0. -1.
         11    1    3    3    0    0  0.17260388829E+02 -0.34369078739E+02  0.16321044937E+02  0.41779553657E+02  0.00000000000E+00 0.  1.
</event>
<event>
 7    1  0.4274778E-006  0.1134028E+03  0.7561462E-02  0.1254395E+00
          2   -1    0    0  501    0  0.00000000000E+00  0.00000000000E+00  0.97644680485E+03  0.97644680485E+03  0.00000000000E+00 0. -1.
         -2   -1    0    0    0  501 -0.00000000000E+00 -0.00000000000E+00 -0.14396358573E+02  0.14396358573E+02  0.00000000000E+00 0.  1.
         23    2    1    2    0    0  0.32257219492E+02  0.20853923138E+02  0.33923919657E+03  0.35443189583E+03  0.95201480943E+02 0.  0.
          5    1    1    2  502    0  0.35304478186E+02  0.29691778716E+02  0.21108001884E+03  0.21610241706E+03  0.41800000000E+01 0. -1.
         -5    1    1    2    0  502 -0.67561697678E+02 -0.50545701854E+02  0.41173123086E+03  0.42030885053E+03  0.41800000000E+01 0. -1.
        -11    1    3    3    0    0 -0.42892756498E+01 -0.31702666815E+02  0.17976297690E+03  0.18258747173E+03  0.00000000000E+00 0. -1.
         11    1    3    3    0    0  0.36546495142E+02  0.52556589953E+02  0.15947621967E+03  0.17184442410E+03  0.00000000000E+00 0.  1.
</event>
<event>
 7    1  0.4274778E-006  0.1944137E+03  0.7561462E-02  0.1154540E+00
          2   -1    0    0  501    0  0.00000000000E+00  0.00000000000E+00  0.10226362992E+04  0.10226362992E+04  0.00000000000E+00 0. -1.
         -2   -1    0    0    0  501 -0.00000000000E+00 -0.00000000000E+00 -0.57887981302E+02  0.57887981302E+02  0.00000000000E+00 0.  1.
         23    2    1    2    0    0 -0.17575095505E+03 -0.52388524225E+02  0.72219087714E+03  0.75078587383E+03  0.92123882029E+02 0.  0.
          5    1    1    2  502    0  0.51805833199E+02  0.12685261454E+02  0.17509174510E+03  0.18308290967E+03  0.41800000000E+01 0. -1.
         -5    1    1    2    0  502  0.12394512186E+03  0.39703262771E+02  0.67465695627E+02  0.14665549697E+03  0.41800000000E+01 0.  1.
        -11    1    3    3    0    0 -0.65850158585E+02  0.25280093887E+02  0.26064900185E+03  0.27002449648E+03  0.00000000000E+00 0. -1.
         11    1    3    3    0    0 -0.10990079647E+03 -0.77668618112E+02  0.46154187530E+03  0.48076137735E+03  0.00000000000E+00 0.  1.
</event>
<event>
 7    1  0.4274778E-006  0.2265977E+03  0.7561462E-02  0.1129058E+00
          1   -1    0    0  501    0  0.00000000000E+00  0.00000000000E+00  0.94266715573E+02  0.94266715573E+02  0.00000000000E+00 0. -1.
         -1   -1    0    0    0  501 -0.00000000000E+00 -0.00000000000E+00 -0.65516062042E+03  0.65516062042E+03  0.00000000000E+00 0.  1.
         23    2    1    2    0    0 -0.71801131594E+02  0.18425663546E+03 -0.12548979105E+03  0.25512868170E+03  0.10117828995E+03 0.  0.
          5    1    1    2  502    0  0.83609342889E+02 -0.19667339020E+03 -0.41820472349E+03  0.46966329193E+03  0.41800000000E+01 0. -1.
         -5    1    1    2    0  502 -0.11808211295E+02  0.12416754743E+02 -0.17199390310E+02  0.24635362376E+02  0.41800000000E+01 0. -1.
        -11    1    3    3    0    0 -0.87948158054E+02  0.88744211631E+02 -0.77489220148E+02  0.14702038240E+03  0.00000000000E+00 0.  1.
         11    1    3    3    0    0  0.16147026461E+02  0.95512423827E+02 -0.48000570901E+02  0.10810829929E+03  0.00000000000E+00 0. -1.
</event>
<event>
 7    1  0.4274778E-006  0.1198461E+03  0.7561462E-02  0.1243351E+00
          2   -1    0    0  501    0  0.00000000000E+00  0.00000000000E+00  0.79293682958E+03  0.79293682958E+03  0.00000000000E+00 0. -1.
         -2   -1    0    0    0  501 -0.00000000000E+00 -0.00000000000E+00 -0.24958856432E+02  0.24958856432E+02  0.00000000000E+00 0.  1.
         23    2    1    2    0    0  0.86506789123E+02 -0.99263475498E+01  0.40157452120E+03  0.42105637031E+03  0.91893492491E+02 0.  0.
          5    1    1    2  502    0 -0.80984976740E+02 -0.46090719557E+02  0.19064904678E+03  0.21224385109E+03  0.41800000000E+01 0. -1.
         -5    1    1    2    0  502 -0.55218123835E+01  0.56017067107E+02  0.17575440517E+03  0.18459546461E+03  0.41800000000E+01 0. -1.
        -11    1    3    3    0    0  0.10399813165E+02 -0.91649078851E+01  0.16568271239E+01  0.13960541771E+02  0.00000000000E+00 0.  1.
         11    1    3    3    0    0  0.76106975958E+02 -0.76143966471E+00  0.39991769407E+03  0.40709582854E+03  0.00000000000E+00 0. -1.
</event>
<event>
 7    1  0.4274778E-006  0.1149910E+03  0.7561462E-02  0.1251597E+00
         -1   -1    0    0    0  501 -0.00000000000E+00  0.00000000000E+00  0.19272274062E+03  0.19272274062E+03  0.00000000000E+00 0.  1.
          1   -1    0    0  501    0  0.00000000000E+00 -0.00000000000E+00 -0.71987369558E+02  0.71987369558E+02  0.00000000000E+00 0. -1.
         23    2    1    2    0    0 -0.55704151275E+01 -0.41619284136E+02  0.32242008406E+02  0.10579845446E+03  0.91600062898E+02 0.  0.
          5    1    1    2  502    0  0.50524637446E+02  0.62259867526E+02  0.40762297791E+02  0.90044807816E+02  0.41800000000E+01 0. -1.
         -5    1    1    2    0  502 -0.44954222318E+02 -0.20640583390E+02  0.47731064865E+02  0.68866847903E+02  0.41800000000E+01 0. -1.
        -11    1    3    3    0    0 -0.35512341573E+02  0.12954328996E+02  0.61279775504E+01  0.38294818874E+02  0.00000000000E+00 0.  1.
         11    1    3    3    0    0  0.29941926446E+02 -0.54573613132E+02  0.26114030855E+02  0.67503635584E+02  0.00000000000E+00 0. -1.
</event>
<event>
 7    1  0.4274778E-006  0.1062875E+03  0.7561462E-02  0.1267604E+00
          1   -1    0    0  501    0  0.00000000000E+00  0.00000000000E+00  0.59644251397E+02  0.59644251397E+02  0.00000000000E+00 0. -1.
         -1   -1    0    0    0  501 -0.00000000000E+00 -0.00000000000E+00 -0.31730976841E+03  0.31730976841E+03  0.00000000000E+00 0.  1.
         23    2    1    2    0    0 -0.76428931441E+02  0.16202270145E+02 -0.86513076361E+02  0.15102230269E+03  0.96017333906E+02 0.  0.
          5    1    1    2  502    0  0.82356516212E+02 -0.14754613050E+02 -0.18893401670E+03  0.20667324316E+03  0.41800000000E+01 0.  1.
         -5    1    1    2    0  502 -0.59275847704E+01 -0.14476570955E+01  0.17781576052E+02  0.19258473957E+02  0.41800000000E+01 0.  1.
        -11    1    3    3    0    0  0.21041262056E+02  0.11132232966E+02 -0.29796408276E+02  0.38137740702E+02  0.00000000000E+00 0. -1.
         11    1    3    3    0    0 -0.97470193497E+02  0.50700371789E+01 -0.56716668086E+02  0.11288456199E+03  0.00000000000E+00 0.  1.
</event>
<event>
 7    1  0.4274778E-006  0.1398348E+03  0.7561462E-02  0.1213551E+00
          2   -1    0    0  501    0  0.00000000000E+00  0.00000000000E+00  0.22071863938E+02  0.22071863938E+02  0.00000000000E+00 0. -1.
         -2   -1    0    0    0  501 -0.00000000000E+00 -0.00000000000E+00 -0.10422221186E+04  0.10422221186E+04  0.00000000000E+00 0.  1.
         23    2    1    2    0    0 -0.68177573035E+02  0.65497530112E+02 -0.29491494092E+03  0.32230183211E+03  0.89249877794E+02 0.  0.
          5    1    1    2  502    0  0.21747097514E+02  0.37163346341E+02 -0.16941145741E+03  0.17484783345E+03  0.41800000000E+01 0. -1.
         -5    1    1    2    0  502  0.46430475521E+02 -0.10266087645E+03 -0.55582385632E+03  0.56714431697E+03  0.41800000000E+01 0. -1.
        -11    1    3    3    0    0 -0.37917050547E+02 -0.12558184145E+02 -0.14709991035E+03  0.15242635709E+03  0.00000000000E+00 0.  1.
         11    1    3    3    0    0 -0.30260522488E+02  0.78055714257E+02 -0.14781503057E+03  0.16987547502E+03  0.00000000000E+00 0. -1.
</event>
<event>
 7    1  0.4274778E-006  0.1415355E+03  0.7561462E-02  0.1211278E+00
          1   -1    0    0  501    0  0.00000000000E+00  0.00000000000E+00  0.54800786984E+02  0.54800786984E+02  0.00000000000E+00 0. -1.
         -1   -1    0    0    0  501 -0.00000000000E+00 -0.00000000000E+00 -0.42664168839E+03  0.42664168839E+03  0.00000000000E+00 0.  1.
         23    2    1    2    0    0 -0.75733805946E+02  0.64987852512E+02 -0.13017778417E+03  0.18721043476E+03  0.90235586399E+02 0.  0.
          5    1    1    2  502    0  0.33535680796E+01 -0.90074482799E+02 -0.11541749672E+03  0.14650368534E+03  0.41800000000E+01 0. -1.
         -5    1    1    2    0  502  0.72380237866E+02  0.25086630286E+02 -0.12624562052E+03  0.14772835528E+03  0.41800000000E+01 0.  1.
        -11    1    3    3    0    0 -0.17782385241E+02 -0.10730162685E+02  0.54012856555E+01  0.21459811342E+02  0.00000000000E+00 0.  1.
         11    1    3    3    0    0 -0.57951420705E+02  0.75718015198E+02 -0.13557906983E+03  0.16575062341E+03  0.00000000000E+00 0. -1.
</event>
<event>
 7    1  0.4274778E-006  0.6360496E+02  0.7561462E-02  0.1383297E+00
         -1   -1    0    0    0  501 -0.00000000000E+00  0.00000000000E+00  0.43302995265E+03  0.43302995265E+03  0.00000000000E+00 0.  1.
          1   -1    0    0  501    0  0.00000000000E+00 -0.00000000000E+00 -0.29050134679E+02  0.29050134679E+02  0.00000000000E+00 0. -1.
         23    2    1    2    0    0 -0.16938283061E+02  0.10170471577E+02  0.12602880595E+03  0.15661227211E+03  0.90850426096E+02 0.  0.
          5    1    1    2  502    0  0.86723195969E+01  0.14905687235E+02 -0.71394736105E+01  0.19126764561E+02  0.41800000000E+01 0.  1.
         -5    1    1    2    0  502  0.82659634645E+01 -0.25076158812E+02  0.28509048563E+03  0.28634105065E+03  0.41800000000E+01 0.  1.
        -11    1    3    3    0    0 -0.12587122937E+02  0.45463167006E+02  0.10546538812E+03  0.11553477100E+03  0.00000000000E+00 0.  1.
         11    1    3    3    0    0 -0.43511601240E+01 -0.35292695429E+02  0.20563417829E+02  0.41077501115E+02  0.00000000000E+00 0. -1.
</event>
<event>
 7    1  0.4274778E-006  0.9557270E+02  0.7561462E-02  0.1289891E+00
          1   -1    0    0  501    0  0.00000000000E+00  0.00000000000E+00  0.29647699099E+03  0.29647699099E+03  0.00000000000E+00 0. -1.
         -1   -1    0    0    0  501 -0.00000000000E+00 -0.00000000000E+00 -0.85844270493E+02  0.85844270493E+02  0.00000000000E+00 0.  1.
         23    2    1    2    0    0  0.93735705906E+01  0.59835487007E+02  0.21825517005E+03  0.24313892318E+03  0.88391557185E+02 0.  0.
          5    1    1    2  502    0  0.14508525183E+01  0.19439059319E+02 -0.46156561532E+02  0.50278052594E+02  0.41800000000E+01 0. -1.
         -5    1    1    2    0  502 -0.10824423109E+02 -0.79274546326E+02  0.38534111979E+02  0.88904285705E+02  0.41800000000E+01 0. -1.
        -11    1    3    3    0    0  0.22553188765E+02 -0.64893604432E+01  0.12568841376E+02  0.26622056569E+02  0.00000000000E+00 0.  1.
         11    1    3    3    0    0 -0.13179618174E+02  0.66324847450E+02  0.20568632867E+03  0.21651686661E+03  0.00000000000E+00 0. -1.
</event>
<event>
 7    1  0.4274778E-006  0.2221094E+03  0.7561462E-02  0.1132320E+00
          2   -1    0    0  501    0  0.00000000000E+00  0.00000000000E+00  0.37762077404E+03  0.37762077404E+03  0.00000000000E+00 0. -1.
         -2   -1    0    0    0  501 -0.00000000000E+00 -0.00000000000E+00 -0.24654177522E+03  0.24654177522E+03  0.00000000000E+00 0.  1.
         23    2    1    2    0    0  0.13660575502E+03 -0.15855460699E+03  0.26183945464E+03  0.34749417007E+03  0.91605690442E+02 0.  0.
          5    1    1    2  502    0 -0.11597399549E+03  0.54685222546E+02 -0.10930057860E+03  0.16853643546E+03  0.41800000000E+01 0.  1.
         -5    1    1    2    0  502 -0.20631759528E+02  0.10386938444E+03 -0.21459877221E+02  0.10813194373E+03  0.41800000000E+01 0.  1.
        -11    1    3    3    0    0  0.78561848032E+02 -0.10358691306E+03  0.22412658596E+03  0.25910410853E+03  0.00000000000E+00 0.  1.
         11    1    3    3    0    0  0.58043906990E+02 -0.54967693929E+02  0.37712868686E+02  0.88390061540E+02  0.00000000000E+00 0. -1.
</event>
<event>
 7    1  0.4274778E-006  0.9849373E+02  0.7561462E-02  0.1283496E+00
         -2   -1    0    0    0  501 -0.00000000000E+00  0.00000000000E+00  0.69166331613E+02  0.69166331613E+02  0.00000000000E+00 0. -1.
          2   -1    0    0  501    0  0.00000000000E+00 -0.00000000000E+00 -0.18426717874E+03  0.18426717874E+03  0.00000000000E+00 0.  1.
         23    2    1    2    0    0  0.15936170456E+02  0.47084134728E+01 -0.77694270953E+02  0.12181542278E+03  0.92338869406E+02 0.  0.
          5    1    1    2  502    0 -0.63358722729E+02  0.17933062559E+02 -0.42769560559E+02  0.78629702969E+02  0.41800000000E+01 0. -1.
         -5    1    1    2    0  502  0.47422552273E+02 -0.22641476032E+02  0.53629843836E+01  0.52988384600E+02  0.41800000000E+01 0. -1.
        -11    1    3    3    0    0  0.19608825250E+01 -0.35586926384E+02 -0.69895881994E+02  0.78458324666E+02  0.00000000000E+00 0.  1.
         11    1    3    3    0    0  0.13975287931E+02  0.40295339856E+02 -0.77983889585E+01  0.43357098118E+02  0.00000000000E+00 0. -1.
</event>
<event>
 7    1  0.4274778E-006  0.8975542E+02  0.7561462E-02  0.1303445E+00
          3   -1    0    0  501    0  0.00000000000E+00  0.00000000000E+00  0.18929245236E+02  0.18929245236E+02  0.00000000000E+00 0. -1.
         -3   -1    0    0    0  501 -0.00000000000E+00 -0.00000000000E+00 -0.84163310570E+03  0.84163310570E+03  0.00000000000E+00 0.  1.
         23    2    1    2    0    0  0.12344093660E+02 -0.35344254545E+02 -0.15216141536E+03  0.17742514103E+03  0.83216533013E+02 0.  0.
          5    1    1    2  502    0  0.35923831731E+02 -0.17788426667E+01 -0.51157638836E+03  0.51285627567E+03  0.41800000000E+01 0. -1.
         -5    1    1    2    0  502 -0.48267925391E+02  0.37123097212E+02 -0.15896605674E+03  0.17028093423E+03  0.41800000000E+01 0. -1.
        -11    1    3    3    0    0  0.10813139075E+02  0.22203649175E+02 -0.87182088403E+02  0.90612595988E+02  0.00000000000E+00 0.  1.
         11    1    3    3    0    0  0.15309545842E+01 -0.57547903720E+02 -0.64979326957E+02  0.86812545040E+02  0.00000000000E+00 0. -1.
</event>
<event>
 7    1  0.4274778E-006  0.9995645E+02  0.7561462E-02  0.1280388E+00
         -1   -1    0    0    0  501 -0.00000000000E+00  0.00000000000E+00  0.39352862010E+03  0.39352862010E+03  0.00000000000E+00 0.  1.
          1   -1    0    0  501    0  0.00000000000E+00 -0.00000000000E+00 -0.36544184806E+02  0.36544184806E+02  0.00000000000E+00 0. -1.
         23    2    1    2    0    0  0.75390312915E+00  0.88750299844E+01  0.51971891300E+02  0.10564946916E+03  0.91549977183E+02 0.  0.
          5    1    1    2  502    0  0.80118679899E+01 -0.58892417601E+02  0.16517518624E+03  0.17559277157E+03  0.41800000000E+01 0. -1.
         -5    1    1    2    0  502 -0.87657711191E+01  0.50017387616E+02  0.13983735775E+03  0.14883056417E+03  0.41800000000E+01 0.  1.
        -11    1    3    3    0    0 -0.82754591610E+01  0.48264400791E+02  0.40757785926E+02  0.63711323339E+02  0.00000000000E+00 0.  1.
         11    1    3    3    0    0  0.90293622902E+01 -0.39389370806E+02  0.11214105373E+02  0.41938145825E+02  0.00000000000E+00 0. -1.
</event>
<event>
 7    1  0.4274778E-006  0.9289377E+02  0.7561462E-02  0.1295992E+00
          1   -1    0    0  501    0  0.00000000000E+00  0.00000000000E+00  0.17195750676E+03  0.17195750676E+03  0.00000000000E+00 0. -1.
         -1   -1    0    0    0  501 -0.00000000000E+00 -0.00000000000E+00 -0.14821937005E+03  0.14821937005E+03  0.00000000000E+00 0.  1.
         23    2    1    2    0    0  0.47520954867E+02 -0.23837608419E+02  0.11271793448E+03  0.15772088007E+03  0.96664732604E+02 0.  0.
          5    1    1    2  502    0 -0.41054058211E+02  0.71958601834E+02 -0.74814911370E+02  0.11170595077E+03  0.41800000000E+01 0.  1.
         -5    1    1    2    0  502 -0.64668966560E+01 -0.48120993415E+02 -0.14164886398E+02  0.50750045973E+02  0.41800000000E+01 0.  1.
        -11    1    3    3    0    0  0.17157608832E+02 -0.33707198797E+01 -0.16118845421E+02  0.23781557372E+02  0.00000000000E+00 0.  1.
         11    1    3    3    0    0  0.30363346035E+02 -0.20466888540E+02  0.12883677990E+03  0.13393932270E+03  0.00000000000E+00 0. -1.
</event>
<event>
 7    1  0.4274778E-006  0.1016605E+03  0.7561462E-02  0.1276842E+00
          2   -1    0    0  501    0  0.00000000000E+00  0.00000000000E+00  0.51694559121E+02  0.51694559121E+02  0.00000000000E+00 0. -1.
         -2   -1    0    0    0  501 -0.00000000000E+00 -0.00000000000E+00 -0.40389830704E+03  0.40389830704E+03  0.00000000000E+00 0.  1.
         23    2    1    2    0    0  0.21643709711E+02 -0.40192506684E+02 -0.28292200772E+02  0.10537631170E+03  0.90663281867E+02 0.  0.
          5    1    1    2  502    0  0.36618755790E+02  0.11506767839E+02 -0.24457929656E+03  0.24760824641E+03  0.41800000000E+01 0.  1.
         -5    1    1    2    0  502 -0.58262465500E+02  0.28685738845E+02 -0.79332250587E+02  0.10260830806E+03  0.41800000000E+01 0.  1.
        -11    1    3    3    0    0 -0.99572576495E+01 -0.60994000643E+02 -0.76348930133E+01  0.62271234817E+02  0.00000000000E+00 0. -1.
         11    1    3    3    0    0  0.31600967360E+02  0.20801493959E+02 -0.20657307758E+02  0.43105076880E+02  0.00000000000E+00 0.  1.
</event>
<event>
 7    1  0.4274778E-006  0.7495613E+02  0.7561462E-02  0.1344007E+00
          2   -1    0    0  501    0  0.00000000000E+00  0.00000000000E+00  0.23941600393E+03  0.23941600393E+03  0.00000000000E+00 0. -1.
         -2   -1    0    0    0  501 -0.00000000000E+00 -0.00000000000E+00 -0.66597831381E+02  0.66597831381E+02  0.00000000000E+00 0.  1.
         23    2    1    2    0    0  0.60540556260E+02  0.64943016300E+01  0.98148776496E+02  0.14812037138E+03  0.92731478923E+02 0.  0.
          5    1    1    2  502    0 -0.13647822316E+02  0.58419951314E+01 -0.34815642993E+02  0.38078778317E+02  0.41800000000E+01 0.  1.
         -5    1    1    2    0  502 -0.46892733944E+02 -0.12336296761E+02  0.10948503904E+03  0.11981468561E+03  0.41800000000E+01 0.  1.
        -11    1    3    3    0    0 -0.24758859247E+01 -0.18031286224E+02 -0.98527659681E+01  0.20696238577E+02  0.00000000000E+00 0.  1.
         11    1    3    3    0    0  0.63016442185E+02  0.24525587854E+02  0.10800154246E+03  0.12742413280E+03  0.00000000000E+00 0. -1.
</event>
<event>
 7    1  0.4274778E-006  0.1050681E+03  0.7561462E-02  0.1269986E+00
          1   -1    0    0  501    0  0.00000000000E+00  0.00000000000E+00  0.12492988704E+03  0.12492988704E+03  0.00000000000E+00 0. -1.
         -1   -1    0    0    0  501 -0.00000000000E+00 -0.00000000000E+00 -0.12271464847E+03  0.12271464847E+03  0.00000000000E+00 0.  1.
         23    2    1    2    0    0  0.12767997031E+02  0.45353424899E+02  0.34214757280E+02  0.11020826245E+03  0.93569528148E+02 0.  0.
          5    1    1    2  502    0 -0.66384908852E+02 -0.25339285118E+02 -0.36283269535E+02  0.79893576348E+02  0.41800000000E+01 0.  1.
         -5    1    1    2    0  502  0.53616911821E+02 -0.20014139781E+02  0.42837508261E+01  0.57542696718E+02  0.41800000000E+01 0.  1.
        -11    1    3    3    0    0  0.36220750930E+02  0.45454163773E+02 -0.11111932761E+02  0.59173464086E+02  0.00000000000E+00 0.  1.
         11    1    3    3    0    0 -0.23452753900E+02 -0.10073887387E+00  0.45326690041E+02  0.51034798362E+02  0.00000000000E+00 0. -1.
</event>
<event>
 7    1  0.4274778E-006  0.1730119E+03  0.7561462E-02  0.1174743E+00
         -1   -1    0    0    0  501 -0.00000000000E+00  0.00000000000E+00  0.18070741716E+03  0.18070741716E+03  0.00000000000E+00 0.  1.
          1   -1    0    0  501    0  0.00000000000E+00 -0.00000000000E+00 -0.19920134671E+03  0.19920134671E+03  0.00000000000E+00 0. -1.
         23    2    1    2    0    0  0.14811616375E+03  0.48269931269E+02 -0.26638127924E+02  0.17995262431E+03  0.86052152248E+02 0.  0.
          5    1    1    2  502    0 -0.12685178484E+03 -0.79026058538E+02  0.35216926779E+02  0.15360402852E+03  0.41800000000E+01 0. -1.
         -5    1    1    2    0  502 -0.21264378914E+02  0.30756127269E+02 -0.27072728407E+02  0.46352111048E+02  0.41800000000E+01 0. -1.
        -11    1    3    3    0    0  0.57073208172E+02  0.34818829702E+02 -0.51764135273E+02  0.84553105758E+02  0.00000000000E+00 0. -1.
         11    1    3    3    0    0  0.91042955579E+02  0.13451101568E+02  0.25126007349E+02  0.95399518549E+02  0.00000000000E+00 0.  1.
</event>
<event>
 7    1  0.4274778E-006  0.1198573E+03  0.7561462E-02  0.1243333E+00
          2   -1    0    0  501    0  0.00000000000E+00  0.00000000000E+00  0.70352599055E+02  0.70352599055E+02  0.00000000000E+00 0. -1.
         -2   -1    0    0    0  501 -0.00000000000E+00 -0.00000000000E+00 -0.24590131059E+03  0.24590131059E+03  0.00000000000E+00 0.  1.
         23    2    1    2    0    0 -0.62330472052E+02 -0.36668853848E+02 -0.62599434817E+02  0.13285566393E+03  0.92207622296E+02 0.  0.
          5    1    1    2  502    0  0.27241426945E+02  0.82023828922E+02 -0.60594118109E+02  0.10563675214E+03  0.41800000000E+01 0.  1.
         -5    1    1    2    0  502  0.35089045107E+02 -0.45354975074E+02 -0.52355158608E+02  0.77761493577E+02  0.41800000000E+01 0.  1.
        -11    1    3    3    0    0 -0.58261469281E+02 -0.53058579473E+02 -0.77359652515E+02  0.11042702339E+03  0.00000000000E+00 0.  1.
         11    1    3    3    0    0 -0.40690027708E+01  0.16389725625E+02  0.14760217699E+02  0.22428640532E+02  0.00000000000E+00 0. -1.
</event>
<event>
 7    1  0.4274778E-006  0.7786149E+02  0.7561462E-02  0.1335232E+00
         -1   -1    0    0    0  501 -0.00000000000E+00  0.00000000000E+00  0.27069353502E+03  0.27069353502E+03  0.00000000000E+00 0.  1.
          1   -1    0    0  501    0  0.00000000000E+00 -0.00000000000E+00 -0.56441407414E+02  0.56441407414E+02  0.00000000000E+00 0. -1.
         23    2    1    2    0    0  0.56558056695E+02  0.90225766097E+01  0.79112769049E+02  0.13428610619E+03  0.92161311970E+02 0.  0.
          5    1    1    2  502    0 -0.10997120721E+01  0.10928551550E+02 -0.22014252793E+02  0.24954805783E+02  0.41800000000E+01 0. -1.
         -5    1    1    2    0  502 -0.55458344622E+02 -0.19951128159E+02  0.15715361135E+03  0.16789403045E+03  0.41800000000E+01 0. -1.
        -11    1    3    3    0    0  0.70449941438E+02  0.63236377803E+01  0.20004800568E+02  0.73507650548E+02  0.00000000000E+00 0. -1.
         11    1    3    3    0    0 -0.13891884743E+02  0.26989388294E+01  0.59107968481E+02  0.60778455645E+02  0.00000000000E+00 0.  1.
</event>
<event>
 7    1  0.4274778E-006  0.1710932E+03  0.7561462E-02  0.1176713E+00
          2   -1    0    0  501    0  0.00000000000E+00  0.00000000000E+00  0.48670471648E+03  0.48670471648E+03  0.00000000000E+00 0. -1.
         -2   -1    0    0    0  501 -0.00000000000E+00 -0.00000000000E+00 -0.76981452458E+02  0.76981452458E+02  0.00000000000E+00 0.  1.
         23    2    1    2    0    0 -0.17301974763E+02  0.14717397128E+03  0.28131237254E+03  0.33109958573E+03  0.92362051589E+02 0.  0.
          5    1    1    2  502    0 -0.52897664604E+02 -0.83876976514E+02  0.62880313021E+02  0.11749432444E+03  0.41800000000E+01 0.  1.
         -5    1    1    2    0  502  0.70199639368E+02 -0.63296994770E+02  0.65530578455E+02  0.11509225876E+03  0.41800000000E+01 0.  1.
        -11    1    3    3    0    0 -0.15452580849E+02  0.10777976058E+03  0.26833111807E+03  0.28958046890E+03  0.00000000000E+00 0. -1.
         11    1    3    3    0    0 -0.18493939147E+01  0.39394210706E+02  0.12981254476E+02  0.41519116835E+02  0.00000000000E+00 0.  1.
</event>
<event>
 7    1  0.4274778E-006  0.1888141E+03  0.7561462E-02  0.1159535E+00
          1   -1    0    0  501    0  0.00000000000E+00  0.00000000000E+00  0.34997987128E+02  0.34997987128E+02  0.00000000000E+00 0. -1.
         -1   -1    0    0    0  501 -0.00000000000E+00 -0.00000000000E+00 -0.11487049298E+04  0.11487049298E+04  0.00000000000E+00 0.  1.
         23    2    1    2    0    0  0.15997674477E+03 -0.34158171161E+02 -0.40701138076E+03  0.44761478159E+03  0.89114471909E+02 0.  0.
          5    1    1    2  502    0 -0.13526007924E+03  0.74463446064E+02 -0.47163655069E+03  0.49628479947E+03  0.41800000000E+01 0.  1.
         -5    1    1    2    0  502 -0.24716665534E+02 -0.40305274902E+02 -0.23505901126E+03  0.23980333592E+03  0.41800000000E+01 0.  1.
        -11    1    3    3    0    0  0.33054095415E+02  0.18970335496E+02 -0.16384704900E+03  0.16822099250E+03  0.00000000000E+00 0.  1.
         11    1    3    3    0    0  0.12692264936E+03 -0.53128506658E+02 -0.24316433176E+03  0.27939378908E+03  0.00000000000E+00 0. -1.
</event>
<event>
 7    1  0.4274778E-006  0.2354097E+03  0.7561462E-02  0.1122889E+00
         -2   -1    0    0    0  501 -0.00000000000E+00  0.00000000000E+00  0.17282265939E+03  0.17282265939E+03  0.00000000000E+00 0.  1.
          2   -1    0    0  501    0  0.00000000000E+00 -0.00000000000E+00 -0.34951931877E+03  0.34951931877E+03  0.00000000000E+00 0. -1.
         23    2    1    2    0    0 -0.18837599666E+03 -0.11059762436E+03 -0.11552627629E+03  0.26329166507E+03  0.90878103795E+02 0.  0.
          5    1    1    2  502    0  0.13945926999E+03  0.12048898001E+03 -0.58672751252E+01  0.18444072112E+03  0.41800000000E+01 0. -1.
         -5    1    1    2    0  502  0.48916726667E+02 -0.98913556455E+01 -0.55303107963E+02  0.74609591975E+02  0.41800000000E+01 0. -1.
        -11    1    3    3    0    0 -0.14482437988E+03 -0.12417574976E+03 -0.97469383686E+02  0.21422884631E+03  0.00000000000E+00 0. -1.
         11    1    3    3    0    0 -0.43551616784E+02  0.13578125402E+02 -0.18056892608E+02  0.49062818759E+02  0.00000000000E+00 0.  1.
</event>
<event>
 7    1  0.4274778E-006  0.1751852E+03  0.7561462E-02  0.1172546E+00
         -1   -1    0    0    0  501 -0.00000000000E+00  0.00000000000E+00  0.40191294598E+02  0.40191294598E+02  0.00000000000E+00 0.  1.
          1   -1    0    0  501    0  0.00000000000E+00 -0.00000000000E+00 -0.10380957066E+04  0.10380957066E+04  0.00000000000E+00 0. -1.
         23    2    1    2    0    0  0.16655124066E+03 -0.10795043753E+02 -0.59516377295E+03  0.62474116863E+03  0.90695988921E+02 0.  0.
          5    1    1    2  502    0 -0.11964220755E+03 -0.27387194987E+02 -0.35719134231E+03  0.37771344125E+03  0.41800000000E+01 0.  1.
         -5    1    1    2    0  502 -0.46909033116E+02  0.38182238740E+02 -0.45549296782E+02  0.75832391367E+02  0.41800000000E+01 0.  1.
        -11    1    3    3    0    0  0.20276477788E+02 -0.22283489499E+00 -0.12314159804E+02  0.23723906477E+02  0.00000000000E+00 0. -1.
         11    1    3    3    0    0  0.14627476288E+03 -0.10572208858E+02 -0.58284961315E+03  0.60101726215E+03  0.00000000000E+00 0.  1.
</event>
<event>
 7    1  0.4274778E-006  0.1046552E+03  0.7561462E-02  0.1270800E+00
         -1   -1    0    0    0  501 -0.00000000000E+00  0.00000000000E+00  0.26354124485E+03  0.26354124485E+03  0.00000000000E+00 0.  1.
          1   -1    0    0  501    0  0.00000000000E+00 -0.00000000000E+00 -0.44403749486E+02  0.44403749486E+02  0.00000000000E+00 0. -1.
         23    2    1    2    0    0  0.19178257711E+02  0.42105249719E+02  0.51709524746E+02  0.93888403267E+02  0.63249503522E+02 0.  0.
          5    1    1    2  502    0 -0.67821737697E+02 -0.48772445246E+02  0.96685927122E+02  0.12784436015E+03  0.41800000000E+01 0.  1.
         -5    1    1    2    0  502  0.48643479986E+02  0.66671955270E+01  0.70742043496E+02  0.86212230915E+02  0.41800000000E+01 0.  1.
        -11    1    3    3    0    0  0.37330981666E+02  0.44497226992E+02  0.47666068761E+02  0.75137603856E+02  0.00000000000E+00 0.  1.
         11    1    3    3    0    0 -0.18152723955E+02 -0.23919772722E+01  0.40434559854E+01  0.18750799411E+02  0.00000000000E+00 0. -1.
</event>
<event>
 7    1  0.4274778E-006  0.1729981E+03  0.7561462E-02  0.1174757E+00
          1   -1    0    0  501    0  0.00000000000E+00  0.00000000000E+00  0.44972680700E+03  0.44972680700E+03  0.00000000000E+00 0. -1.
         -1   -1    0    0    0  501 -0.00000000000E+00 -0.00000000000E+00 -0.72718536227E+02  0.72718536227E+02  0.00000000000E+00 0.  1.
         23    2    1    2    0    0  0.94367748471E+02 -0.10619714353E+03  0.21937096886E+03  0.27611229924E+03  0.89057703589E+02 0.  0.
          5    1    1    2  502    0  0.87723551720E+01  0.68353789339E+02  0.23576697222E+02  0.72955656286E+02  0.41800000000E+01 0.  1.
         -5    1    1    2    0  502 -0.10314010364E+03  0.37843354191E+02  0.13406060469E+03  0.17337738770E+03  0.41800000000E+01 0.  1.
        -11    1    3    3    0    0  0.51808262146E+01 -0.70908514306E+02  0.10563034628E+03  0.12732882005E+03  0.00000000000E+00 0.  1.
         11    1    3    3    0    0  0.89186922256E+02 -0.35288629224E+02  0.11374062258E+03  0.14878347919E+03  0.00000000000E+00 0. -1.
</event>
<event>
 7    1  0.4274778E-006  0.1145465E+03  0.7561462E-02  0.1252375E+00
         -1   -1    0    0    0  501 -0.00000000000E+00  0.00000000000E+00  0.13107686131E+03  0.13107686131E+03  0.00000000000E+00 0.  1.
          1   -1    0    0  501    0  0.00000000000E+00 -0.00000000000E+00 -0.18162848852E+03  0.18162848852E+03  0.00000000000E+00 0. -1.
         23    2    1    2    0    0  0.51112966259E+02  0.76423578723E+02 -0.84452399660E+02  0.15380318493E+03  0.89833808683E+02 0.  0.
          5    1    1    2  502    0  0.67504464888E+01 -0.79014605484E+01 -0.40673503099E+02  0.42187769092E+02  0.41800000000E+01 0. -1.
         -5    1    1    2    0  502 -0.57863412748E+02 -0.68522118175E+02  0.74574275548E+02  0.11671439580E+03  0.41800000000E+01 0. -1.
        -11    1    3    3    0    0  0.71631329300E+02  0.30585218269E+02 -0.57448553924E+02  0.96782432610E+02  0.00000000000E+00 0.  1.
         11    1    3    3    0    0 -0.20518363041E+02  0.45838360454E+02 -0.27003845736E+02  0.57020752323E+02  0.00000000000E+00 0. -1.
</event>
<event>
 7    1  0.4274778E-006  0.1073454E+03  0.7561462E-02  0.1265566E+00
          1   -1    0    0  501    0  0.00000000000E+00  0.00000000000E+00  0.44572176807E+02  0.44572176807E+02  0.00000000000E+00 0. -1.
         -1   -1    0    0    0  501 -0.00000000000E+00 -0.00000000000E+00 -0.44398972906E+03  0.44398972906E+03  0.00000000000E+00 0.  1.
         23    2    1    2    0    0 -0.64126730445E+02 -0.49685376697E+02 -0.11766375768E+03  0.16979513778E+03  0.91677449390E+02 0.  0.
          5    1    1    2  502    0  0.45213594966E+02 -0.20003144291E+02 -0.32702599111E+02  0.59424972359E+02  0.41800000000E+01 0. -1.
         -5    1    1    2    0  502  0.18913135479E+02  0.69688520988E+02 -0.24905119547E+03  0.25934179573E+03  0.41800000000E+01 0. -1.
        -11    1    3    3    0    0 -0.47638247629E+02 -0.85141795474E+01 -0.11568708630E+03  0.12540094030E+03  0.00000000000E+00 0. -1.
         11    1    3    3    0    0 -0.16488482816E+02 -0.41171197150E+02 -0.19766713794E+01  0.44394197482E+02  0.00000000000E+00 0.  1.
</event>
<event>
 7    1  0.4274778E-006  0.1216894E+03  0.7561462E-02  0.1240336E+00
         -1   -1    0    0    0  501 -0.00000000000E+00  0.00000000000E+00  0.19005307977E+02  0.19005307977E+02  0.00000000000E+00 0.  1.
          1   -1    0    0  501    0  0.00000000000E+00 -0.00000000000E+00 -0.90004676788E+03  0.90004676788E+03  0.00000000000E+00 0. -1.
         23    2    1    2    0    0 -0.71583376770E+02  0.17069628022E+01 -0.44262271413E+03  0.45754879266E+03  0.91153371029E+02 0.  0.
          5    1    1    2  502    0 -0.30659771674E+02 -0.60106515002E+01 -0.19321394374E+03  0.19576835798E+03  0.41800000000E+01 0.  1.
         -5    1    1    2    0  502  0.10224314844E+03  0.43036886981E+01 -0.24520480204E+03  0.26573492522E+03  0.41800000000E+01 0.  1.
        -11    1    3    3    0    0  0.30015683127E+01  0.29641765228E+02 -0.63381292400E+02  0.70034504957E+02  0.00000000000E+00 0. -1.
         11    1    3    3    0    0 -0.74584945083E+02 -0.27934802426E+02 -0.37924142173E+03  0.38751428770E+03  0.00000000000E+00 0.  1.
</event>
<event>
 7    1  0.4274778E-006  0.9453077E+02  0.7561462E-02  0.1292236E+00
         -2   -1    0    0    0  501 -0.00000000000E+00  0.00000000000E+00  0.65973163853E+02  0.65973163853E+02  0.00000000000E+00 0.  1.
          2   -1    0    0  501    0  0.00000000000E+00 -0.00000000000E+00 -0.32491899145E+03  0.32491899145E+03  0.00000000000E+00 0. -1.
         23    2    1    2    0    0  0.21609104986E+02 -0.21514939451E+02 -0.25270588021E+03  0.27059317147E+03  0.91818062029E+02 0.  0.
          5    1    1    2  502    0 -0.49569588657E+02 -0.15030533655E+02  0.31388852434E+02  0.60710736437E+02  0.41800000000E+01 0. -1.
         -5    1    1    2    0  502  0.27960483671E+02  0.36545473106E+02 -0.37628799818E+02  0.59588247394E+02  0.41800000000E+01 0.  1.
        -11    1    3    3    0    0  0.49458853896E+02  0.82345598626E+01 -0.91725093933E+02  0.10453458309E+03  0.00000000000E+00 0.  1.
         11    1    3    3    0    0 -0.27849748911E+02 -0.29749499314E+02 -0.16098078628E+03  0.16605858838E+03  0.00000000000E+00 0. -1.
</event>
<event>
 7    1  0.4274778E-006  0.9689630E+02  0.7561462E-02  0.1286961E+00
          1   -1    0    0  501    0  0.00000000000E+00  0.00000000000E+00  0.16447474271E+03  0.16447474271E+03  0.00000000000E+00 0. -1.
         -1   -1    0    0    0  501 -0.00000000000E+00 -0.00000000000E+00 -0.87341854814E+02  0.87341854814E+02  0.00000000000E+00 0.  1.
         23    2    1    2    0    0 -0.47699030276E+02  0.13629187086E+02  0.55348540843E+02  0.11549680119E+03  0.88403042271E+02 0.  0.
          5    1    1    2  502    0  0.23418924819E+02 -0.48357929799E+02  0.58899274569E+02  0.79834405859E+02  0.41800000000E+01 0. -1.
         -5    1    1    2    0  502  0.24280105457E+02  0.34728742713E+02 -0.37114927520E+02  0.56485390467E+02  0.41800000000E+01 0. -1.
        -11    1    3    3    0    0 -0.23181321659E+02  0.49043826865E+02  0.46666399544E+02  0.71557134332E+02  0.00000000000E+00 0. -1.
         11    1    3    3    0    0 -0.24517708617E+02 -0.35414639778E+02  0.86821412994E+01  0.43939666863E+02  0.00000000000E+00 0.  1.
</event>
<event>
 7    1  0.4274778E-006  0.1894136E+03  0.7561462E-02  0.1158991E+00
         -2   -1    0    0    0  501 -0.00000000000E+00  0.00000000000E+00  0.41529173687E+03  0.41529173687E+03  0.00000000000E+00 0.  1.
          2   -1    0    0  501    0  0.00000000000E+00 -0.00000000000E+00 -0.98141270613E+02  0.98141270613E+02  0.00000000000E+00 0. -1.
         23    2    1    2    0    0 -0.14640577002E+03 -0.79349307558E+02  0.10454438453E+03  0.21580995695E+03  0.88957557742E+02 0.  0.
          5    1    1    2  502    0  0.16407891005E+03  0.86681736592E+02  0.20517263985E+03  0.27667471284E+03  0.41800000000E+01 0. -1.
         -5    1    1    2    0  502 -0.17673140029E+02 -0.73324290336E+01  0.74334418804E+01  0.20948337695E+02  0.41800000000E+01 0. -1.
        -11    1    3    3    0    0 -0.95929020335E+01 -0.24351939307E+02 -0.11087409431E+02  0.28424837121E+02  0.00000000000E+00 0. -1.
         11    1    3    3    0    0 -0.13681286798E+03 -0.54997368251E+02  0.11563179396E+03  0.18738511983E+03  0.00000000000E+00 0.  1.
</event>
<event>
 6    1  0.4274778E-006  0.5664165E+02  0.7561462E-02  0.1412491E+00
         -2   -1    0    0    0  501 -0.00000000000E+00  0.00000000000E+00  0.11731415456E+03  0.11731415456E+03  0.00000000000E+00 0.  1.
          2   -1    0    0  501    0  0.00000000000E+00 -0.00000000000E+00 -0.10865359887E+03  0.10865359887E+03  0.00000000000E+00 0. -1.
          5    1    1    2  502    0 -0.24255082109E+02 -0.19446578890E+02 -0.37991623681E+02  0.49267781648E+02  0.41800000000E+01 0.  1.
         -5    1    1    2    0  502 -0.13251042714E+02 -0.97042620177E+01  0.94452361739E+02  0.95960845517E+02  0.41800000000E+01 0.  1.
        -11    1    1    2    0    0  0.42212739327E+02  0.75786914917E+01 -0.29395342792E+02  0.51994596874E+02  0.00000000000E+00 0. -1.
         11    1    1    2    0    0 -0.47066145039E+01  0.21572149416E+02 -0.18404839577E+02  0.28744529399E+02  0.00000000000E+00 0.  1.
</event>
<event>
 7    1  0.4274778E-006  0.1171876E+03  0.7561462E-02  0.1247810E+00
          2   -1    0    0  501    0  0.00000000000E+00  0.00000000000E+00  0.54947461680E+03  0.54947461680E+03  0.00000000000E+00 0. -1.
         -2   -1    0    0    0  501 -0.00000000000E+00 -0.00000000000E+00 -0.45230348583E+02  0.45230348583E+02  0.00000000000E+00 0.  1.
         23    2    1    2    0    0 -0.40894001327E+02 -0.78162414641E+02  0.36976180153E+03  0.39095455404E+03  0.91323551444E+02 0.  0.
          5    1    1    2  502    0  0.54873815161E+02  0.75658034748E+02  0.30035225094E+02  0.98259152035E+02  0.41800000000E+01 0. -1.
         -5    1    1    2    0  502 -0.13979813834E+02  0.25043798932E+01  0.10444724160E+03  0.10549125931E+03  0.41800000000E+01 0. -1.
        -11    1    3    3    0    0 -0.60051575492E+02 -0.17724412366E+02  0.15978798623E+03  0.17161744392E+03  0.00000000000E+00 0.  1.
         11    1    3    3    0    0  0.19157574165E+02 -0.60438002275E+02  0.20997381530E+03  0.21933711012E+03  0.00000000000E+00 0. -1.
</event>
<event>
 7    1  0.4274778E-006  0.9949239E+02  0.7561462E-02  0.1281367E+00
         -2   -1    0    0    0  501 -0.00000000000E+00  0.00000000000E+00  0.61074900560E+02  0.61074900560E+02  0.00000000000E+00 0.  1.
          2   -1    0    0  501    0  0.00000000000E+00 -0.00000000000E+00 -0.39974500828E+03  0.39974500828E+03  0.00000000000E+00 0. -1.
         23    2    1    2    0    0 -0.91473008606E+02 -0.12931974506E+02 -0.25304915273E+03  0.28330046699E+03  0.87696827969E+02 0.  0.
          5    1    1    2  502    0  0.61575610530E+02  0.31399446496E+02 -0.11316836902E+03  0.13267265430E+03  0.41800000000E+01 0.  1.
         -5    1    1    2    0  502  0.29897398076E+02 -0.18467471990E+02  0.27547414028E+02  0.44846787544E+02  0.41800000000E+01 0.  1.
        -11    1    3    3    0    0 -0.31484592389E+02  0.46786565675E+01 -0.11583818767E+02  0.33872617886E+02  0.00000000000E+00 0.  1.
         11    1    3    3    0    0 -0.59988416217E+02 -0.17610631073E+02 -0.24146533396E+03  0.24942784911E+03  0.00000000000E+00 0. -1.
</event>
<event>
 7    1  0.4274778E-006  0.8877858E+02  0.7561462E-02  0.1305837E+00
          2   -1    0    0  501    0  0.00000000000E+00  0.00000000000E+00  0.32070144909E+02  0.32070144909E+02  0.00000000000E+00 0. -1.
         -2   -1    0    0    0  501 -0.00000000000E+00 -0.00000000000E+00 -0.43989420494E+03  0.43989420494E+03  0.00000000000E+00 0.  1.
         23    2    1    2    0    0 -0.18720975799E+02  0.30211101400E+02 -0.11138456104E+03  0.14825612843E+03  0.91160153554E+02 0.  0.
          5    1    1    2  502    0 -0.21484538869E+02 -0.69378629254E+02 -0.14690588249E+03  0.16393227357E+03  0.41800000000E+01 0.  1.
         -5    1    1    2    0  502  0.40205514667E+02  0.39167527854E+02 -0.14953361650E+03  0.15977594785E+03  0.41800000000E+01 0.  1.
        -11    1    3    3    0    0  0.76586298936E+00  0.28987111719E+02 -0.12243415112E+03  0.12582114509E+03  0.00000000000E+00 0.  1.
         11    1    3    3    0    0 -0.19486838788E+02  0.12239896810E+01  0.11049590074E+02  0.22434983341E+02  0.00000000000E+00 0. -1.
</event>
<event>
 7    1  0.4274778E-006  0.1087808E+03  0.7561462E-02  0.1262844E+00
          2   -1    0    0  501    0  0.00000000000E+00  0.00000000000E+00  0.27273906390E+03  0.27273906390E+03  0.00000000000E+00 0. -1.
         -2   -1    0    0    0  501 -0.00000000000E+00 -0.00000000000E+00 -0.69061163311E+02  0.69061163311E+02  0.00000000000E+00 0.  1.
         23    2    1    2    0    0  0.34935941272E+02 -0.63688220641E+02  0.14373438612E+03  0.18521236428E+03  0.91473147353E+02 0.  0.
          5    1    1    2  502    0  0.31730427277E+02 -0.19667773733E+02  0.19904243677E+02  0.42512264761E+02  0.41800000000E+01 0. -1.
         -5    1    1    2    0  502 -0.66666368549E+02  0.83355994374E+02  0.40039270796E+02  0.11407559818E+03  0.41800000000E+01 0. -1.
        -11    1    3    3    0    0  0.37349121347E+01 -0.14141278539E+02 -0.11946196465E+02  0.18884833527E+02  0.00000000000E+00 0.  1.
         11    1    3    3    0    0  0.31201029138E+02 -0.49546942102E+02  0.15568058259E+03  0.16632753075E+03  0.00000000000E+00 0. -1.
</event>
<event>
 7    1  0.4274778E-006  0.1132238E+03  0.7561462E-02  0.1254714E+00
         -2   -1    0    0    0  501 -0.00000000000E+00  0.00000000000E+00  0.64043523377E+02  0.64043523377E+02  0.00000000000E+00 0.  1.
          2   -1    0    0  501    0  0.00000000000E+00 -0.00000000000E+00 -0.35719749204E+03  0.35719749204E+03  0.00000000000E+00 0. -1.
         23    2    1    2    0    0  0.58621251928E+02  0.30021326554E+02 -0.24853927400E+03  0.27299863045E+03  0.91753748067E+02 0.  0.
          5    1    1    2  502    0 -0.40020397709E+02 -0.66936786125E+02 -0.65325506002E+02  0.10181875910E+03  0.41800000000E+01 0.  1.
         -5    1    1    2    0  502 -0.18600854219E+02  0.36915459571E+02  0.20710811333E+02  0.46423625872E+02  0.41800000000E+01 0.  1.
        -11    1    3    3    0    0  0.24893111605E+02 -0.29369558932E+02 -0.50428996138E+02  0.63445422599E+02  0.00000000000E+00 0.  1.
         11    1    3    3    0    0  0.33728140323E+02  0.59390885486E+02 -0.19811027786E+03  0.20955320785E+03  0.00000000000E+00 0. -1.
</event>
<event>
 7    1  0.4274778E-006  0.1302950E+03  0.7561462E-02  0.1227019E+00
          2   -1    0    0  501    0  0.00000000000E+00  0.00000000000E+00  0.10145598350E+04  0.10145598350E+04  0.00000000000E+00 0. -1.
         -2   -1    0    0    0  501 -0.00000000000E+00 -0.00000000000E+00 -0.17962576068E+02  0.17962576068E+02  0.00000000000E+00 0.  1.
         23    2    1    2    0    0  0.54729902209E+02 -0.20995554633E+02  0.59865383442E+03  0.61128273793E+03  0.10883012779E+03 0.  0.
          5    1    1    2  502    0 -0.80446056846E+02  0.53079253447E+02  0.29182598913E+03  0.30735786233E+03  0.41800000000E+01 0. -1.
         -5    1    1    2    0  502  0.25716154637E+02 -0.32083698814E+02  0.10611743537E+03  0.11388181078E+03  0.41800000000E+01 0. -1.
        -11    1    3    3    0    0  0.85920317568E+02 -0.13546686939E+01  0.38505086144E+03  0.39452287892E+03  0.00000000000E+00 0. -1.
         11    1    3    3    0    0 -0.31190415359E+02 -0.19640885939E+02  0.21360297298E+03  0.21675985901E+03  0.00000000000E+00 0.  1.
</event>
<event>
 7    1  0.4274778E-006  0.1962358E+03  0.7561462E-02  0.1152954E+00
          2   -1    0    0  501    0  0.00000000000E+00  0.00000000000E+00  0.14289557499E+04  0.14289557499E+04  0.00000000000E+00 0. -1.
         -2   -1    0    0    0  501 -0.00000000000E+00 -0.00000000000E+00 -0.36836686597E+02  0.36836686597E+02  0.00000000000E+00 0.  1.
         23    2    1    2    0    0  0.12007909274E+02  0.17495395810E+03  0.98812602376E+03  0.10076917973E+04  0.91085905552E+02 0.  0.
          5    1    1    2  502    0  0.24605318071E+02 -0.14669420346E+03  0.20231079553E+03  0.25114087957E+03  0.41800000000E+01 0. -1.
         -5    1    1    2    0  502 -0.36613227345E+02 -0.28259754643E+02  0.20168224397E+03  0.20695975957E+03  0.41800000000E+01 0. -1.
        -11    1    3    3    0    0 -0.25867517978E+02  0.95964006495E+01  0.11788352692E+03  0.12106917573E+03  0.00000000000E+00 0.  1.
         11    1    3    3    0    0  0.37875427252E+02  0.16535755745E+03  0.87024249683E+03  0.88662262158E+03  0.00000000000E+00 0. -1.
</event>
<event>
 7    1  0.4274778E-006  0.8864095E+02  0.7561462E-02  0.1306177E+00
          2   -1    0    0  501    0  0.00000000000E+00  0.00000000000E+00  0.58940983930E+02  0.58940983930E+02  0.00000000000E+00 0. -1.
         -2   -1    0    0    0  501 -0.00000000000E+00 -0.00000000000E+00 -0.21281077786E+03  0.21281077786E+03  0.00000000000E+00 0.  1.
         23    2    1    2    0    0  0.11660243226E+02  0.24925253570E+02 -0.56353009046E+02  0.11077224341E+03  0.91310452539E+02 0.  0.
          5    1    1    2  502    0  0.38101252146E+01  0.34393498628E+02 -0.93059399459E+02  0.99372803269E+02  0.41800000000E+01 0. -1.
         -5    1    1    2    0  502 -0.15470368441E+02 -0.59318752198E+02 -0.44573854220E+01  0.61606715111E+02  0.41800000000E+01 0. -1.
        -11    1    3    3    0    0 -0.13144602380E+02 -0.23299202921E+02  0.67287445319E+01  0.27584586846E+02  0.00000000000E+00 0. -1.
         11    1    3    3    0    0  0.24804845606E+02  0.48224456492E+02 -0.63081753578E+02  0.83187656560E+02  0.00000000000E+00 0.  1.
</event>
<event>
 7    1  0.4274778E-006  0.1179096E+03  0.7561462E-02  0.1246586E+00
         -2   -1    0    0    0  501 -0.00000000000E+00  0.00000000000E+00  0.13912314517E+03  0.13912314517E+03  0.00000000000E+00 0.  1.
          2   -1    0    0  501    0  0.00000000000E+00 -0.00000000000E+00 -0.12536663532E+03  0.12536663532E+03  0.00000000000E+00 0. -1.
         23    2    1    2    0    0 -0.12265596789E+02  0.72874755680E+02 -0.40204723164E+01  0.11811764200E+03  0.92056712265E+02 0.  0.
          5    1    1    2  502    0  0.67591599601E+02 -0.25606731795E+02  0.89006541601E+01  0.72945343198E+02  0.41800000000E+01 0. -1.
         -5    1    1    2    0  502 -0.55326002811E+02 -0.47268023884E+02  0.88763280003E+01  0.73426795298E+02  0.41800000000E+01 0. -1.
        -11    1    3    3    0    0  0.13074481188E+02  0.61288124837E+02 -0.38682799821E+02  0.73644655653E+02  0.00000000000E+00 0. -1.
         11    1    3    3    0    0 -0.25340077977E+02  0.11586630843E+02  0.34662327504E+02  0.44472986342E+02  0.00000000000E+00 0.  1.
</event>
<event>
 7    1  0.4274778E-006  0.1687179E+03  0.7561462E-02  0.1179191E+00
          2   -1    0    0  501    0  0.00000000000E+00  0.00000000000E+00  0.62134025919E+02  0.62134025919E+02  0.00000000000E+00 0. -1.
         -2   -1    0    0    0  501 -0.00000000000E+00 -0.00000000000E+00 -0.59874802526E+03  0.59874802526E+03  0.00000000000E+00 0.  1.
         23    2    1    2    0    0 -0.82158362815E+02 -0.60105303972E+02 -0.16644358872E+03  0.21511787172E+03  0.90606767734E+02 0.  0.
          5    1    1    2  502    0  0.12316987927E+03 -0.79748576660E+01 -0.85575266168E+02  0.15024984557E+03  0.41800000000E+01 0. -1.
         -5    1    1    2    0  502 -0.41011516455E+02  0.68080161638E+02 -0.28459514444E+03  0.29551433389E+03  0.41800000000E+01 0.  1.
        -11    1    3    3    0    0 -0.71965153145E+01 -0.58940206828E+02 -0.55910080513E+02  0.81557801078E+02  0.00000000000E+00 0. -1.
         11    1    3    3    0    0 -0.74961847501E+02 -0.11650971434E+01 -0.11053350821E+03  0.13356007064E+03  0.00000000000E+00 0.  1.
</event>
<event>
 7    1  0.4274778E-006  0.9233434E+02  0.7561462E-02  0.1297295E+00
          1   -1    0    0  501    0  0.00000000000E+00  0.00000000000E+00  0.30520347796E+03  0.30520347796E+03  0.00000000000E+00 0. -1.
         -1   -1    0    0    0  501 -0.00000000000E+00 -0.00000000000E+00 -0.96502306623E+02  0.96502306623E+02  0.00000000000E+00 0.  1.
         23    2    1    2    0    0  0.40812704008E+01 -0.26178475721E+01  0.26185120583E+03  0.27792048473E+03  0.93006623109E+02 0.  0.
          5    1    1    2  502    0  0.27447362580E+02  0.48548136653E+02 -0.26794291518E+02  0.62013593211E+02  0.41800000000E+01 0. -1.
         -5    1    1    2    0  502 -0.31528632981E+02 -0.45930289080E+02 -0.26355742983E+02  0.61771706637E+02  0.41800000000E+01 0.  1.
        -11    1    3    3    0    0 -0.33601890892E+02  0.62127212282E+01  0.39516453273E+02  0.52242081274E+02  0.00000000000E+00 0.  1.
         11    1    3    3    0    0  0.37683161293E+02 -0.88305688002E+01  0.22233475256E+03  0.22567840346E+03  0.00000000000E+00 0. -1.
</event>
<event>
 7    1  0.4274778E-006  0.1303514E+03  0.7561462E-02  0.1226935E+00
          1   -1    0    0  501    0  0.00000000000E+00  0.00000000000E+00  0.22165571796E+03  0.22165571796E+03  0.00000000000E+00 0. -1.
         -1   -1    0    0    0  501 -0.00000000000E+00 -0.00000000000E+00 -0.11396447906E+03  0.11396447906E+03  0.00000000000E+00 0.  1.
         23    2    1    2    0    0 -0.58109181941E+02 -0.95490496639E+02  0.77126595264E+02  0.16510112902E+03  0.93886948676E+02 0.  0.
          5    1    1    2  502    0  0.67383299291E+02  0.55143041867E+02 -0.34116969878E+02  0.93609316435E+02  0.41800000000E+01 0.  1.
         -5    1    1    2    0  502 -0.92741173503E+01  0.40347454772E+02  0.64681613510E+02  0.76909751563E+02  0.41800000000E+01 0.  1.
        -11    1    3    3    0    0 -0.73785309263E+02 -0.87064262210E+02  0.35002718663E+02  0.11937188920E+03  0.00000000000E+00 0.  1.
         11    1    3    3    0    0  0.15676127322E+02 -0.84262344299E+01  0.42123876601E+02  0.45729239819E+02  0.00000000000E+00 0. -1.
</event>
<event>
 7    1  0.4274778E-006  0.1096507E+03  0.7561462E-02  0.1261218E+00
          1   -1    0    0  501    0  0.00000000000E+00  0.00000000000E+00  0.20482702074E+02  0.20482702074E+02  0.00000000000E+00 0. -1.
         -1   -1    0    0    0  501 -0.00000000000E+00 -0.00000000000E+00 -0.59949115921E+03  0.59949115921E+03  0.00000000000E+00 0.  1.
         23    2    1    2    0    0  0.10349614072E+02  0.21160311486E+02 -0.23085006629E+03  0.24927546089E+03  0.91058382397E+02 0.  0.
          5    1    1    2  502    0 -0.52329694745E+02  0.28783414195E+02 -0.19972344826E+03  0.20850374114E+03  0.41800000000E+01 0. -1.
         -5    1    1    2    0  502  0.41980080673E+02 -0.49943725681E+02 -0.14843494259E+03  0.16219465925E+03  0.41800000000E+01 0. -1.
        -11    1    3    3    0    0  0.49727746779E+02  0.82200961641E+00 -0.12147741965E+03  0.13126419155E+03  0.00000000000E+00 0.  1.
         11    1    3    3    0    0 -0.39378132707E+02  0.20338301870E+02 -0.10937264664E+03  0.11801126934E+03  0.00000000000E+00 0. -1.
</event>
<event>
 7    1  0.4274778E-006  0.9752313E+02  0.7561462E-02  0.1285592E+00
         -2   -1    0    0    0  501 -0.00000000000E+00  0.00000000000E+00  0.37204180102E+02  0.37204180102E+02  0.00000000000E+00 0.  1.
          2   -1    0    0  501    0  0.00000000000E+00 -0.00000000000E+00 -0.49024127972E+03  0.49024127972E+03  0.00000000000E+00 0. -1.
         23    2    1    2    0    0  0.63031296103E+02 -0.64314083128E+01 -0.29267432028E+03  0.31442520862E+03  0.95867860946E+02 0.  0.
          5    1    1    2  502    0 -0.39077558056E+02  0.28194544852E+02 -0.17177102171E+03  0.17845095742E+03  0.41800000000E+01 0. -1.
         -5    1    1    2    0  502 -0.23953738048E+02 -0.21763136539E+02  0.11408242377E+02  0.34569293783E+02  0.41800000000E+01 0. -1.
        -11    1    3    3    0    0  0.85303780989E+02  0.10665279875E+02 -0.23615401826E+03  0.25131494899E+03  0.00000000000E+00 0. -1.
         11    1    3    3    0    0 -0.22272484885E+02 -0.17096688188E+02 -0.56520302023E+02  0.63110259631E+02  0.00000000000E+00 0.  1.
</event>
<event>
 7    1  0.4274778E-006  0.1646022E+03  0.7561462E-02  0.1183597E+00
          2   -1    0    0  501    0  0.00000000000E+00  0.00000000000E+00  0.85879617047E+02  0.85879617047E+02  0.00000000000E+00 0. -1.
         -2   -1    0    0    0  501 -0.00000000000E+00 -0.00000000000E+00 -0.36227471271E+03  0.36227471271E+03  0.00000000000E+00 0.  1.
         23    2    1    2    0    0 -0.12550733126E+03 -0.59537387563E+02 -0.14204321828E+03  0.21794997298E+03  0.89605380106E+02 0.  0.
          5    1    1    2  502    0 -0.19056973002E+02  0.11910816624E+02 -0.52664571731E+02  0.57411368981E+02  0.41800000000E+01 0. -1.
         -5    1    1    2    0  502  0.14456430426E+03  0.47626570938E+02 -0.81687305646E+02  0.17279298779E+03  0.41800000000E+01 0. -1.
        -11    1    3    3    0    0 -0.10044218081E+03 -0.74349993497E+02 -0.14156505188E+03  0.18883118686E+03  0.00000000000E+00 0.  1.
         11    1    3    3    0    0 -0.25065150455E+02  0.14812605934E+02 -0.47816640322E+00  0.29118786118E+02  0.00000000000E+00 0. -1.
</event>
<event>
 7    1  0.4274778E-006  0.1018311E+03  0.7561462E-02  0.1276492E+00
          3   -1    0    0  501    0  0.00000000000E+00  0.00000000000E+00  0.65958108904E+03  0.65958108904E+03  0.00000000000E+00 0.  1.
         -3   -1    0    0    0  501 -0.00000000000E+00 -0.00000000000E+00 -0.22803754042E+02  0.22803754042E+02  0.00000000000E+00 0. -1.
         23    2    1    2    0    0  0.29321444847E+02 -0.48383713168E+02  0.31494556246E+03  0.33249428558E+03  0.90338318574E+02 0.  0.
          5    1    1    2  502    0 -0.53329376210E+02  0.54228145433E+02  0.31476859357E+03  0.32385406285E+03  0.41800000000E+01 0. -1.
         -5    1    1    2    0  502  0.24007931363E+02 -0.58444322651E+01  0.70631789694E+01  0.26036494656E+02  0.41800000000E+01 0. -1.
        -11    1    3    3    0    0 -0.15844162162E+02 -0.54587379411E+02  0.21918748632E+03  0.22643757114E+03  0.00000000000E+00 0.  1.
         11    1    3    3    0    0  0.45165607010E+02  0.62036662434E+01  0.95758076137E+02  0.10605671444E+03  0.00000000000E+00 0. -1.
</event>
<event>
 7    1  0.4274778E-006  0.1352382E+03  0.7561462E-02  0.1219884E+00
          1   -1    0    0  501    0  0.00000000000E+00  0.00000000000E+00  0.42493028363E+03  0.42493028363E+03  0.00000000000E+00 0. -1.
         -1   -1    0    0    0  501 -0.00000000000E+00 -0.00000000000E+00 -0.55814551315E+02  0.55814551315E+02  0.00000000000E+00 0.  1.
         23    2    1    2    0    0 -0.10444208967E+03  0.33776846925E+02  0.17789571778E+03  0.22724548875E+03  0.89132487179E+02 0.  0.
          5    1    1    2  502    0  0.10970570046E+03 -0.65236655892E+02  0.17716233193E+03  0.21839213868E+03  0.41800000000E+01 0.  1.
         -5    1    1    2    0  502 -0.52636107882E+01  0.31459808967E+02  0.14057682602E+02  0.35107207507E+02  0.41800000000E+01 0.  1.
        -11    1    3    3    0    0 -0.65783254197E+02  0.28076934219E+02  0.17381543672E+03  0.18795626302E+03  0.00000000000E+00 0. -1.
         11    1    3    3    0    0 -0.38658835472E+02  0.56999127058E+01  0.40802810642E+01  0.39289225730E+02  0.00000000000E+00 0.  1.
</event>
<event>
 7    1  0.4274778E-006  0.1640341E+03  0.7561462E-02  0.1184216E+00
         -2   -1    0    0    0  501 -0.00000000000E+00  0.00000000000E+00  0.24695501053E+03  0.24695501053E+03  0.00000000000E+00 0.  1.
          2   -1    0    0  501    0  0.00000000000E+00 -0.00000000000E+00 -0.47789496039E+03  0.47789496039E+03  0.00000000000E+00 0. -1.
         23    2    1    2    0    0 -0.82163074448E+02  0.45032833891E+02 -0.41444691646E+03  0.43487361018E+03  0.92574744621E+02 0.  0.
          5    1    1    2  502    0 -0.56763761501E+02 -0.41437058636E+02  0.15843010327E+02  0.72163895574E+02  0.41800000000E+01 0. -1.
         -5    1    1    2    0  502  0.13892683595E+03 -0.35957752550E+01  0.16766395628E+03  0.21781246517E+03  0.41800000000E+01 0.  1.
        -11    1    3    3    0    0 -0.53763042980E+02 -0.11847066149E+02 -0.10085750594E+03  0.11490454418E+03  0.00000000000E+00 0. -1.
         11    1    3    3    0    0 -0.28400031468E+02  0.56879900040E+02 -0.31358941051E+03  0.31996906601E+03  0.00000000000E+00 0.  1.
</event>
<event>
 7    1  0.4274778E-006  0.1015526E+03  0.7561462E-02  0.1277065E+00
         -1   -1    0    0    0  501 -0.00000000000E+00  0.00000000000E+00  0.18673229372E+03  0.18673229372E+03  0.00000000000E+00 0.  1.
          1   -1    0    0  501    0  0.00000000000E+00 -0.00000000000E+00 -0.88130279297E+02  0.88130279297E+02  0.00000000000E+00 0. -1.
         23    2    1    2    0    0 -0.45517413879E+02 -0.44629737390E+02  0.18377890229E+02  0.11316158101E+03  0.91674141080E+02 0.  0.
          5    1    1    2  502    0 -0.35766675482E+02 -0.58406225982E+00 -0.38917846495E+01  0.36224502640E+02  0.41800000000E+01 0. -1.
         -5    1    1    2    0  502  0.81284089361E+02  0.45213799650E+02  0.84115908841E+02  0.12547648936E+03  0.41800000000E+01 0. -1.
        -11    1    3    3    0    0  0.61565847585E+01 -0.10120093669E+02 -0.31389702189E+02  0.33550458048E+02  0.00000000000E+00 0. -1.
         11    1    3    3    0    0 -0.51673998637E+02 -0.34509643721E+02  0.49767592417E+02  0.79611122966E+02  0.00000000000E+00 0.  1.
</event>
<event>
 7    1  0.4274778E-006  0.1002101E+03  0.7561462E-02  0.1279855E+00
         -1   -1    0    0    0  501 -0.00000000000E+00  0.00000000000E+00  0.12227198809E+03  0.12227198809E+03  0.00000000000E+00 0.  1.
          1   -1    0    0  501    0  0.00000000000E+00 -0.00000000000E+00 -0.16287421102E+03  0.16287421102E+03  0.00000000000E+00 0. -1.
         23    2    1    2    0    0 -0.72981302399E+02  0.44300990788E+02 -0.48233911192E+02  0.13350775045E+03  0.90603316481E+02 0.  0.
          5    1    1    2  502    0  0.48390118969E+02 -0.20048300964E+02  0.65588743265E+02  0.84041023485E+02  0.41800000000E+01 0.  1.
         -5    1    1    2    0  502  0.24591183431E+02 -0.24252689824E+02 -0.57957055001E+02  0.67597425178E+02  0.41800000000E+01 0.  1.
        -11    1    3    3    0    0 -0.75927903299E+02  0.60210709342E+02 -0.59571794781E+02  0.11375049342E+03  0.00000000000E+00 0. -1.
         11    1    3    3    0    0  0.29466008996E+01 -0.15909718554E+02  0.11337883589E+02  0.19757257037E+02  0.00000000000E+00 0.  1.
</event>
<event>
 7    1  0.4274778E-006  0.1643430E+03  0.7561462E-02  0.1183879E+00
          2   -1    0    0  501    0  0.00000000000E+00  0.00000000000E+00  0.12852200502E+03  0.12852200502E+03  0.00000000000E+00 0. -1.
         -2   -1    0    0    0  501 -0.00000000000E+00 -0.00000000000E+00 -0.27549303277E+03  0.27549303277E+03  0.00000000000E+00 0.  1.
         23    2    1    2    0    0 -0.13629817464E+03 -0.60983371074E+02 -0.10749285054E+03  0.20526258520E+03  0.91004681240E+02 0.  0.
          5    1    1    2  502    0  0.38205977767E+02 -0.17447207499E+01 -0.68606043209E+02  0.78657500294E+02  0.41800000000E+01 0. -1.
         -5    1    1    2    0  502  0.98092196871E+02  0.62728091824E+02  0.29127866001E+02  0.12009495230E+03  0.41800000000E+01 0. -1.
        -11    1    3    3    0    0 -0.53807624821E+02 -0.72634847579E+02 -0.44105563617E+02  0.10058022824E+03  0.00000000000E+00 0. -1.
         11    1    3    3    0    0 -0.82490549818E+02  0.11651476505E+02 -0.63387286918E+02  0.10468235695E+03  0.00000000000E+00 0.  1.
</event>
<event>
 7    1  0.4274778E-006  0.2349188E+03  0.7561462E-02  0.1123225E+00
          2   -1    0    0  501    0  0.00000000000E+00  0.00000000000E+00  0.12545857178E+04  0.12545857178E+04  0.00000000000E+00 0. -1.
         -2   -1    0    0    0  501 -0.00000000000E+00 -0.00000000000E+00 -0.47692118315E+02  0.47692118315E+02  0.00000000000E+00 0.  1.
         23    2    1    2    0    0 -0.53247886769E+02 -0.20921273840E+03  0.68106251711E+03  0.72025467084E+03  0.91188438363E+02 0.  0.
          5    1    1    2  502    0 -0.32054362388E+02  0.49107205008E+02  0.20681984802E+03  0.21501377088E+03  0.41800000000E+01 0.  1.
         -5    1    1    2    0  502  0.85302249156E+02  0.16010553339E+03  0.31901123431E+03  0.36700939436E+03  0.41800000000E+01 0.  1.
        -11    1    3    3    0    0  0.16475573470E+02 -0.89875841911E+02  0.34465402264E+03  0.35656066356E+03  0.00000000000E+00 0.  1.
         11    1    3    3    0    0 -0.69723460238E+02 -0.11933689649E+03  0.33640849448E+03  0.36369400727E+03  0.00000000000E+00 0. -1.
</event>
<event>
 7    1  0.4274778E-006  0.4827288E+02  0.7561462E-02  0.1454886E+00
         -1   -1    0    0    0  501 -0.00000000000E+00  0.00000000000E+00  0.24811830211E+03  0.24811830211E+03  0.00000000000E+00 0.  1.
          1   -1    0    0  501    0  0.00000000000E+00 -0.00000000000E+00 -0.87568431246E+02  0.87568431246E+02  0.00000000000E+00 0. -1.
         23    2    1    2    0    0 -0.38497006605E+02 -0.21061252650E+02 -0.28390608433E+02  0.10488074127E+03  0.90930453428E+02 0.  0.
          5    1    1    2  502    0  0.36348371658E+02  0.69557107090E+01 -0.38512343180E+01  0.37441827405E+02  0.41800000000E+01 0. -1.
         -5    1    1    2    0  502  0.21486349464E+01  0.14105541941E+02  0.19279171361E+03  0.19336416468E+03  0.41800000000E+01 0. -1.
        -11    1    3    3    0    0 -0.75662445160E+01 -0.75263610320E+01 -0.58607396967E+02  0.59571143565E+02  0.00000000000E+00 0. -1.
         11    1    3    3    0    0 -0.30930762089E+02 -0.13534891618E+02  0.30216788534E+02  0.45309597701E+02  0.00000000000E+00 0.  1.
</event>
<event>
 6    1  0.4274778E-006  0.1249621E+03  0.7561462E-02  0.1235129E+00
          2   -1    0    0  501    0  0.00000000000E+00  0.00000000000E+00  0.11223374462E+04  0.11223374462E+04  0.00000000000E+00 0. -1.
         -2   -1    0    0    0  501 -0.00000000000E+00 -0.00000000000E+00 -0.15966482579E+02  0.15966482579E+02  0.00000000000E+00 0.  1.
          5    1    1    2  502    0  0.20638966881E+02  0.78478081455E+01  0.28006486132E+03  0.28096504052E+03  0.41800000000E+01 0. -1.
         -5    1    1    2    0  502 -0.79339626505E+02 -0.92841180348E+02  0.40413258171E+03  0.42220241248E+03  0.41800000000E+01 0. -1.
        -11    1    1    2    0    0  0.53821156570E+02  0.63616968885E+02  0.32399902724E+03  0.33454327863E+03  0.00000000000E+00 0.  1.
         11    1    1    2    0    0  0.48795030539E+01  0.21376403317E+02  0.98174493380E+02  0.10059319718E+03  0.00000000000E+00 0. -1.
</event>
<event>
 7    1  0.4274778E-006  0.1298329E+03  0.7561462E-02  0.1227704E+00
          4   -1    0    0  501    0  0.00000000000E+00  0.00000000000E+00  0.10967140258E+03  0.10967140258E+03  0.00000000000E+00 0. -1.
         -4   -1    0    0    0  501 -0.00000000000E+00 -0.00000000000E+00 -0.32946933414E+03  0.32946933414E+03  0.00000000000E+00 0.  1.
         23    2    1    2    0    0  0.76669897750E+02  0.93974371875E+02  0.10769887079E+02  0.15014559784E+03  0.87853595786E+02 0.  0.
          5    1    1    2  502    0 -0.75379570581E+02 -0.89319683628E+02 -0.24594976537E+03  0.27233957669E+03  0.41800000000E+01 0.  1.
         -5    1    1    2    0  502 -0.12903271685E+01 -0.46546882468E+01  0.15381946727E+02  0.16655562194E+02  0.41800000000E+01 0.  1.
        -11    1    3    3    0    0  0.65078960379E+02  0.10286231440E+03  0.30608259061E+02  0.12551012840E+03  0.00000000000E+00 0. -1.
         11    1    3    3    0    0  0.11590937370E+02 -0.88879425283E+01 -0.19838371983E+02  0.24635469438E+02  0.00000000000E+00 0.  1.
</event>
<event>
 7    1  0.4274778E-006  0.9245890E+02  0.7561462E-02  0.1297004E+00
         -2   -1    0    0    0  501 -0.00000000000E+00  0.00000000000E+00  0.53501677955E+02  0.53501677955E+02  0.00000000000E+00 0.  1.
          2   -1    0    0  501    0  0.00000000000E+00 -0.00000000000E+00 -0.24788299027E+03  0.24788299027E+03  0.00000000000E+00 0. -1.
         23    2    1    2    0    0  0.24279433431E+02  0.20028521630E+01 -0.12044649809E+03  0.15405011022E+03  0.92900889398E+02 0.  0.
          5    1    1    2  502    0 -0.70035460545E+01 -0.53438976503E+02 -0.75540414614E+02  0.92890260561E+02  0.41800000000E+01 0. -1.
         -5    1    1    2    0  502 -0.17275887376E+02  0.51436124340E+02  0.16056003916E+01  0.54444297446E+02  0.41800000000E+01 0. -1.
        -11    1    3    3    0    0  0.14102792385E+01 -0.33868683732E+02 -0.10235410562E+03  0.10782133167E+03  0.00000000000E+00 0. -1.
         11    1    3    3    0    0  0.22869154192E+02  0.35871535895E+02 -0.18092392473E+02  0.46228778551E+02  0.00000000000E+00 0.  1.
</event>
<event>
 7    1  0.4274778E-006  0.2403150E+03  0.7561462E-02  0.1119583E+00
         -3   -1    0    0    0  501 -0.00000000000E+00  0.00000000000E+00  0.24598307881E+03  0.24598307881E+03  0.00000000000E+00 0.  1.
          3   -1    0    0  501    0  0.00000000000E+00 -0.00000000000E+00 -0.30467218032E+03  0.30467218032E+03  0.00000000000E+00 0. -1.
         23    2    1    2    0    0 -0.20022639598E+03  0.98484049067E+02 -0.14631401229E+03  0.28024953128E+03  0.85687175346E+02 0.  0.
          5    1    1    2  502    0  0.13663212992E+03  0.18699375426E+01  0.52519716243E+02  0.14645008906E+03  0.41800000000E+01 0. -1.
         -5    1    1    2    0  502  0.63594266064E+02 -0.10035398661E+03  0.35105194532E+02  0.12395563879E+03  0.41800000000E+01 0. -1.
        -11    1    3    3    0    0 -0.17158495834E+03  0.72165476554E+02 -0.15278664487E+03  0.24081738472E+03  0.00000000000E+00 0. -1.
         11    1    3    3    0    0 -0.28641437644E+02  0.26318572513E+02  0.64726325757E+01  0.39432146554E+02  0.00000000000E+00 0.  1.
</event>
<event>
 7    1  0.4274778E-006  0.1562820E+03  0.7561462E-02  0.1192959E+00
         -2   -1    0    0    0  501 -0.00000000000E+00  0.00000000000E+00  0.63035649540E+02  0.63035649540E+02  0.00000000000E+00 0.  1.
          2   -1    0    0  501    0  0.00000000000E+00 -0.00000000000E+00 -0.50949132053E+03  0.50949132053E+03  0.00000000000E+00 0. -1.
         23    2    1    2    0    0 -0.13273897685E+03 -0.14290123088E+02 -0.29079661326E+03  0.33231755011E+03  0.89713099598E+02 0.  0.
          5    1    1    2  502    0  0.10852989027E+03 -0.26145931860E+02 -0.15722218668E+03  0.19286947715E+03  0.41800000000E+01 0. -1.
         -5    1    1    2    0  502  0.24209086579E+02  0.40436054947E+02  0.15631289411E+01  0.47339942805E+02  0.41800000000E+01 0. -1.
        -11    1    3    3    0    0 -0.98155050788E+02  0.24905022899E+02 -0.14049854286E+03  0.17318924536E+03  0.00000000000E+00 0.  1.
         11    1    3    3    0    0 -0.34583926058E+02 -0.39195145986E+02 -0.15029807039E+03  0.15912830475E+03  0.00000000000E+00 0. -1.
</event>
<event>
 7    1  0.4274778E-006  0.8794007E+02  0.7561462E-02  0.1307918E+00
          2   -1    0    0  501    0  0.00000000000E+00  0.00000000000E+00  0.98064077020E+02  0.98064077020E+02  0.00000000000E+00 0. -1.
         -2   -1    0    0    0  501 -0.00000000000E+00 -0.00000000000E+00 -0.14462182388E+03  0.14462182388E+03  0.00000000000E+00 0.  1.
         23    2    1    2    0    0  0.17216061786E+02 -0.39816356305E+02  0.45358902086E+01  0.10076924077E+03  0.90841238279E+02 0.  0.
          5    1    1    2  502    0  0.20307126062E+02  0.76092608518E+02 -0.39857096138E+02  0.88365858523E+02  0.41800000000E+01 0. -1.
         -5    1    1    2    0  502 -0.37523187848E+02 -0.36276252213E+02 -0.11236540932E+02  0.53550801610E+02  0.41800000000E+01 0. -1.
        -11    1    3    3    0    0  0.88635356376E+00 -0.14511518617E+02 -0.42500002813E+02  0.44917925534E+02  0.00000000000E+00 0.  1.
         11    1    3    3    0    0  0.16329708223E+02 -0.25304837688E+02  0.47035893021E+02  0.55851315234E+02  0.00000000000E+00 0. -1.
</event>
<event>
 7    1  0.4274778E-006  0.1594449E+03  0.7561462E-02  0.1189325E+00
         -2   -1    0    0    0  501 -0.00000000000E+00  0.00000000000E+00  0.51243408913E+02  0.51243408913E+02  0.00000000000E+00 0. -1.
          2   -1    0    0  501    0  0.00000000000E+00 -0.00000000000E+00 -0.68691857681E+03  0.68691857681E+03  0.00000000000E+00 0.  1.
         23    2    1    2    0    0 -0.66708681948E+01  0.12046015844E+03 -0.44442405116E+03  0.47549500937E+03  0.11843823891E+03 0.  0.
          5    1    1    2  502    0  0.26927109134E+02  0.20531597354E+02 -0.18792321418E+02  0.38951757862E+02  0.41800000000E+01 0. -1.
         -5    1    1    2    0  502 -0.20256240940E+02 -0.14099175580E+03 -0.17245879533E+03  0.22371521849E+03  0.41800000000E+01 0.  1.
        -11    1    3    3    0    0  0.31542828607E+02  0.27821010192E+02 -0.37290222025E+02  0.56209601523E+02  0.00000000000E+00 0. -1.
         11    1    3    3    0    0 -0.38213696802E+02  0.92639148252E+02 -0.40713382913E+03  0.41928540785E+03  0.00000000000E+00 0.  1.
</event>
<event>
 7    1  0.4274778E-006  0.6808019E+02  0.7561462E-02  0.1366746E+00
         -2   -1    0    0    0  501 -0.00000000000E+00  0.00000000000E+00  0.24803647087E+02  0.24803647087E+02  0.00000000000E+00 0.  1.
          2   -1    0    0  501    0  0.00000000000E+00 -0.00000000000E+00 -0.54204726379E+03  0.54204726379E+03  0.00000000000E+00 0. -1.
         23    2    1    2    0    0  0.35201089802E+02  0.20298338238E+02 -0.25421490114E+03  0.27276422684E+03  0.90133058462E+02 0.  0.
          5    1    1    2  502    0 -0.44102007658E+02 -0.91968025247E+01 -0.18133525302E+02  0.48742849691E+02  0.41800000000E+01 0. -1.
         -5    1    1    2    0  502  0.89009178558E+01 -0.11101535713E+02 -0.24489519027E+03  0.24534383434E+03  0.41800000000E+01 0. -1.
        -11    1    3    3    0    0 -0.18804843845E+02  0.92685739439E+01 -0.11586975439E+02  0.23953843425E+02  0.00000000000E+00 0.  1.
         11    1    3    3    0    0  0.54005933647E+02  0.11029764294E+02 -0.24262792570E+03  0.24881038342E+03  0.00000000000E+00 0. -1.
</event>
<event>
 7    1  0.4274778E-006  0.9618570E+02  0.7561462E-02  0.1288528E+00
          1   -1    0    0  501    0  0.00000000000E+00  0.00000000000E+00  0.46527043850E+02  0.46527043850E+02  0.00000000000E+00 0. -1.
         -1   -1    0    0    0  501 -0.00000000000E+00 -0.00000000000E+00 -0.32508176528E+03  0.32508176528E+03  0.00000000000E+00 0.  1.
         23    2    1    2    0    0 -0.15771579249E+02 -0.43160292373E+02 -0.67697317838E+02  0.12217061559E+03  0.90725844839E+02 0.  0.
          5    1    1    2  502    0  0.35558747884E+02 -0.29729896162E+02 -0.13290386865E+03  0.14081619928E+03  0.41800000000E+01 0.  1.
         -5    1    1    2    0  502 -0.19787168635E+02  0.72890188534E+02 -0.77953534937E+02  0.10862199426E+03  0.41800000000E+01 0.  1.
        -11    1    3    3    0    0 -0.21783958191E+02  0.44227962692E+01  0.14828169561E+02  0.26720340077E+02  0.00000000000E+00 0. -1.
         11    1    3    3    0    0  0.60123789426E+01 -0.47583088642E+02 -0.82525487399E+02  0.95450275514E+02  0.00000000000E+00 0.  1.
</event>
<event>
 7    1  0.4274778E-006  0.1116140E+03  0.7561462E-02  0.1257610E+00
          1   -1    0    0  501    0  0.00000000000E+00  0.00000000000E+00  0.38014057396E+03  0.38014057396E+03  0.00000000000E+00 0. -1.
         -1   -1    0    0    0  501 -0.00000000000E+00 -0.00000000000E+00 -0.38955662386E+02  0.38955662386E+02  0.00000000000E+00 0.  1.
         23    2    1    2    0    0 -0.50134759427E+02  0.10399348641E+02  0.18341130622E+03  0.21134188357E+03  0.91673572768E+02 0.  0.
          5    1    1    2  502    0  0.51238814513E+02 -0.59346906968E+02  0.61756182860E+02  0.99893793605E+02  0.41800000000E+01 0. -1.
         -5    1    1    2    0  502 -0.11040550857E+01  0.48947558327E+02  0.96017422495E+02  0.10786055918E+03  0.41800000000E+01 0. -1.
        -11    1    3    3    0    0 -0.10096155410E+02 -0.34187526192E+02  0.11498843143E+03  0.12038712001E+03  0.00000000000E+00 0. -1.
         11    1    3    3    0    0 -0.40038604017E+02  0.44586874834E+02  0.68422874796E+02  0.90954763561E+02  0.00000000000E+00 0.  1.
</event>
<event>
 7    1  0.4274778E-006  0.1145533E+03  0.7561462E-02  0.1252363E+00
         -2   -1    0    0    0  501 -0.00000000000E+00  0.00000000000E+00  0.17547166178E+03  0.17547166178E+03  0.00000000000E+00 0.  1.
          2   -1    0    0  501    0  0.00000000000E+00 -0.00000000000E+00 -0.11325331810E+03  0.11325331810E+03  0.00000000000E+00 0. -1.
         23    2    1    2    0    0 -0.72055894867E+02 -0.22142022604E+02 -0.20087366093E+02  0.12107051515E+03  0.92586425638E+02 0.  0.
          5    1    1    2  502    0  0.69838817477E+02  0.64539378160E+02  0.29256959701E+02  0.99580288466E+02  0.41800000000E+01 0.  1.
         -5    1    1    2    0  502  0.22170773891E+01 -0.42397355556E+02  0.53048750074E+02  0.68074176269E+02  0.41800000000E+01 0.  1.
        -11    1    3    3    0    0 -0.39311409324E+02  0.14700348396E+02  0.29385023008E+02  0.51234429080E+02  0.00000000000E+00 0.  1.
         11    1    3    3    0    0 -0.32744485543E+02 -0.36842371000E+02 -0.49472389101E+02  0.69836086071E+02  0.00000000000E+00 0. -1.
</event>
<event>
 7    1  0.4274778E-006  0.1018442E+03  0.7561462E-02  0.1276465E+00
          2   -1    0    0  501    0  0.00000000000E+00  0.00000000000E+00  0.39851777753E+03  0.39851777753E+03  0.00000000000E+00 0. -1.
         -2   -1    0    0    0  501 -0.00000000000E+00 -0.00000000000E+00 -0.49044256562E+02  0.49044256562E+02  0.00000000000E+00 0.  1.
         23    2    1    2    0    0 -0.74953003939E+02  0.42071537299E+02  0.18835613182E+03  0.22621614700E+03  0.91146836046E+02 0.  0.
          5    1    1    2  502    0  0.88383157947E+02 -0.32103201327E+02  0.17533312835E+03  0.19900094583E+03  0.41800000000E+01 0.  1.
         -5    1    1    2    0  502 -0.13430154008E+02 -0.99683359722E+01 -0.14215739202E+02  0.22344941257E+02  0.41800000000E+01 0.  1.
        -11    1    3    3    0    0 -0.57277814510E+02  0.46867062983E+02  0.19351911476E+03  0.20718812081E+03  0.00000000000E+00 0. -1.
         11    1    3    3    0    0 -0.17675189429E+02 -0.47955256843E+01 -0.51629829409E+01  0.19028026193E+02  0.00000000000E+00 0.  1.
</event>
<event>
 7    1  0.4274778E-006  0.1179599E+03  0.7561462E-02  0.1246501E+00
         -2   -1    0    0    0  501 -0.00000000000E+00  0.00000000000E+00  0.74351709296E+03  0.74351709296E+03  0.00000000000E+00 0.  1.
          2   -1    0    0  501    0  0.00000000000E+00 -0.00000000000E+00 -0.32670240186E+02  0.32670240186E+02  0.00000000000E+00 0. -1.
         23    2    1    2    0    0 -0.11548051358E+02  0.10641421894E+03  0.40649219233E+03  0.43000450454E+03  0.90612515782E+02 0.  0.
          5    1    1    2  502    0  0.34052752720E+02 -0.94159520914E+02  0.10501463391E+03  0.14515905442E+03  0.41800000000E+01 0.  1.
         -5    1    1    2    0  502 -0.22504701362E+02 -0.12254698026E+02  0.19934002654E+03  0.20102377419E+03  0.41800000000E+01 0.  1.
        -11    1    3    3    0    0 -0.13980374532E+02  0.28068844728E+02  0.23798194922E+02  0.39365784610E+02  0.00000000000E+00 0. -1.
         11    1    3    3    0    0  0.24323231742E+01  0.78345374213E+02  0.38269399740E+03  0.39063871993E+03  0.00000000000E+00 0.  1.
</event>
<event>
 7    1  0.4274778E-006  0.1095734E+03  0.7561462E-02  0.1261362E+00
         -2   -1    0    0    0  501 -0.00000000000E+00  0.00000000000E+00  0.54290193078E+02  0.54290193078E+02  0.00000000000E+00 0.  1.
          2   -1    0    0  501    0  0.00000000000E+00 -0.00000000000E+00 -0.35769495722E+03  0.35769495722E+03  0.00000000000E+00 0. -1.
         23    2    1    2    0    0  0.22438125356E+02 -0.60459284973E+02 -0.22156377721E+03  0.24921334915E+03  0.94116902920E+02 0.  0.
          5    1    1    2  502    0  0.83126738975E+01  0.94147361728E+02 -0.59992719210E+02  0.11202421625E+03  0.41800000000E+01 0.  1.
         -5    1    1    2    0  502 -0.30750799254E+02 -0.33688076754E+02 -0.21848267716E+02  0.50747584892E+02  0.41800000000E+01 0.  1.
        -11    1    3    3    0    0 -0.13416129279E+02 -0.95442741158E+01  0.25032593154E+01  0.16653888448E+02  0.00000000000E+00 0.  1.
         11    1    3    3    0    0  0.35854254635E+02 -0.50915010857E+02 -0.22406703653E+03  0.23255946071E+03  0.00000000000E+00 0. -1.
</event>
<event>
 7    1  0.4274778E-006  0.1193664E+03  0.7561462E-02  0.1244146E+00
         -2   -1    0    0    0  501 -0.00000000000E+00  0.00000000000E+00  0.23155829085E+02  0.23155829085E+02  0.00000000000E+00 0. -1.
          2   -1    0    0  501    0  0.00000000000E+00 -0.00000000000E+00 -0.95530528911E+03  0.95530528911E+03  0.00000000000E+00 0.  1.
         23    2    1    2    0    0 -0.91294762084E+01 -0.87060467516E+02 -0.59994260635E+03  0.61285034934E+03  0.89395455352E+02 0.  0.
          5    1    1    2  502    0 -0.33572505062E+02  0.68536384700E+01 -0.21239389367E+03  0.21518067740E+03  0.41800000000E+01 0. -1.
         -5    1    1    2    0  502  0.42701981271E+02  0.80206829046E+02 -0.11981296001E+03  0.15043009146E+03  0.41800000000E+01 0. -1.
        -11    1    3    3    0    0 -0.28799433363E+02 -0.88945547579E+02 -0.56521076472E+03  0.57289085029E+03  0.00000000000E+00 0.  1.
         11    1    3    3    0    0  0.19669957154E+02  0.18850800628E+01 -0.34731841631E+02  0.39959499051E+02  0.00000000000E+00 0. -1.
</event>
<event>
 7    1  0.4274778E-006  0.1180025E+03  0.7561462E-02  0.1246429E+00
         -2   -1    0    0    0  501 -0.00000000000E+00  0.00000000000E+00  0.28118027039E+03  0.28118027039E+03  0.00000000000E+00 0.  1.
          2   -1    0    0  501    0  0.00000000000E+00 -0.00000000000E+00 -0.66612997353E+02  0.66612997353E+02  0.00000000000E+00 0. -1.
         23    2    1    2    0    0 -0.74660027818E+02 -0.37325311175E+02  0.99881338786E+02  0.15866462621E+03  0.90724214877E+02 0.  0.
          5    1    1    2  502    0  0.34341967336E+02  0.81301534884E+02  0.52154438962E+02  0.10260052728E+03  0.41800000000E+01 0. -1.
         -5    1    1    2    0  502  0.40318060482E+02 -0.43976223709E+02  0.62531495289E+02  0.86528114251E+02  0.41800000000E+01 0. -1.
        -11    1    3    3    0    0 -0.45786873878E+02 -0.37158745137E+02  0.46483935055E+01  0.59150804913E+02  0.00000000000E+00 0. -1.
         11    1    3    3    0    0 -0.28873153940E+02 -0.16656603834E+00  0.95232945281E+02  0.99513821299E+02  0.00000000000E+00 0.  1.
</event>
<event>
 7    1  0.4274778E-006  0.1695492E+03  0.7561462E-02  0.1178319E+00
         -2   -1    0    0    0  501 -0.00000000000E+00  0.00000000000E+00  0.49787679464E+02  0.49787679464E+02  0.00000000000E+00 0.  1.
          2   -1    0    0  501    0  0.00000000000E+00 -0.00000000000E+00 -0.72989482452E+03  0.72989482452E+03  0.00000000000E+00 0. -1.
         23    2    1    2    0    0 -0.14996344733E+03 -0.34269105646E+02 -0.39050353735E+03  0.42891168938E+03  0.88367513650E+02 0.  0.
          5    1    1    2  502    0  0.95133774070E+02  0.71311568933E+02 -0.12141183264E+03  0.16998258834E+03  0.41800000000E+01 0.  1.
         -5    1    1    2    0  502  0.54829673264E+02 -0.37042463287E+02 -0.16819177506E+03  0.18078822626E+03  0.41800000000E+01 0.  1.
        -11    1    3    3    0    0 -0.10814449036E+03 -0.24814036774E+02 -0.35886813852E+03  0.37562921620E+03  0.00000000000E+00 0. -1.
         11    1    3    3    0    0 -0.41818956974E+02 -0.94550688723E+01 -0.31635398833E+02  0.53282473189E+02  0.00000000000E+00 0.  1.
</event>
<event>
 7    1  0.4274778E-006  0.1088129E+03  0.7561462E-02  0.1262784E+00
          2   -1    0    0  501    0  0.00000000000E+00  0.00000000000E+00  0.23595886480E+03  0.23595886480E+03  0.00000000000E+00 0. -1.
         -2   -1    0    0    0  501 -0.00000000000E+00 -0.00000000000E+00 -0.64963910717E+02  0.64963910717E+02  0.00000000000E+00 0.  1.
         23    2    1    2    0    0  0.46980350199E+02  0.53682098590E+01  0.12051453598E+03  0.15800182617E+03  0.90580642024E+02 0.  0.
          5    1    1    2  502    0  0.40727403627E+02 -0.77587070882E+01  0.33473996367E+02  0.53449974506E+02  0.41800000000E+01 0. -1.
         -5    1    1    2    0  502 -0.87707753826E+02  0.23904972291E+01  0.17006421735E+02  0.89470974838E+02  0.41800000000E+01 0. -1.
        -11    1    3    3    0    0  0.53122194936E+02 -0.23870724376E+02  0.36254169594E+02  0.68601340293E+02  0.00000000000E+00 0.  1.
         11    1    3    3    0    0 -0.61418447371E+01  0.29238934235E+02  0.84260366385E+02  0.89400485879E+02  0.00000000000E+00 0. -1.
</event>
<event>
 7    1  0.4274778E-006  0.1155753E+03  0.7561462E-02  0.1250580E+00
         -2   -1    0    0    0  501 -0.00000000000E+00  0.00000000000E+00  0.55436456240E+02  0.55436456240E+02  0.00000000000E+00 0.  1.
          2   -1    0    0  501    0  0.00000000000E+00 -0.00000000000E+00 -0.28214905416E+03  0.28214905416E+03  0.00000000000E+00 0. -1.
         23    2    1    2    0    0 -0.50187718296E+00 -0.63952601323E+02 -0.12716038252E+03  0.16540353118E+03  0.84251873257E+02 0.  0.
          5    1    1    2  502    0 -0.51934023366E+02 -0.55417191272E+01 -0.27952177300E+02  0.59385604735E+02  0.41800000000E+01 0. -1.
         -5    1    1    2    0  502  0.52435900549E+02  0.69494320450E+02 -0.71600038100E+02  0.11279637449E+03  0.41800000000E+01 0. -1.
        -11    1    3    3    0    0  0.30084509547E+02 -0.14372172580E+02 -0.90809352194E+02  0.96736629594E+02  0.00000000000E+00 0.  1.
         11    1    3    3    0    0 -0.30586386730E+02 -0.49580428743E+02 -0.36351030326E+02  0.68666901585E+02  0.00000000000E+00 0. -1.
</event>
<event>
 7    1  0.4274778E-006  0.1120046E+03  0.7561462E-02  0.1256902E+00
          3   -1    0    0  501    0  0.00000000000E+00  0.00000000000E+00  0.22880616161E+02  0.22880616161E+02  0.00000000000E+00 0. -1.
         -3   -1    0    0    0  501 -0.00000000000E+00 -0.00000000000E+00 -0.58687371539E+03  0.58687371539E+03  0.00000000000E+00 0.  1.
         23    2    1    2    0    0 -0.25696022731E+02  0.19806049432E+02 -0.17892804217E+03  0.20358266676E+03  0.91531922039E+02 0.  0.
          5    1    1    2  502    0  0.36807117703E+02  0.47729842613E+02 -0.19275731071E+03  0.20200434407E+03  0.41800000000E+01 0.  1.
         -5    1    1    2    0  502 -0.11111094971E+02 -0.67535892045E+02 -0.19230774634E+03  0.20416732072E+03  0.41800000000E+01 0.  1.
        -11    1    3    3    0    0  0.81319431049E+01 -0.32071987894E+02 -0.43396280573E+02  0.54570853701E+02  0.00000000000E+00 0. -1.
         11    1    3    3    0    0 -0.33827965836E+02  0.51878037326E+02 -0.13553176160E+03  0.14901181306E+03  0.00000000000E+00 0.  1.
</event>
<event>
 7    1  0.4274778E-006  0.1219105E+03  0.7561462E-02  0.1239978E+00
          1   -1    0    0  501    0  0.00000000000E+00  0.00000000000E+00  0.27257430080E+03  0.27257430080E+03  0.00000000000E+00 0. -1.
         -1   -1    0    0    0  501 -0.00000000000E+00 -0.00000000000E+00 -0.74810830620E+02  0.74810830620E+02  0.00000000000E+00 0.  1.
         23    2    1    2    0    0  0.87854754407E+02  0.25814764396E+01  0.12296441716E+03  0.17717427740E+03  0.92441088221E+02 0.  0.
          5    1    1    2  502    0 -0.30398893492E+02  0.50146579943E+02 -0.44379395203E+01  0.58957102309E+02  0.41800000000E+01 0.  1.
         -5    1    1    2    0  502 -0.57455860915E+02 -0.52728056382E+02  0.79236992542E+02  0.11125375171E+03  0.41800000000E+01 0.  1.
        -11    1    3    3    0    0  0.76884376586E+02  0.25929297459E+02  0.40334773494E+02  0.90611421921E+02  0.00000000000E+00 0.  1.
         11    1    3    3    0    0  0.10970377821E+02 -0.23347821019E+02  0.82629643668E+02  0.86562855479E+02  0.00000000000E+00 0. -1.
</event>
<event>
 7    1  0.4274778E-006  0.1148112E+03  0.7561462E-02  0.1251911E+00
          4   -1    0    0  501    0  0.00000000000E+00  0.00000000000E+00  0.14989086884E+03  0.14989086884E+03  0.00000000000E+00 0. -1.
         -4   -1    0    0    0  501 -0.00000000000E+00 -0.00000000000E+00 -0.91338962374E+02  0.91338962374E+02  0.00000000000E+00 0.  1.
         23    2    1    2    0    0 -0.44084251537E+02 -0.54638692032E+01  0.28193643904E+02  0.10506155492E+03  0.90938295918E+02 0.  0.
          5    1    1    2  502    0 -0.23456539303E+02 -0.40673528762E+02  0.26722557416E+02  0.54185908250E+02  0.41800000000E+01 0. -1.
         -5    1    1    2    0  502  0.67540790840E+02  0.46137397966E+02  0.36357051418E+01  0.81982368045E+02  0.41800000000E+01 0. -1.
        -11    1    3    3    0    0  0.34442806625E+01 -0.41058548757E+02  0.17317321781E+02  0.44694039077E+02  0.00000000000E+00 0. -1.
         11    1    3    3    0    0 -0.47528532200E+02  0.35594679554E+02  0.10876322123E+02  0.60367515839E+02  0.00000000000E+00 0.  1.
</event>
<event>
 7    1  0.4274778E-006  0.8933325E+02  0.7561462E-02  0.1304474E+00
          2   -1    0    0  501    0  0.00000000000E+00  0.00000000000E+00  0.10407284905E+04  0.10407284905E+04  0.00000000000E+00 0. -1.
         -2   -1    0    0    0  501 -0.00000000000E+00 -0.00000000000E+00 -0.12619864781E+02  0.12619864781E+02  0.00000000000E+00 0.  1.
         23    2    1    2    0    0  0.47717133048E+02 -0.63964014209E+01  0.49531448020E+03  0.50395372680E+03  0.79467513591E+02 0.  0.
          5    1    1    2  502    0 -0.32445667265E+01  0.33801227891E+02  0.35340170081E+02  0.49187907473E+02  0.41800000000E+01 0.  1.
         -5    1    1    2    0  502 -0.44472566321E+02 -0.27404826470E+02  0.49745397540E+03  0.50020672098E+03  0.41800000000E+01 0.  1.
        -11    1    3    3    0    0 -0.10614536322E+02 -0.27922199120E+02  0.13018603335E+03  0.13356916135E+03  0.00000000000E+00 0.  1.
         11    1    3    3    0    0  0.58331669370E+02  0.21525797699E+02  0.36512844685E+03  0.37038456544E+03  0.00000000000E+00 0. -1.
</event>
<event>
 7    1  0.4274778E-006  0.2105823E+03  0.7561462E-02  0.1141106E+00
          2   -1    0    0  501    0  0.00000000000E+00  0.00000000000E+00  0.11647137493E+03  0.11647137493E+03  0.00000000000E+00 0. -1.
         -2   -1    0    0    0  501 -0.00000000000E+00 -0.00000000000E+00 -0.41449692110E+03  0.41449692110E+03  0.00000000000E+00 0.  1.
         23    2    1    2    0    0  0.47934783497E+02 -0.18384545382E+03 -0.12155432175E+03  0.24306823950E+03  0.90608065635E+02 0.  0.
          5    1    1    2  502    0  0.35465665064E+02  0.44728763120E+02 -0.15397408663E+02  0.59270804299E+02  0.41800000000E+01 0.  1.
         -5    1    1    2    0  502 -0.83400448561E+02  0.13911669070E+03 -0.16107381576E+03  0.22862925223E+03  0.41800000000E+01 0.  1.
        -11    1    3    3    0    0  0.65419683405E+02 -0.14534758478E+03 -0.12209777098E+03  0.20078227276E+03  0.00000000000E+00 0.  1.
         11    1    3    3    0    0 -0.17484899908E+02 -0.38497869041E+02  0.54344923457E+00  0.42285966733E+02  0.00000000000E+00 0. -1.
</event>
<event>
 7    1  0.4274778E-006  0.1574557E+03  0.7561462E-02  0.1191600E+00
          1   -1    0    0  501    0  0.00000000000E+00  0.00000000000E+00  0.34511214068E+03  0.34511214068E+03  0.00000000000E+00 0. -1.
         -1   -1    0    0    0  501 -0.00000000000E+00 -0.00000000000E+00 -0.90167504464E+02  0.90167504464E+02  0.00000000000E+00 0.  1.
         23    2    1    2    0    0  0.13829382934E+03  0.80152282750E+00  0.12556717184E+03  0.20831509125E+03  0.92207575205E+02 0.  0.
          5    1    1    2  502    0  0.17024971292E+02 -0.73993293248E+01 -0.68474793904E+01  0.20222761828E+02  0.41800000000E+01 0.  1.
         -5    1    1    2    0  502 -0.15531880064E+03  0.65978064973E+01  0.13622494377E+03  0.20674179207E+03  0.41800000000E+01 0.  1.
        -11    1    3    3    0    0  0.77277769274E+02 -0.11487382711E+02  0.12322016736E+02  0.79092639872E+02  0.00000000000E+00 0.  1.
         11    1    3    3    0    0  0.61016060071E+02  0.12288905538E+02  0.11324515510E+03  0.12922245138E+03  0.00000000000E+00 0. -1.
</event>
<event>
 7    1  0.4274778E-006  0.1423330E+03  0.7561462E-02  0.1210224E+00
          1   -1    0    0  501    0  0.00000000000E+00  0.00000000000E+00  0.72516042649E+03  0.72516042649E+03  0.00000000000E+00 0. -1.
         -1   -1    0    0    0  501 -0.00000000000E+00 -0.00000000000E+00 -0.37204738792E+02  0.37204738792E+02  0.00000000000E+00 0.  1.
         23    2    1    2    0    0 -0.10758222662E+03  0.41303133970E+02  0.41758840316E+03  0.44290290449E+03  0.92211843002E+02 0.  0.
          5    1    1    2  502    0  0.11027761144E+02 -0.38643528115E+02  0.98540381570E+01  0.41587356841E+02  0.41800000000E+01 0.  1.
         -5    1    1    2    0  502  0.96554465479E+02 -0.26596058557E+01  0.26051324639E+03  0.27787490396E+03  0.41800000000E+01 0.  1.
        -11    1    3    3    0    0  0.38408176594E+01  0.35818176892E+02  0.99858476684E+02  0.10615747285E+03  0.00000000000E+00 0. -1.
         11    1    3    3    0    0 -0.11142304428E+03  0.54849570784E+01  0.31772992647E+03  0.33674543164E+03  0.00000000000E+00 0.  1.
</event>
<event>
 7    1  0.4274778E-006  0.1177511E+03  0.7561462E-02  0.1246854E+00
          1   -1    0    0  501    0  0.00000000000E+00  0.00000000000E+00  0.45443841464E+02  0.45443841464E+02  0.00000000000E+00 0. -1.
         -1   -1    0    0    0  501 -0.00000000000E+00 -0.00000000000E+00 -0.36586485564E+03  0.36586485564E+03  0.00000000000E+00 0.  1.
         23    2    1    2    0    0  0.18710375706E+02 -0.56938592838E+02 -0.85724854186E+02  0.13859741126E+03  0.90930799349E+02 0.  0.
          5    1    1    2  502    0  0.20313083561E+02 -0.29512771947E+02 -0.29437743035E+02  0.46558331013E+02  0.41800000000E+01 0. -1.
         -5    1    1    2    0  502 -0.39023459266E+02  0.86451364785E+02 -0.20525841695E+03  0.22615295483E+03  0.41800000000E+01 0.  1.
        -11    1    3    3    0    0 -0.12979279788E+02 -0.69276493907E+02 -0.75043792037E+02  0.10295273204E+03  0.00000000000E+00 0.  1.
         11    1    3    3    0    0  0.31689655494E+02  0.12337901069E+02 -0.10681062149E+02  0.35644679220E+02  0.00000000000E+00 0. -1.
</event>
<event>
 7    1  0.4274778E-006  0.1171379E+03  0.7561462E-02  0.1247895E+00
          1   -1    0    0  501    0  0.00000000000E+00  0.00000000000E+00  0.84835447638E+03  0.84835447638E+03  0.00000000000E+00 0. -1.
         -1   -1    0    0    0  501 -0.00000000000E+00 -0.00000000000E+00 -0.21104643611E+02  0.21104643611E+02  0.00000000000E+00 0.  1.
         23    2    1    2    0    0  0.78065128042E+02  0.20531511745E+02  0.34355655161E+03  0.36451751459E+03  0.91248052584E+02 0.  0.
          5    1    1    2  502    0  0.97160637069E+01  0.29940557498E+02  0.47542769596E+02  0.57171900599E+02  0.41800000000E+01 0. -1.
         -5    1    1    2    0  502 -0.87781191749E+02 -0.50472069243E+02  0.43615051157E+03  0.44776970480E+03  0.41800000000E+01 0.  1.
        -11    1    3    3    0    0  0.77472070177E+02 -0.31054716074E+01  0.32593174243E+03  0.33502696359E+03  0.00000000000E+00 0. -1.
         11    1    3    3    0    0  0.59305786529E+00  0.23636983353E+02  0.17624809181E+02  0.29490551000E+02  0.00000000000E+00 0.  1.
</event>
<event>
 7    1  0.4274778E-006  0.1009181E+03  0.7561462E-02  0.1278377E+00
         -1   -1    0    0    0  501 -0.00000000000E+00  0.00000000000E+00  0.50790316083E+02  0.50790316083E+02  0.00000000000E+00 0.  1.
          1   -1    0    0  501    0  0.00000000000E+00 -0.00000000000E+00 -0.27705370960E+03  0.27705370960E+03  0.00000000000E+00 0. -1.
         23    2    1    2    0    0 -0.19231857012E+02 -0.27435245267E+02 -0.14791862388E+03  0.17648966129E+03  0.90255882045E+02 0.  0.
          5    1    1    2  502    0 -0.14975017943E+02  0.63748934120E+02 -0.96051787102E+01  0.66316737117E+02  0.41800000000E+01 0. -1.
         -5    1    1    2    0  502  0.34206874955E+02 -0.36313688853E+02 -0.68739590922E+02  0.85037627274E+02  0.41800000000E+01 0. -1.
        -11    1    3    3    0    0  0.70010285520E+01  0.25840417867E+02 -0.14487444327E+02  0.30440559119E+02  0.00000000000E+00 0.  1.
         11    1    3    3    0    0 -0.26232885564E+02 -0.53275663134E+02 -0.13343117955E+03  0.14604910217E+03  0.00000000000E+00 0. -1.
</event>
<event>
 7    1  0.4274778E-006  0.2474186E+03  0.7561462E-02  0.1114947E+00
         -2   -1    0    0    0  501 -0.00000000000E+00  0.00000000000E+00  0.16712446405E+03  0.16712446405E+03  0.00000000000E+00 0.  1.
          2   -1    0    0  501    0  0.00000000000E+00 -0.00000000000E+00 -0.51534517480E+03  0.51534517480E+03  0.00000000000E+00 0. -1.
         23    2    1    2    0    0 -0.10585561289E+03  0.21166155958E+03 -0.32743827544E+03  0.41398345156E+03  0.90335194470E+02 0.  0.
          5    1    1    2  502    0  0.70039823610E+02 -0.50651861819E+02  0.36371224889E+02  0.93869730994E+02  0.41800000000E+01 0.  1.
         -5    1    1    2    0  502  0.35815789278E+02 -0.16100969776E+03 -0.57153660203E+02  0.17461645629E+03  0.41800000000E+01 0.  1.
        -11    1    3    3    0    0 -0.11112024591E+03  0.18249029889E+03 -0.31754431976E+03  0.38273334484E+03  0.00000000000E+00 0. -1.
         11    1    3    3    0    0  0.52646330190E+01  0.29171260688E+02 -0.98939556742E+01  0.31250106718E+02  0.00000000000E+00 0.  1.
</event>
<event>
 7    1  0.4274778E-006  0.2400859E+03  0.7561462E-02  0.1119736E+00
         -2   -1    0    0    0  501 -0.00000000000E+00  0.00000000000E+00  0.61336077367E+02  0.61336077367E+02  0.00000000000E+00 0.  1.
          2   -1    0    0  501    0  0.00000000000E+00 -0.00000000000E+00 -0.10728894365E+04  0.10728894365E+04  0.00000000000E+00 0. -1.
         23    2    1    2    0    0  0.22708230025E+02 -0.22940521416E+03 -0.54438348681E+03  0.59846771621E+03  0.93101077587E+02 0.  0.
          5    1    1    2  502    0 -0.38152856674E+02  0.20873636195E+03 -0.46295067225E+03  0.50928116656E+03  0.41800000000E+01 0.  1.
         -5    1    1    2    0  502  0.15444626649E+02  0.20668852203E+02 -0.42192000487E+01  0.26476631069E+02  0.41800000000E+01 0.  1.
        -11    1    3    3    0    0 -0.23983029944E+02 -0.39276257901E+02 -0.57172403086E+02  0.73392736934E+02  0.00000000000E+00 0.  1.
         11    1    3    3    0    0  0.46691259969E+02 -0.19012895625E+03 -0.48721108372E+03  0.52507497928E+03  0.00000000000E+00 0. -1.
</event>
<event>
 7    1  0.4274778E-006  0.1601435E+03  0.7561462E-02  0.1188535E+00
         -2   -1    0    0    0  501 -0.00000000000E+00  0.00000000000E+00  0.12234702700E+03  0.12234702700E+03  0.00000000000E+00 0.  1.
          2   -1    0    0  501    0  0.00000000000E+00 -0.00000000000E+00 -0.27606896279E+03  0.27606896279E+03  0.00000000000E+00 0. -1.
         23    2    1    2    0    0  0.14168676215E+02 -0.13394931155E+03 -0.14246905423E+03  0.21427784728E+03  0.86454583286E+02 0.  0.
          5    1    1    2  502    0  0.27635596726E+02  0.10972272856E+03  0.33571307487E+02  0.11809872334E+03  0.41800000000E+01 0. -1.
         -5    1    1    2    0  502 -0.41804272941E+02  0.24226582991E+02 -0.44824189053E+02  0.66039419166E+02  0.41800000000E+01 0. -1.
        -11    1    3    3    0    0  0.40103450897E+02 -0.12476194864E+03 -0.12801426269E+03  0.18319793136E+03  0.00000000000E+00 0. -1.
         11    1    3    3    0    0 -0.25934774683E+02 -0.91873629087E+01 -0.14454791538E+02  0.31079915918E+02  0.00000000000E+00 0.  1.
</event>
<event>
 7    1  0.4274778E-006  0.1667880E+03  0.7561462E-02  0.1181239E+00
          2   -1    0    0  501    0  0.00000000000E+00  0.00000000000E+00  0.15663828594E+02  0.15663828594E+02  0.00000000000E+00 0. -1.
         -2   -1    0    0    0  501 -0.00000000000E+00 -0.00000000000E+00 -0.19076472076E+04  0.19076472076E+04  0.00000000000E+00 0.  1.
         23    2    1    2    0    0  0.62637731018E+02 -0.62356633770E+02 -0.53951006543E+03  0.55437942942E+03  0.91943493195E+02 0.  0.
          5    1    1    2  502    0  0.60935887290E+02 -0.18361868130E+02 -0.38138289533E+03  0.38667909927E+03  0.41800000000E+01 0. -1.
         -5    1    1    2    0  502 -0.12357361831E+03  0.80718501900E+02 -0.97109041826E+03  0.98225250752E+03  0.41800000000E+01 0.  1.
        -11    1    3    3    0    0  0.22749553124E+02 -0.76503527604E+02 -0.42196966236E+03  0.42945165951E+03  0.00000000000E+00 0. -1.
         11    1    3    3    0    0  0.39888177894E+02  0.14146893833E+02 -0.11754040307E+03  0.12492776991E+03  0.00000000000E+00 0.  1.
</event>
<event>
 7    1  0.4274778E-006  0.2135388E+03  0.7561462E-02  0.1138794E+00
          1   -1    0    0  501    0  0.00000000000E+00  0.00000000000E+00  0.28297732944E+03  0.28297732944E+03  0.00000000000E+00 0. -1.
         -1   -1    0    0    0  501 -0.00000000000E+00 -0.00000000000E+00 -0.20550124655E+03  0.20550124655E+03  0.00000000000E+00 0.  1.
         23    2    1    2    0    0 -0.17442254831E+03  0.10274326165E+03  0.11081185184E+03  0.24818349691E+03  0.91303770215E+02 0.  0.
          5    1    1    2  502    0  0.55159007594E+02 -0.88613372366E+02  0.23944675362E+02  0.10717119837E+03  0.41800000000E+01 0. -1.
         -5    1    1    2    0  502  0.11926354071E+03 -0.14129889284E+02 -0.57280444310E+02  0.13312388071E+03  0.41800000000E+01 0. -1.
        -11    1    3    3    0    0 -0.12771891966E+03  0.74121812858E+02  0.30205277091E+02  0.15072665439E+03  0.00000000000E+00 0.  1.
         11    1    3    3    0    0 -0.46703628648E+02  0.28621448792E+02  0.80606574748E+02  0.97456842512E+02  0.00000000000E+00 0. -1.
</event>
<event>
 7    1  0.4274778E-006  0.3493059E+03  0.7561462E-02  0.1062900E+00
          2   -1    0    0  501    0  0.00000000000E+00  0.00000000000E+00  0.23959595478E+04  0.23959595478E+04  0.00000000000E+00 0. -1.
         -2   -1    0    0    0  501 -0.00000000000E+00 -0.00000000000E+00 -0.94257535515E+02  0.94257535515E+02  0.00000000000E+00 0.  1.
         23    2    1    2    0    0  0.33430705578E+03 -0.62117530461E+02  0.19629335134E+04  0.19942002345E+04  0.90037780582E+02 0.  0.
          5    1    1    2  502    0 -0.76034418025E+02  0.55565499835E+02  0.14539918762E+03  0.17328344888E+03  0.41800000000E+01 0. -1.
         -5    1    1    2    0  502 -0.25827263775E+03  0.65520306258E+01  0.19336931124E+03  0.32273339996E+03  0.41800000000E+01 0. -1.
        -11    1    3    3    0    0  0.38514759118E+02  0.13218633436E+02  0.13676866294E+03  0.14270173826E+03  0.00000000000E+00 0.  1.
         11    1    3    3    0    0  0.29579229666E+03 -0.75336163897E+02  0.18261648505E+04  0.18514984962E+04  0.00000000000E+00 0. -1.
</event>
<event>
 7    1  0.4274778E-006  0.1247006E+03  0.7561462E-02  0.1235538E+00
         -2   -1    0    0    0  501 -0.00000000000E+00  0.00000000000E+00  0.15524684313E+03  0.15524684313E+03  0.00000000000E+00 0.  1.
          2   -1    0    0  501    0  0.00000000000E+00 -0.00000000000E+00 -0.14601349432E+03  0.14601349432E+03  0.00000000000E+00 0. -1.
         23    2    1    2    0    0  0.88107541841E+02  0.16397932318E+02 -0.50418625995E+02  0.13621333733E+03  0.89331989256E+02 0.  0.
          5    1    1    2  502    0 -0.10754930795E+03 -0.11952037441E+01  0.78910785704E+02  0.13346410249E+03  0.41800000000E+01 0.  1.
         -5    1    1    2    0  502  0.19441766108E+02 -0.15202728574E+02 -0.19258810902E+02  0.31582897632E+02  0.41800000000E+01 0.  1.
        -11    1    3    3    0    0 -0.11836058489E+02 -0.74467312005E+01 -0.27631068537E+02  0.30968080900E+02  0.00000000000E+00 0. -1.
         11    1    3    3    0    0  0.99943600330E+02  0.23844663519E+02 -0.22787557458E+02  0.10524525643E+03  0.00000000000E+00 0.  1.
</event>
<event>
 7    1  0.4274778E-006  0.8436780E+02  0.7561462E-02  0.1317094E+00
          1   -1    0    0  501    0  0.00000000000E+00  0.00000000000E+00  0.22522418627E+02  0.22522418627E+02  0.00000000000E+00 0. -1.
         -1   -1    0    0    0  501 -0.00000000000E+00 -0.00000000000E+00 -0.68784706202E+03  0.68784706202E+03  0.00000000000E+00 0.  1.
         23    2    1    2    0    0  0.39529168963E+02 -0.28553783994E+02 -0.19062651338E+03  0.21704999227E+03  0.91620727802E+02 0.  0.
          5    1    1    2  502    0 -0.58034283646E+02  0.14073877222E+02 -0.91274557976E+02  0.10915387960E+03  0.41800000000E+01 0. -1.
         -5    1    1    2    0  502  0.18505114683E+02  0.14479906771E+02 -0.38342357204E+03  0.38416560877E+03  0.41800000000E+01 0. -1.
        -11    1    3    3    0    0  0.35775448406E+02  0.16782151889E+02 -0.15298136312E+03  0.15800259742E+03  0.00000000000E+00 0.  1.
         11    1    3    3    0    0  0.37537205571E+01 -0.45335935882E+02 -0.37645150260E+02  0.59047394849E+02  0.00000000000E+00 0. -1.
</event>
<event>
 7    1  0.4274778E-006  0.7957124E+02  0.7561462E-02  0.1330273E+00
         -1   -1    0    0    0  501 -0.00000000000E+00  0.00000000000E+00  0.63645937303E+02  0.63645937303E+02  0.00000000000E+00 0.  1.
          1   -1    0    0  501    0  0.00000000000E+00 -0.00000000000E+00 -0.20213343020E+03  0.20213343020E+03  0.00000000000E+00 0. -1.
         23    2    1    2    0    0 -0.23310344008E+02  0.25714353472E+02 -0.69786288022E+02  0.11890481986E+03  0.89797717547E+02 0.  0.
          5    1    1    2  502    0  0.54413510776E+01 -0.57638007634E+02 -0.87909105124E+02  0.10534339746E+03  0.41800000000E+01 0. -1.
         -5    1    1    2    0  502  0.17868992930E+02  0.31923654162E+02  0.19207900251E+02  0.41531150182E+02  0.41800000000E+01 0. -1.
        -11    1    3    3    0    0  0.10405610480E+02  0.28601650875E+02  0.10164065810E+02  0.32087994578E+02  0.00000000000E+00 0.  1.
         11    1    3    3    0    0 -0.33715954487E+02 -0.28872974030E+01 -0.79950353833E+02  0.86816825277E+02  0.00000000000E+00 0. -1.
</event>
<event>
 7    1  0.4274778E-006  0.9288572E+02  0.7561462E-02  0.1296010E+00
         -2   -1    0    0    0  501 -0.00000000000E+00  0.00000000000E+00  0.10799526265E+04  0.10799526265E+04  0.00000000000E+00 0.  1.
          2   -1    0    0  501    0  0.00000000000E+00 -0.00000000000E+00 -0.18315089375E+02  0.18315089375E+02  0.00000000000E+00 0. -1.
         23    2    1    2    0    0  0.49929826380E+02 -0.84525707488E+01  0.17624227549E+03  0.20264678885E+03  0.86255132282E+02 0.  0.
          5    1    1    2  502    0  0.16414931833E+02 -0.86356019977E+01  0.20323835188E+02  0.27830815397E+02  0.41800000000E+01 0. -1.
         -5    1    1    2    0  502 -0.66344758213E+02  0.17088172747E+02  0.86507142648E+03  0.86779011167E+03  0.41800000000E+01 0. -1.
        -11    1    3    3    0    0  0.16846900019E+02  0.37724870533E+02  0.94157200748E+02  0.10282296606E+03  0.00000000000E+00 0.  1.
         11    1    3    3    0    0  0.33082926361E+02 -0.46177441281E+02  0.82085074745E+02  0.99823822787E+02  0.00000000000E+00 0. -1.
</event>
<event>
 7    1  0.4274778E-006  0.1074041E+03  0.7561462E-02  0.1265454E+00
         -2   -1    0    0    0  501 -0.00000000000E+00  0.00000000000E+00  0.99814466427E+02  0.99814466427E+02  0.00000000000E+00 0.  1.
          2   -1    0    0  501    0  0.00000000000E+00 -0.00000000000E+00 -0.18850158209E+03  0.18850158209E+03  0.00000000000E+00 0. -1.
         23    2    1    2    0    0 -0.72491102603E+01 -0.39997345215E+02 -0.11572963910E+03  0.15403501566E+03  0.93172417907E+02 0.  0.
          5    1    1    2  502    0  0.38811969356E+01  0.82949457268E+02  0.35101248785E+02  0.90251017817E+02  0.41800000000E+01 0. -1.
         -5    1    1    2    0  502  0.33679133247E+01 -0.42952112053E+02 -0.80587253405E+01  0.44030015036E+02  0.41800000000E+01 0. -1.
        -11    1    3    3    0    0 -0.20114567086E+02 -0.60731131895E+02 -0.11250381030E+03  0.12942168876E+03  0.00000000000E+00 0.  1.
         11    1    3    3    0    0  0.12865456826E+02  0.20733786679E+02 -0.32258288009E+01  0.24613326895E+02  0.00000000000E+00 0. -1.
</event>
<event>
 7    1  0.4274778E-006  0.1291910E+03  0.7561462E-02  0.1228661E+00
         -2   -1    0    0    0  501 -0.00000000000E+00  0.00000000000E+00  0.19268107634E+02  0.19268107634E+02  0.00000000000E+00 0.  1.
          2   -1    0    0  501    0  0.00000000000E+00 -0.00000000000E+00 -0.92713687291E+03  0.92713687291E+03  0.00000000000E+00 0. -1.
         23    2    1    2    0    0  0.74841492688E+02  0.19228251523E+02 -0.46466651168E+03  0.47944944428E+03  0.89363459343E+02 0.  0.
          5    1    1    2  502    0 -0.62338528572E+02 -0.70298384474E+02 -0.29656201185E+03  0.31111807128E+03  0.41800000000E+01 0.  1.
         -5    1    1    2    0  502 -0.12502964116E+02  0.51070132951E+02 -0.14664024175E+03  0.15583746499E+03  0.41800000000E+01 0.  1.
        -11    1    3    3    0    0  0.44057269784E+02  0.50968653896E+02 -0.19815009938E+03  0.20929001072E+03  0.00000000000E+00 0.  1.
         11    1    3    3    0    0  0.30784222904E+02 -0.31740402373E+02 -0.26651641230E+03  0.27015943357E+03  0.00000000000E+00 0. -1.
</event>
<event>
 7    1  0.4274778E-006  0.1197460E+03  0.7561462E-02  0.1243517E+00
         -2   -1    0    0    0  501 -0.00000000000E+00  0.00000000000E+00  0.22192936927E+03  0.22192936927E+03  0.00000000000E+00 0.  1.
          2   -1    0    0  501    0  0.00000000000E+00 -0.00000000000E+00 -0.84245040120E+02  0.84245040120E+02  0.00000000000E+00 0. -1.
         23    2    1    2    0    0 -0.27420857949E+02  0.81330483649E+02  0.23179337470E+02  0.11610788275E+03  0.74680705206E+02 0.  0.
          5    1    1    2  502    0 -0.20730477393E+02  0.20963536515E+02  0.98270371288E+00  0.29793634601E+02  0.41800000000E+01 0.  1.
         -5    1    1    2    0  502  0.48151335342E+02 -0.10229402016E+03  0.11352228796E+03  0.16027289203E+03  0.41800000000E+01 0.  1.
        -11    1    3    3    0    0 -0.36633295867E+02  0.40033265255E+02 -0.17893920350E+02  0.57138892871E+02  0.00000000000E+00 0. -1.
         11    1    3    3    0    0  0.92124379182E+01  0.41297218394E+02  0.41073257820E+02  0.58968989880E+02  0.00000000000E+00 0.  1.
</event>
<event>
 7    1  0.4274778E-006  0.9446352E+02  0.7561462E-02  0.1292389E+00
         -1   -1    0    0    0  501 -0.00000000000E+00  0.00000000000E+00  0.31671364595E+03  0.31671364595E+03  0.00000000000E+00 0.  1.
          1   -1    0    0  501    0  0.00000000000E+00 -0.00000000000E+00 -0.44493389871E+02  0.44493389871E+02  0.00000000000E+00 0. -1.
         23    2    1    2    0    0  0.57394817068E+02 -0.64186939360E+01  0.10633175344E+03  0.15380367449E+03  0.94940843888E+02 0.  0.
          5    1    1    2  502    0 -0.61927647048E+02  0.40175390711E+02  0.15444502167E+03  0.17123034955E+03  0.41800000000E+01 0. -1.
         -5    1    1    2    0  502  0.45328299797E+01 -0.33756696775E+02  0.11443480968E+02  0.36173011783E+02  0.41800000000E+01 0.  1.
        -11    1    3    3    0    0  0.48430653862E+02  0.20285171978E+02  0.11322209995E+03  0.12480488914E+03  0.00000000000E+00 0.  1.
         11    1    3    3    0    0  0.89641632067E+01 -0.26703865914E+02 -0.68903465099E+01  0.28998785350E+02  0.00000000000E+00 0. -1.
</event>
<event>
 7    1  0.4274778E-006  0.1074388E+03  0.7561462E-02  0.1265388E+00
          2   -1    0    0  501    0  0.00000000000E+00  0.00000000000E+00  0.82795532175E+02  0.82795532175E+02  0.00000000000E+00 0. -1.
         -2   -1    0    0    0  501 -0.00000000000E+00 -0.00000000000E+00 -0.20463447659E+03  0.20463447659E+03  0.00000000000E+00 0.  1.
         23    2    1    2    0    0  0.14445398940E+02 -0.68013604927E+02 -0.35865248034E+02  0.12047632654E+03  0.91617188526E+02 0.  0.
          5    1    1    2  502    0  0.44911574597E+02 -0.85956099004E+01 -0.23598550964E+02  0.51626524674E+02  0.41800000000E+01 0. -1.
         -5    1    1    2    0  502 -0.59356973537E+02  0.76609214827E+02 -0.62375145415E+02  0.11532715755E+03  0.41800000000E+01 0. -1.
        -11    1    3    3    0    0  0.11138147257E+02 -0.14226331530E+02  0.30217113773E+02  0.35206828853E+02  0.00000000000E+00 0. -1.
         11    1    3    3    0    0  0.33072516829E+01 -0.53787273397E+02 -0.66082361807E+02  0.85269497683E+02  0.00000000000E+00 0.  1.
</event>
<event>
 7    1  0.4274778E-006  0.1167387E+03  0.7561462E-02  0.1248576E+00
         -2   -1    0    0    0  501 -0.00000000000E+00  0.00000000000E+00  0.23203381036E+02  0.23203381036E+02  0.00000000000E+00 0.  1.
          2   -1    0    0  501    0  0.00000000000E+00 -0.00000000000E+00 -0.75892564644E+03  0.75892564644E+03  0.00000000000E+00 0. -1.
         23    2    1    2    0    0 -0.26149135691E+02  0.63811073975E+02 -0.41106958234E+03  0.42744199973E+03  0.94725029150E+02 0.  0.
          5    1    1    2  502    0  0.58884269634E+02 -0.70518953335E+02 -0.14356940327E+03  0.17049904969E+03  0.41800000000E+01 0. -1.
         -5    1    1    2    0  502 -0.32735133943E+02  0.67078793591E+01 -0.18108327979E+03  0.18418797805E+03  0.41800000000E+01 0. -1.
        -11    1    3    3    0    0 -0.13483921310E+02  0.83414164253E+02 -0.37556931837E+03  0.38495720780E+03  0.00000000000E+00 0. -1.
         11    1    3    3    0    0 -0.12665214381E+02 -0.19603090278E+02 -0.35500263970E+02  0.42484791934E+02  0.00000000000E+00 0.  1.
</event>
<event>
 7    1  0.4274778E-006  0.1190208E+03  0.7561462E-02  0.1244721E+00
         -1   -1    0    0    0  501 -0.00000000000E+00  0.00000000000E+00  0.10769101502E+03  0.10769101502E+03  0.00000000000E+00 0.  1.
          1   -1    0    0  501    0  0.00000000000E+00 -0.00000000000E+00 -0.15176030861E+03  0.15176030861E+03  0.00000000000E+00 0. -1.
         23    2    1    2    0    0  0.65334389239E+02 -0.15663298239E+02 -0.32544377431E+02  0.11706815543E+03  0.90177021371E+02 0.  0.
          5    1    1    2  502    0  0.33384066612E+02 -0.91052661231E+01 -0.19968372452E+02  0.40169765659E+02  0.41800000000E+01 0. -1.
         -5    1    1    2    0  502 -0.98718455851E+02  0.24768564362E+02  0.84434562861E+01  0.10221340255E+03  0.41800000000E+01 0. -1.
        -11    1    3    3    0    0 -0.16101695888E+02  0.57846998299E+01 -0.27898508331E+02  0.32726963344E+02  0.00000000000E+00 0. -1.
         11    1    3    3    0    0  0.81436085128E+02 -0.21447998069E+02 -0.46458691000E+01  0.84341192082E+02  0.00000000000E+00 0.  1.
</event>
<event>
 7    1  0.4274778E-006  0.1922219E+03  0.7561462E-02  0.1156472E+00
          2   -1    0    0  501    0  0.00000000000E+00  0.00000000000E+00  0.10698902224E+04  0.10698902224E+04  0.00000000000E+00 0. -1.
         -2   -1    0    0    0  501 -0.00000000000E+00 -0.00000000000E+00 -0.46268381042E+02  0.46268381042E+02  0.00000000000E+00 0.  1.
         23    2    1    2    0    0  0.14668290655E+03  0.10287566868E+03  0.67623649371E+03  0.70576702745E+03  0.93338220140E+02 0.  0.
          5    1    1    2  502    0 -0.82735096269E+02 -0.33755393472E+02  0.59415140790E+02  0.10738786756E+03  0.41800000000E+01 0. -1.
         -5    1    1    2    0  502 -0.63947810279E+02 -0.69120275212E+02  0.28797020689E+03  0.30300370846E+03  0.41800000000E+01 0. -1.
        -11    1    3    3    0    0  0.10963524718E+03  0.22063605932E+02  0.33677270924E+03  0.35485567182E+03  0.00000000000E+00 0.  1.
         11    1    3    3    0    0  0.37047659367E+02  0.80812062751E+02  0.33946378446E+03  0.35091135563E+03  0.00000000000E+00 0. -1.
</event>
<event>
 7    1  0.4274778E-006  0.9596155E+02  0.7561462E-02  0.1289025E+00
          4   -1    0    0  501    0  0.00000000000E+00  0.00000000000E+00  0.23512836137E+03  0.23512836137E+03  0.00000000000E+00 0. -1.
         -4   -1    0    0    0  501 -0.00000000000E+00 -0.00000000000E+00 -0.55871323595E+02  0.55871323595E+02  0.00000000000E+00 0.  1.
         23    2    1    2    0    0 -0.32244468286E+02  0.20104704038E+02  0.80269590910E+02  0.12701821448E+03  0.90810322791E+02 0.  0.
          5    1    1    2  502    0 -0.27345083555E+02 -0.51771524680E+02  0.67336335088E+02  0.89329159771E+02  0.41800000000E+01 0. -1.
         -5    1    1    2    0  502  0.59589551841E+02  0.31666820643E+02  0.31651111778E+02  0.74652310715E+02  0.41800000000E+01 0. -1.
        -11    1    3    3    0    0 -0.28970886154E+02  0.37796308573E+02  0.30384286275E+01  0.47719023825E+02  0.00000000000E+00 0.  1.
         11    1    3    3    0    0 -0.32735821323E+01 -0.17691604536E+02  0.77231162283E+02  0.79299190655E+02  0.00000000000E+00 0. -1.
</event>
<event>
 7    1  0.4274778E-006  0.1873513E+03  0.7561462E-02  0.1160872E+00
         -2   -1    0    0    0  501 -0.00000000000E+00  0.00000000000E+00  0.75845255962E+02  0.75845255962E+02  0.00000000000E+00 0. -1.
          2   -1    0    0  501    0  0.00000000000E+00 -0.00000000000E+00 -0.59451496190E+03  0.59451496190E+03  0.00000000000E+00 0.  1.
         23    2    1    2    0    0  0.15598779636E+03 -0.91678957995E+02 -0.20957391151E+03  0.29098676667E+03  0.89525694846E+02 0.  0.
          5    1    1    2  502    0 -0.91808827667E+02  0.14377970242E+02 -0.59863326705E+02  0.11061951523E+03  0.41800000000E+01 0.  1.
         -5    1    1    2    0  502 -0.64178968689E+02  0.77300987753E+02 -0.24923246772E+03  0.26875393596E+03  0.41800000000E+01 0.  1.
        -11    1    3    3    0    0  0.10656583998E+03 -0.58124494065E+02 -0.72321002046E+02  0.14129777917E+03  0.00000000000E+00 0.  1.
         11    1    3    3    0    0  0.49421956379E+02 -0.33554463930E+02 -0.13725290947E+03  0.14968898750E+03  0.00000000000E+00 0. -1.
</event>
<event>
 7    1  0.4274778E-006  0.9235826E+02  0.7561462E-02  0.1297239E+00
          2   -1    0    0  501    0  0.00000000000E+00  0.00000000000E+00  0.25263371918E+03  0.25263371918E+03  0.00000000000E+00 0.  1.
         -2   -1    0    0    0  501 -0.00000000000E+00 -0.00000000000E+00 -0.55743064910E+02  0.55743064910E+02  0.00000000000E+00 0. -1.
         23    2    1    2    0    0 -0.11071826380E+02  0.43183676770E+02  0.58442300022E+02  0.11653651800E+03  0.90431423279E+02 0.  0.
          5    1    1    2  502    0  0.42551453748E+02 -0.45930121800E+02  0.15239121071E+02  0.64574805580E+02  0.41800000000E+01 0.  1.
         -5    1    1    2    0  502 -0.31479627368E+02  0.27464450303E+01  0.12320923318E+03  0.12726546051E+03  0.41800000000E+01 0.  1.
        -11    1    3    3    0    0  0.32295647392E+02  0.57526863696E+01  0.48256950684E+02  0.58350968546E+02  0.00000000000E+00 0.  1.
         11    1    3    3    0    0 -0.43367473773E+02  0.37430990400E+02  0.10185349338E+02  0.58185549451E+02  0.00000000000E+00 0. -1.
</event>
<event>
 7    1  0.4274778E-006  0.1028918E+03  0.7561462E-02  0.1274330E+00
          1   -1    0    0  501    0  0.00000000000E+00  0.00000000000E+00  0.54567670593E+03  0.54567670593E+03  0.00000000000E+00 0. -1.
         -1   -1    0    0    0  501 -0.00000000000E+00 -0.00000000000E+00 -0.22203216556E+02  0.22203216556E+02  0.00000000000E+00 0.  1.
         23    2    1    2    0    0 -0.14734931005E+02  0.10245688673E+02  0.21303195117E+03  0.23270333089E+03  0.91902859893E+02 0.  0.
          5    1    1    2  502    0 -0.43727190881E+02  0.17661567404E+02  0.59842153596E+02  0.76305661208E+02  0.41800000000E+01 0. -1.
         -5    1    1    2    0  502  0.58462121885E+02 -0.27907256077E+02  0.25059938460E+03  0.25887093039E+03  0.41800000000E+01 0. -1.
        -11    1    3    3    0    0 -0.19913769643E+02  0.49798637430E+02  0.12784575793E+03  0.13863982232E+03  0.00000000000E+00 0.  1.
         11    1    3    3    0    0  0.51788386383E+01 -0.39552948758E+02  0.85186193245E+02  0.94063508571E+02  0.00000000000E+00 0. -1.
</event>
<event>
 7    1  0.4274778E-006  0.9445209E+02  0.7561462E-02  0.1292415E+00
          2   -1    0    0  501    0  0.00000000000E+00  0.00000000000E+00  0.25551363141E+02  0.25551363141E+02  0.00000000000E+00 0.  1.
         -2   -1    0    0    0  501 -0.00000000000E+00 -0.00000000000E+00 -0.93729950635E+03  0.93729950635E+03  0.00000000000E+00 0. -1.
         23    2    1    2    0    0 -0.33871501269E+00 -0.26557711003E+02 -0.89608454766E+02  0.13082495659E+03  0.91542707849E+02 0.  0.
          5    1    1    2  502    0  0.28030944773E+01 -0.33390389235E+02 -0.62510146304E+03  0.62601284885E+03  0.41800000000E+01 0. -1.
         -5    1    1    2    0  502 -0.24643794647E+01  0.59948100238E+02 -0.19703822541E+03  0.20601306405E+03  0.41800000000E+01 0. -1.
        -11    1    3    3    0    0 -0.17222712538E+01 -0.60748887354E+02 -0.62430051025E+02  0.87125798728E+02  0.00000000000E+00 0.  1.
         11    1    3    3    0    0  0.13835562411E+01  0.34191176351E+02 -0.27178403741E+02  0.43699157864E+02  0.00000000000E+00 0. -1.
</event>
<event>
 7    1  0.4274778E-006  0.7875073E+02  0.7561462E-02  0.1332635E+00
          2   -1    0    0  501    0  0.00000000000E+00  0.00000000000E+00  0.69607523393E+02  0.69607523393E+02  0.00000000000E+00 0. -1.
         -2   -1    0    0    0  501 -0.00000000000E+00 -0.00000000000E+00 -0.19230655690E+03  0.19230655690E+03  0.00000000000E+00 0.  1.
         23    2    1    2    0    0  0.24722882321E+01 -0.35415629238E+02 -0.33267512327E+02  0.10409794497E+03  0.92028668177E+02 0.  0.
          5    1    1    2  502    0 -0.22142401643E+02 -0.17373037829E+02  0.19921814338E+02  0.34734125589E+02  0.41800000000E+01 0.  1.
         -5    1    1    2    0  502  0.19670113411E+02  0.52788667066E+02 -0.10935333552E+03  0.12308200974E+03  0.41800000000E+01 0.  1.
        -11    1    3    3    0    0 -0.30427440888E+02 -0.16741644335E+02 -0.51490330371E+02  0.62107696268E+02  0.00000000000E+00 0.  1.
         11    1    3    3    0    0  0.32899729120E+02 -0.18673984903E+02  0.18222818043E+02  0.41990248698E+02  0.00000000000E+00 0. -1.
</event>
<event>
 7    1  0.4274778E-006  0.1014483E+03  0.7561462E-02  0.1277280E+00
         -2   -1    0    0    0  501 -0.00000000000E+00  0.00000000000E+00  0.31402040446E+03  0.31402040446E+03  0.00000000000E+00 0. -1.
          2   -1    0    0  501    0  0.00000000000E+00 -0.00000000000E+00 -0.49440226703E+02  0.49440226703E+02  0.00000000000E+00 0.  1.
         23    2    1    2    0    0  0.32457108394E+02  0.88654509933E+01  0.45693805236E+02  0.10912312806E+03  0.93208761035E+02 0.  0.
          5    1    1    2  502    0  0.41756393561E+01 -0.50270571507E+02  0.33157014018E+02  0.60509720726E+02  0.41800000000E+01 0. -1.
         -5    1    1    2    0  502 -0.36632747750E+02  0.41405120514E+02  0.18572935850E+03  0.19382778238E+03  0.41800000000E+01 0. -1.
        -11    1    3    3    0    0 -0.30989115468E+02  0.12200079103E+02  0.27064246165E+02  0.42914340588E+02  0.00000000000E+00 0.  1.
         11    1    3    3    0    0  0.63446223862E+02 -0.33346281101E+01  0.18629559071E+02  0.66208787470E+02  0.00000000000E+00 0. -1.
</event>
<event>
 7    1  0.4274778E-006  0.4523279E+02  0.7561462E-02  0.1472894E+00
         -3   -1    0    0    0  501 -0.00000000000E+00  0.00000000000E+00  0.16721927562E+03  0.16721927562E+03  0.00000000000E+00 0.  1.
          3   -1    0    0  501    0  0.00000000000E+00 -0.00000000000E+00 -0.11709033190E+03  0.11709033190E+03  0.00000000000E+00 0. -1.
         23    2    1    2    0    0  0.23049537300E+02  0.99158125675E+01 -0.58202680072E+02  0.11693880152E+03  0.98272716585E+02 0.  0.
          5    1    1    2  502    0 -0.37307913238E+02 -0.14465545009E+02  0.13259147983E+03  0.13856083612E+03  0.41800000000E+01 0.  1.
         -5    1    1    2    0  502  0.14258375938E+02  0.45497324417E+01 -0.24259856041E+02  0.28809969886E+02  0.41800000000E+01 0.  1.
        -11    1    3    3    0    0  0.15462907752E+02 -0.63734675824E+01 -0.83917344835E+02  0.85567770623E+02  0.00000000000E+00 0. -1.
         11    1    3    3    0    0  0.75866295485E+01  0.16289280150E+02  0.25714664763E+02  0.31371030898E+02  0.00000000000E+00 0.  1.
</event>
<event>
 7    1  0.4274778E-006  0.9636232E+02  0.7561462E-02  0.1288137E+00
         -2   -1    0    0    0  501 -0.00000000000E+00  0.00000000000E+00  0.35284536928E+02  0.35284536928E+02  0.00000000000E+00 0. -1.
          2   -1    0    0  501    0  0.00000000000E+00 -0.00000000000E+00 -0.35517772421E+03  0.35517772421E+03  0.00000000000E+00 0.  1.
         23    2    1    2    0    0 -0.17952435325E+02 -0.21270276419E+02 -0.16456714107E+03  0.18909603694E+03  0.88883365569E+02 0.  0.
          5    1    1    2  502    0 -0.30158044740E+02 -0.32877962507E+02 -0.22794790498E+02  0.50274675086E+02  0.41800000000E+01 0. -1.
         -5    1    1    2    0  502  0.48110480065E+02  0.54148238926E+02 -0.13253125572E+03  0.15109154911E+03  0.41800000000E+01 0. -1.
        -11    1    3    3    0    0 -0.36702539204E+02  0.10758509962E+02 -0.27536316368E+02  0.47128236120E+02  0.00000000000E+00 0. -1.
         11    1    3    3    0    0  0.18750103879E+02 -0.32028786381E+02 -0.13703082470E+03  0.14196780082E+03  0.00000000000E+00 0.  1.
</event>
<event>
 7    1  0.4274778E-006  0.1416341E+03  0.7561462E-02  0.1211147E+00
         -2   -1    0    0    0  501 -0.00000000000E+00  0.00000000000E+00  0.47944697750E+03  0.47944697750E+03  0.00000000000E+00 0.  1.
          2   -1    0    0  501    0  0.00000000000E+00 -0.00000000000E+00 -0.49166547476E+02  0.49166547476E+02  0.00000000000E+00 0. -1.
         23    2    1    2    0    0  0.44284364412E+01 -0.10782412312E+03  0.21401438888E+03  0.25646571989E+03  0.91251598637E+02 0.  0.
          5    1    1    2  502    0  0.44975098679E+02  0.67097167024E+02  0.52936051169E+02  0.96666888009E+02  0.41800000000E+01 0.  1.
         -5    1    1    2    0  502 -0.49403535120E+02  0.40726956091E+02  0.16332998997E+03  0.17548091708E+03  0.41800000000E+01 0.  1.
        -11    1    3    3    0    0  0.40159678838E+02 -0.89429886083E+02  0.17422735688E+03  0.19991417212E+03  0.00000000000E+00 0.  1.
         11    1    3    3    0    0 -0.35731242397E+02 -0.18394237032E+02  0.39787032000E+02  0.56551547765E+02  0.00000000000E+00 0. -1.
</event>
<event>
 7    1  0.4274778E-006  0.7228653E+02  0.7561462E-02  0.1352486E+00
          2   -1    0    0  501    0  0.00000000000E+00  0.00000000000E+00  0.59064705258E+02  0.59064705258E+02  0.00000000000E+00 0. -1.
         -2   -1    0    0    0  501 -0.00000000000E+00 -0.00000000000E+00 -0.20884217351E+03  0.20884217351E+03  0.00000000000E+00 0.  1.
         23    2    1    2    0    0 -0.11285187051E+02 -0.46925650361E+01 -0.80234185611E+02  0.12426665069E+03  0.94102605276E+02 0.  0.
          5    1    1    2  502    0 -0.20828328162E+01  0.40825498015E+02 -0.90638345830E+02  0.99518046682E+02  0.41800000000E+01 0. -1.
         -5    1    1    2    0  502  0.13368019867E+02 -0.36132932979E+02  0.21095063184E+02  0.44122181401E+02  0.41800000000E+01 0. -1.
        -11    1    3    3    0    0  0.14198082949E+02  0.23041530696E+02 -0.82210399802E+02  0.86550837846E+02  0.00000000000E+00 0.  1.
         11    1    3    3    0    0 -0.25483270000E+02 -0.27734095732E+02  0.19762141912E+01  0.37715812844E+02  0.00000000000E+00 0. -1.
</event>
<event>
 7    1  0.4274778E-006  0.9692685E+02  0.7561462E-02  0.1286894E+00
          1   -1    0    0  501    0  0.00000000000E+00  0.00000000000E+00  0.29508843309E+03  0.29508843309E+03  0.00000000000E+00 0. -1.
         -1   -1    0    0    0  501 -0.00000000000E+00 -0.00000000000E+00 -0.89331843682E+02  0.89331843682E+02  0.00000000000E+00 0.  1.
         23    2    1    2    0    0  0.46775266433E+02 -0.23276332718E+02  0.22860865856E+03  0.24921200935E+03  0.84350421583E+02 0.  0.
          5    1    1    2  502    0  0.49703926921E+01 -0.25711832940E+02  0.34590436441E+02  0.43586395238E+02  0.41800000000E+01 0. -1.
         -5    1    1    2    0  502 -0.51745659126E+02  0.48988165658E+02 -0.57442505595E+02  0.91621872181E+02  0.41800000000E+01 0.  1.
        -11    1    3    3    0    0  0.48301497389E+02  0.20270155131E+02  0.92542050338E+02  0.10633882132E+03  0.00000000000E+00 0. -1.
         11    1    3    3    0    0 -0.15262309555E+01 -0.43546487848E+02  0.13606660822E+03  0.14287318803E+03  0.00000000000E+00 0.  1.
</event>
<event>
 7    1  0.4274778E-006  0.1109796E+03  0.7561462E-02  0.1258766E+00
          2   -1    0    0  501    0  0.00000000000E+00  0.00000000000E+00  0.31392937179E+03  0.31392937179E+03  0.00000000000E+00 0.  1.
         -2   -1    0    0    0  501 -0.00000000000E+00 -0.00000000000E+00 -0.75741552924E+02  0.75741552924E+02  0.00000000000E+00 0. -1.
         23    2    1    2    0    0 -0.46876913099E+02  0.52725811731E+02  0.18890534874E+03  0.23784412247E+03  0.12612350933E+03 0.  0.
          5    1    1    2  502    0 -0.89217056191E+01 -0.56732779376E+02  0.71225120403E+02  0.91589820741E+02  0.41800000000E+01 0.  1.
         -5    1    1    2    0  502  0.55798618718E+02  0.40069676456E+01 -0.21942650270E+02  0.60236981510E+02  0.41800000000E+01 0.  1.
        -11    1    3    3    0    0 -0.22546780087E+02 -0.20896183509E+02 -0.29797747743E+01  0.30885058446E+02  0.00000000000E+00 0. -1.
         11    1    3    3    0    0 -0.24330133012E+02  0.73621995239E+02  0.19188512351E+03  0.20695906402E+03  0.00000000000E+00 0.  1.
</event>
<event>
 7    1  0.4274778E-006  0.2368078E+03  0.7561462E-02  0.1121938E+00
         -2   -1    0    0    0  501 -0.00000000000E+00  0.00000000000E+00  0.74767642528E+02  0.74767642528E+02  0.00000000000E+00 0.  1.
          2   -1    0    0  501    0  0.00000000000E+00 -0.00000000000E+00 -0.82643844793E+03  0.82643844793E+03  0.00000000000E+00 0. -1.
         23    2    1    2    0    0  0.19072745782E+03  0.11025327260E+03 -0.42921594825E+03  0.49113566410E+03  0.91951960469E+02 0.  0.
          5    1    1    2  502    0 -0.56622069317E+02  0.25006386219E+02 -0.65837782283E+02  0.90462500858E+02  0.41800000000E+01 0.  1.
         -5    1    1    2    0  502 -0.13410538850E+03 -0.13525965882E+03 -0.25661707486E+03  0.31960792550E+03  0.41800000000E+01 0.  1.
        -11    1    3    3    0    0  0.16673465178E+03  0.10304443905E+03 -0.42162527015E+03  0.46495856692E+03  0.00000000000E+00 0. -1.
         11    1    3    3    0    0  0.23992806039E+02  0.72088335439E+01 -0.75906781000E+01  0.26177097179E+02  0.00000000000E+00 0.  1.
</event>
<event>
 7    1  0.4274778E-006  0.1079779E+03  0.7561462E-02  0.1264361E+00
         -2   -1    0    0    0  501 -0.00000000000E+00  0.00000000000E+00  0.11408931930E+03  0.11408931930E+03  0.00000000000E+00 0.  1.
          2   -1    0    0  501    0  0.00000000000E+00 -0.00000000000E+00 -0.12539942021E+03  0.12539942021E+03  0.00000000000E+00 0. -1.
         23    2    1    2    0    0 -0.14082402354E+02  0.45303452954E+02 -0.26970544677E+02  0.10479237839E+03  0.89461250737E+02 0.  0.
          5    1    1    2  502    0 -0.96547688520E+00 -0.79081149183E+02  0.41480345726E+02  0.89402750423E+02  0.41800000000E+01 0. -1.
         -5    1    1    2    0  502  0.15047879240E+02  0.33777696229E+02 -0.25819901963E+02  0.45293610692E+02  0.41800000000E+01 0. -1.
        -11    1    3    3    0    0 -0.31021766203E+02  0.65924255896E+02 -0.28081792162E+02  0.78082933761E+02  0.00000000000E+00 0.  1.
         11    1    3    3    0    0  0.16939363848E+02 -0.20620802942E+02  0.11112474853E+01  0.26709444632E+02  0.00000000000E+00 0. -1.
</event>
<event>
 7    1  0.4274778E-006  0.1313968E+03  0.7561462E-02  0.1225398E+00
          2   -1    0    0  501    0  0.00000000000E+00  0.00000000000E+00  0.32886873359E+03  0.32886873359E+03  0.00000000000E+00 0. -1.
         -2   -1    0    0    0  501 -0.00000000000E+00 -0.00000000000E+00 -0.68169076444E+02  0.68169076444E+02  0.00000000000E+00 0.  1.
         23    2    1    2    0    0  0.84891610436E+02 -0.48197090205E+02  0.81183789489E+02  0.15745265463E+03  0.93118127921E+02 0.  0.
          5    1    1    2  502    0 -0.80677244020E+02  0.79381567846E+02  0.17362293080E+03  0.20729844552E+03  0.41800000000E+01 0.  1.
         -5    1    1    2    0  502 -0.42143664162E+01 -0.31184477641E+02  0.58929368542E+01  0.32286709878E+02  0.41800000000E+01 0.  1.
        -11    1    3    3    0    0  0.90952001748E+01 -0.40608170173E+02 -0.55885442829E+01  0.41987831311E+02  0.00000000000E+00 0.  1.
         11    1    3    3    0    0  0.75796410262E+02 -0.75889200325E+01  0.86772333772E+02  0.11546482332E+03  0.00000000000E+00 0. -1.
</event>
<event>
 7    1  0.4274778E-006  0.9786458E+02  0.7561462E-02  0.1284852E+00
          1   -1    0    0  501    0  0.00000000000E+00  0.00000000000E+00  0.35604130344E+03  0.35604130344E+03  0.00000000000E+00 0. -1.
         -1   -1    0    0    0  501 -0.00000000000E+00 -0.00000000000E+00 -0.62388444101E+02  0.62388444101E+02  0.00000000000E+00 0.  1.
         23    2    1    2    0    0 -0.70265003137E+01 -0.11195918906E+02  0.11511323261E+03  0.14736553749E+03  0.91053967566E+02 0.  0.
          5    1    1    2  502    0 -0.56032188833E+02 -0.14234301052E+02  0.19292158074E+03  0.20144088519E+03  0.41800000000E+01 0. -1.
         -5    1    1    2    0  502  0.63058689147E+02  0.25430219957E+02 -0.14381954010E+02  0.69623324864E+02  0.41800000000E+01 0.  1.
        -11    1    3    3    0    0  0.41605449542E+01  0.28295229753E+02  0.39552747453E+01  0.28871687852E+02  0.00000000000E+00 0. -1.
         11    1    3    3    0    0 -0.11187045268E+02 -0.39491148659E+02  0.11115795786E+03  0.11849384963E+03  0.00000000000E+00 0.  1.
</event>
<event>
 7    1  0.4274778E-006  0.1201551E+03  0.7561462E-02  0.1242841E+00
          2   -1    0    0  501    0  0.00000000000E+00  0.00000000000E+00  0.36608536729E+03  0.36608536729E+03  0.00000000000E+00 0. -1.
         -2   -1    0    0    0  501 -0.00000000000E+00 -0.00000000000E+00 -0.43389561670E+02  0.43389561670E+02  0.00000000000E+00 0.  1.
         23    2    1    2    0    0  0.59325618311E+02 -0.20997114785E+02  0.16263936032E+03  0.19681111883E+03  0.91228543513E+02 0.  0.
          5    1    1    2  502    0  0.29979892249E+02  0.26053631882E+02  0.91665173689E+02  0.99987809962E+02  0.41800000000E+01 0. -1.
         -5    1    1    2    0  502 -0.89305510561E+02 -0.50565170978E+01  0.68391271610E+02  0.11267600017E+03  0.41800000000E+01 0. -1.
        -11    1    3    3    0    0  0.25935873723E+02  0.36238176870E+02  0.64685264035E+02  0.78549719235E+02  0.00000000000E+00 0. -1.
         11    1    3    3    0    0  0.33389744589E+02 -0.57235291655E+02  0.97954096282E+02  0.11826139959E+03  0.00000000000E+00 0.  1.
</event>
<event>
 7    1  0.4274778E-006  0.9760940E+02  0.7561462E-02  0.1285405E+00
         -1   -1    0    0    0  501 -0.00000000000E+00  0.00000000000E+00  0.15783418950E+02  0.15783418950E+02  0.00000000000E+00 0.  1.
          1   -1    0    0  501    0  0.00000000000E+00 -0.00000000000E+00 -0.74048858612E+03  0.74048858612E+03  0.00000000000E+00 0. -1.
         23    2    1    2    0    0  0.79758714977E+01  0.63104902300E+00 -0.31239043652E+03  0.32532505077E+03  0.90468729857E+02 0.  0.
          5    1    1    2  502    0 -0.17849436215E+02  0.49706128036E+02 -0.89104741969E+02  0.10366498434E+03  0.41800000000E+01 0.  1.
         -5    1    1    2    0  502  0.98735647168E+01 -0.50337177059E+02 -0.32320998868E+03  0.32728196996E+03  0.41800000000E+01 0.  1.
        -11    1    3    3    0    0  0.11197447096E+01  0.45434553554E+02 -0.15109625901E+03  0.15778349714E+03  0.00000000000E+00 0. -1.
         11    1    3    3    0    0  0.68561267881E+01 -0.44803504531E+02 -0.16129417751E+03  0.16754155363E+03  0.00000000000E+00 0.  1.
</event>
<event>
 7    1  0.4274778E-006  0.7402361E+02  0.7561462E-02  0.1346922E+00
         -1   -1    0    0    0  501 -0.00000000000E+00  0.00000000000E+00  0.52426386273E+03  0.52426386273E+03  0.00000000000E+00 0.  1.
          1   -1    0    0  501    0  0.00000000000E+00 -0.00000000000E+00 -0.20454373469E+02  0.20454373469E+02  0.00000000000E+00 0. -1.
         23    2    1    2    0    0 -0.19253241375E+02  0.13986373437E+02  0.19494975820E+03  0.21532213790E+03  0.88271789953E+02 0.  0.
          5    1    1    2  502    0 -0.19466276305E+02 -0.39918388539E+01  0.25579089142E+01  0.20466704391E+02  0.41800000000E+01 0. -1.
         -5    1    1    2    0  502  0.38719517680E+02 -0.99945345830E+01  0.30630182214E+03  0.30892939390E+03  0.41800000000E+01 0.  1.
        -11    1    3    3    0    0 -0.45201651315E+02  0.32487917527E+02  0.91772298717E+02  0.10733503099E+03  0.00000000000E+00 0. -1.
         11    1    3    3    0    0  0.25948409939E+02 -0.18501544090E+02  0.10317745948E+03  0.10798710690E+03  0.00000000000E+00 0.  1.
</event>
<event>
 7    1  0.4274778E-006  0.1331854E+03  0.7561462E-02  0.1222804E+00
         -1   -1    0    0    0  501 -0.00000000000E+00  0.00000000000E+00  0.77411378734E+02  0.77411378734E+02  0.00000000000E+00 0.  1.
          1   -1    0    0  501    0  0.00000000000E+00 -0.00000000000E+00 -0.33325088825E+03  0.33325088825E+03  0.00000000000E+00 0. -1.
         23    2    1    2    0    0 -0.97020243066E+02 -0.24639344608E+02 -0.19829576004E+03  0.24043476622E+03  0.92019799464E+02 0.  0.
          5    1    1    2  502    0  0.95306383556E+02 -0.17780843999E+02  0.19009371259E+01  0.97059523602E+02  0.41800000000E+01 0. -1.
         -5    1    1    2    0  502  0.17138595105E+01  0.42420188607E+02 -0.59444686608E+02  0.73167977160E+02  0.41800000000E+01 0. -1.
        -11    1    3    3    0    0 -0.13041625397E+02  0.25657112998E+02 -0.89832927917E+02  0.94330940728E+02  0.00000000000E+00 0. -1.
         11    1    3    3    0    0 -0.83978617669E+02 -0.50296457606E+02 -0.10846283212E+03  0.14610382550E+03  0.00000000000E+00 0.  1.
</event>
<event>
 7    1  0.4274778E-006  0.1797318E+03  0.7561462E-02  0.1168063E+00
         -2   -1    0    0    0  501 -0.00000000000E+00  0.00000000000E+00  0.50677465491E+02  0.50677465491E+02  0.00000000000E+00 0.  1.
          2   -1    0    0  501    0  0.00000000000E+00 -0.00000000000E+00 -0.75179359865E+03  0.75179359865E+03  0.00000000000E+00 0. -1.
         23    2    1    2    0    0  0.14142375038E+01 -0.15959420911E+03 -0.35198167743E+03  0.39808537740E+03  0.95438748967E+02 0.  0.
          5    1    1    2  502    0  0.36299680127E+02  0.75367843314E+02 -0.27017388756E+03  0.28285929453E+03  0.41800000000E+01 0. -1.
         -5    1    1    2    0  502 -0.37713917631E+02  0.84226365796E+02 -0.78960568172E+02  0.12152639221E+03  0.41800000000E+01 0.  1.
        -11    1    3    3    0    0  0.18856483946E+02  0.36045881935E+01 -0.19858767242E+02  0.27621199815E+02  0.00000000000E+00 0. -1.
         11    1    3    3    0    0 -0.17442246442E+02 -0.16319879730E+03 -0.33212291019E+03  0.37046417759E+03  0.00000000000E+00 0.  1.
</event>
<event>
 7    1  0.4274778E-006  0.1669688E+03  0.7561462E-02  0.1181046E+00
          1   -1    0    0  501    0  0.00000000000E+00  0.00000000000E+00  0.79185821058E+03  0.79185821058E+03  0.00000000000E+00 0. -1.
         -1   -1    0    0    0  501 -0.00000000000E+00 -0.00000000000E+00 -0.43591441674E+02  0.43591441674E+02  0.00000000000E+00 0.  1.
         23    2    1    2    0    0  0.13873318865E+03  0.12983613434E+02  0.48298334400E+03  0.51070807647E+03  0.90190669926E+02 0.  0.
          5    1    1    2  502    0  0.15602770825E+02  0.23556658963E+02  0.37119689385E+02  0.46837019321E+02  0.41800000000E+01 0.  1.
         -5    1    1    2    0  502 -0.15433595948E+03 -0.36540272397E+02  0.22816373553E+03  0.27790455647E+03  0.41800000000E+01 0.  1.
        -11    1    3    3    0    0  0.81463340563E+02 -0.15230107574E+02  0.38458597527E+03  0.39341403687E+03  0.00000000000E+00 0. -1.
         11    1    3    3    0    0  0.57269848089E+02  0.28213721009E+02  0.98397368732E+02  0.11729403960E+03  0.00000000000E+00 0.  1.
</event>
<event>
 7    1  0.4274778E-006  0.1034469E+03  0.7561462E-02  0.1273210E+00
          3   -1    0    0  501    0  0.00000000000E+00  0.00000000000E+00  0.61975068047E+02  0.61975068047E+02  0.00000000000E+00 0. -1.
         -3   -1    0    0    0  501 -0.00000000000E+00 -0.00000000000E+00 -0.28014838426E+03  0.28014838426E+03  0.00000000000E+00 0.  1.
         23    2    1    2    0    0 -0.51547614754E+02  0.65709852587E+01 -0.28966431678E+02  0.10942662697E+03  0.91841156846E+02 0.  0.
          5    1    1    2  502    0 -0.32754132602E+02 -0.32804850472E+02 -0.75211601973E+02  0.88449131642E+02  0.41800000000E+01 0.  1.
         -5    1    1    2    0  502  0.84301747355E+02  0.26233865213E+02 -0.11399528256E+03  0.14424769370E+03  0.41800000000E+01 0.  1.
        -11    1    3    3    0    0 -0.57827840345E+02  0.16567907495E+02 -0.54578727882E+02  0.81224332653E+02  0.00000000000E+00 0.  1.
         11    1    3    3    0    0  0.62802255911E+01 -0.99969222362E+01  0.25612296204E+02  0.28202294313E+02  0.00000000000E+00 0. -1.
</event>
<event>
 7    1  0.4274778E-006  0.1056986E+03  0.7561462E-02  0.1268749E+00
         -3   -1    0    0    0  501 -0.00000000000E+00  0.00000000000E+00  0.21829766218E+03  0.21829766218E+03  0.00000000000E+00 0.  1.
          3   -1    0    0  501    0  0.00000000000E+00 -0.00000000000E+00 -0.83532807384E+02  0.83532807384E+02  0.00000000000E+00 0. -1.
         23    2    1    2    0    0  0.27899505445E+02  0.24934808620E+02 -0.16698588267E+02  0.10184115514E+03  0.93234387140E+02 0.  0.
          5    1    1    2  502    0  0.31404032308E+02 -0.55265154221E+02  0.78771344732E+02  0.10130571389E+03  0.41800000000E+01 0.  1.
         -5    1    1    2    0  502 -0.59303537753E+02  0.30330345601E+02  0.72692098332E+02  0.98683600533E+02  0.41800000000E+01 0.  1.
        -11    1    3    3    0    0 -0.13612393374E+01  0.45289875790E+02 -0.39010074998E+02  0.59789729661E+02  0.00000000000E+00 0. -1.
         11    1    3    3    0    0  0.29260744782E+02 -0.20355067170E+02  0.22311486731E+02  0.42051425479E+02  0.00000000000E+00 0.  1.
</event>
<event>
 7    1  0.4274778E-006  0.7146222E+02  0.7561462E-02  0.1355190E+00
         -2   -1    0    0    0  501 -0.00000000000E+00  0.00000000000E+00  0.70217934989E+02  0.70217934989E+02  0.00000000000E+00 0.  1.
          2   -1    0    0  501    0  0.00000000000E+00 -0.00000000000E+00 -0.36344640989E+03  0.36344640989E+03  0.00000000000E+00 0. -1.
         23    2    1    2    0    0  0.42649863876E+02 -0.35044766229E+02 -0.10867599890E+03  0.15313127659E+03  0.92690714761E+02 0.  0.
          5    1    1    2  502    0 -0.14834463590E+02  0.13647225536E+02 -0.22550308941E+03  0.22644077329E+03  0.41800000000E+01 0. -1.
         -5    1    1    2    0  502 -0.27815400286E+02  0.21397540693E+02  0.40950613407E+02  0.54092295007E+02  0.41800000000E+01 0.  1.
        -11    1    3    3    0    0  0.40119765455E+02  0.10428826203E+02 -0.74305604130E+01  0.42113765258E+02  0.00000000000E+00 0. -1.
         11    1    3    3    0    0  0.25300984215E+01 -0.45473592432E+02 -0.10124543849E+03  0.11101751133E+03  0.00000000000E+00 0.  1.
</event>
<event>
 7    1  0.4274778E-006  0.1026972E+03  0.7561462E-02  0.1274724E+00
          3   -1    0    0  501    0  0.00000000000E+00  0.00000000000E+00  0.25279760099E+03  0.25279760099E+03  0.00000000000E+00 0. -1.
         -3   -1    0    0    0  501 -0.00000000000E+00 -0.00000000000E+00 -0.51735908549E+02  0.51735908549E+02  0.00000000000E+00 0.  1.
         23    2    1    2    0    0  0.17331696917E+02 -0.32440434880E+02  0.76535588785E+02  0.12423418811E+03  0.90684439746E+02 0.  0.
          5    1    1    2  502    0 -0.35627144878E+02  0.63070501166E+02  0.12481901000E+03  0.14437603412E+03  0.41800000000E+01 0. -1.
         -5    1    1    2    0  502  0.18295447961E+02 -0.30630066287E+02 -0.29290634914E+00  0.35923287307E+02  0.41800000000E+01 0. -1.
        -11    1    3    3    0    0 -0.31894322584E+02  0.83667750827E+01  0.34443966409E+02  0.47682675684E+02  0.00000000000E+00 0. -1.
         11    1    3    3    0    0  0.49226019501E+02 -0.40807209962E+02  0.42091622376E+02  0.76551512428E+02  0.00000000000E+00 0.  1.
</event>
<event>
 7    1  0.4274778E-006  0.1681027E+03  0.7561462E-02  0.1179841E+00
          1   -1    0    0  501    0  0.00000000000E+00  0.00000000000E+00  0.83804678465E+03  0.83804678465E+03  0.00000000000E+00 0. -1.
         -1   -1    0    0    0  501 -0.00000000000E+00 -0.00000000000E+00 -0.51165255303E+02  0.51165255303E+02  0.00000000000E+00 0.  1.
         23    2    1    2    0    0 -0.22812832772E+02 -0.14840063828E+03  0.57512316502E+03  0.60105951384E+03  0.89234015105E+02 0.  0.
          5    1    1    2  502    0  0.46100662124E+02  0.23580677271E+02  0.15228648203E+02  0.54135972466E+02  0.41800000000E+01 0.  1.
         -5    1    1    2    0  502 -0.23287829352E+02  0.12481996101E+03  0.19652971613E+03  0.23401655365E+03  0.41800000000E+01 0.  1.
        -11    1    3    3    0    0 -0.37354182609E+02 -0.10675960904E+03  0.51009387251E+03  0.52248321299E+03  0.00000000000E+00 0. -1.
         11    1    3    3    0    0  0.14541349837E+02 -0.41641029238E+02  0.65029292511E+02  0.78576300852E+02  0.00000000000E+00 0.  1.
</event>
<event>
 7    1  0.4274778E-006  0.9170121E+02  0.7561462E-02  0.1298783E+00
          2   -1    0    0  501    0  0.00000000000E+00  0.00000000000E+00  0.74246855246E+02  0.74246855246E+02  0.00000000000E+00 0. -1.
         -2   -1    0    0    0  501 -0.00000000000E+00 -0.00000000000E+00 -0.19791183981E+03  0.19791183981E+03  0.00000000000E+00 0.  1.
         23    2    1    2    0    0  0.40745373366E+02 -0.34242492474E+02 -0.70433923650E+02  0.12616657449E+03  0.90135082932E+02 0.  0.
          5    1    1    2  502    0  0.22048787409E+02  0.21663746943E+02  0.28379103946E+02  0.42170047410E+02  0.41800000000E+01 0. -1.
         -5    1    1    2    0  502 -0.62794160775E+02  0.12578745532E+02 -0.81610164859E+02  0.10382207316E+03  0.41800000000E+01 0. -1.
        -11    1    3    3    0    0 -0.13936316872E+02 -0.30129360670E+02 -0.62487077082E+02  0.70757572772E+02  0.00000000000E+00 0.  1.
         11    1    3    3    0    0  0.54681690238E+02 -0.41131318043E+01 -0.79468465675E+01  0.55409001713E+02  0.00000000000E+00 0. -1.
</event>
<event>
 7    1  0.4274778E-006  0.1491182E+03  0.7561462E-02  0.1201561E+00
         -1   -1    0    0    0  501 -0.00000000000E+00  0.00000000000E+00  0.17706021881E+03  0.17706021881E+03  0.00000000000E+00 0.  1.
          1   -1    0    0  501    0  0.00000000000E+00 -0.00000000000E+00 -0.19905220544E+03  0.19905220544E+03  0.00000000000E+00 0. -1.
         23    2    1    2    0    0 -0.11913490653E+03 -0.72147490860E+02 -0.73345383859E+02  0.18199159781E+03  0.91340078535E+02 0.  0.
          5    1    1    2  502    0  0.37756829119E+01  0.29049089579E+02  0.63748163151E+02  0.70280908445E+02  0.41800000000E+01 0. -1.
         -5    1    1    2    0  502  0.11535922362E+03  0.43098401281E+02 -0.12394765917E+02  0.12383991800E+03  0.41800000000E+01 0. -1.
        -11    1    3    3    0    0 -0.37523930330E+02 -0.46770636192E+02 -0.75604274033E+02  0.96496341948E+02  0.00000000000E+00 0. -1.
         11    1    3    3    0    0 -0.81610976201E+02 -0.25376854668E+02  0.22588901742E+01  0.85495255857E+02  0.00000000000E+00 0.  1.
</event>
<event>
 7    1  0.4274778E-006  0.3297410E+03  0.7561462E-02  0.1071252E+00
          1   -1    0    0  501    0  0.00000000000E+00  0.00000000000E+00  0.78986469188E+03  0.78986469188E+03  0.00000000000E+00 0. -1.
         -1   -1    0    0    0  501 -0.00000000000E+00 -0.00000000000E+00 -0.14432004042E+03  0.14432004042E+03  0.00000000000E+00 0.  1.
         23    2    1    2    0    0 -0.31790974210E+03  0.99473143992E+01  0.27679677151E+03  0.43140433567E+03  0.91256204876E+02 0.  0.
          5    1    1    2  502    0  0.15946718912E+03 -0.46822868080E+02  0.25434410820E+03  0.30385944638E+03  0.41800000000E+01 0. -1.
         -5    1    1    2    0  502  0.15844255299E+03  0.36875553680E+02  0.11440377175E+03  0.19892095025E+03  0.41800000000E+01 0. -1.
        -11    1    3    3    0    0 -0.20239976864E+02  0.25341169656E+02  0.21121986803E+02  0.38703615716E+02  0.00000000000E+00 0.  1.
         11    1    3    3    0    0 -0.29766976524E+03 -0.15393855257E+02  0.25567478471E+03  0.39270071995E+03  0.00000000000E+00 0. -1.
</event>
<event>
 7    1  0.4274778E-006  0.1832429E+03  0.7561462E-02  0.1164701E+00
          1   -1    0    0  501    0  0.00000000000E+00  0.00000000000E+00  0.15717677703E+03  0.15717677703E+03  0.00000000000E+00 0. -1.
         -1   -1    0    0    0  501 -0.00000000000E+00 -0.00000000000E+00 -0.25544961799E+03  0.25544961799E+03  0.00000000000E+00 0.  1.
         23    2    1    2    0    0 -0.16425203391E+03 -0.35654384712E+02 -0.38547714864E+02  0.19476300561E+03  0.90535828499E+02 0.  0.
          5    1    1    2  502    0  0.16358752669E+03  0.47390225836E+01 -0.78383212182E+02  0.18150685270E+03  0.41800000000E+01 0.  1.
         -5    1    1    2    0  502  0.66450721452E+00  0.30915362129E+02  0.18658086086E+02  0.36356536713E+02  0.41800000000E+01 0.  1.
        -11    1    3    3    0    0 -0.80320702867E+02  0.15616649115E+00  0.24354280569E+02  0.83931940756E+02  0.00000000000E+00 0.  1.
         11    1    3    3    0    0 -0.83931331040E+02 -0.35810551203E+02 -0.62901995434E+02  0.11083106486E+03  0.00000000000E+00 0. -1.
</event>
<event>
 7    1  0.4274778E-006  0.6285434E+02  0.7561462E-02  0.1386229E+00
         -2   -1    0    0    0  501 -0.00000000000E+00  0.00000000000E+00  0.34805732725E+03  0.34805732725E+03  0.00000000000E+00 0. -1.
          2   -1    0    0  501    0  0.00000000000E+00 -0.00000000000E+00 -0.37065130693E+02  0.37065130693E+02  0.00000000000E+00 0.  1.
         23    2    1    2    0    0 -0.58459532492E+01  0.84267937586E+01  0.77451233293E+02  0.11999131234E+03  0.91071595333E+02 0.  0.
          5    1    1    2  502    0  0.18760343856E+02 -0.68148141381E+01  0.24587528810E+03  0.24671952069E+03  0.41800000000E+01 0.  1.
         -5    1    1    2    0  502 -0.12914390607E+02 -0.16119796205E+01 -0.12334324828E+02  0.18411624915E+02  0.41800000000E+01 0.  1.
        -11    1    3    3    0    0  0.16604974345E+02 -0.37231772845E+02  0.34212610094E+02  0.53220604766E+02  0.00000000000E+00 0.  1.
         11    1    3    3    0    0 -0.22450927594E+02  0.45658566603E+02  0.43238623199E+02  0.66770707577E+02  0.00000000000E+00 0. -1.
</event>
<event>
 7    1  0.4274778E-006  0.1151449E+03  0.7561462E-02  0.1251328E+00
          2   -1    0    0  501    0  0.00000000000E+00  0.00000000000E+00  0.30282190754E+03  0.30282190754E+03  0.00000000000E+00 0. -1.
         -2   -1    0    0    0  501 -0.00000000000E+00 -0.00000000000E+00 -0.59539639785E+02  0.59539639785E+02  0.00000000000E+00 0.  1.
         23    2    1    2    0    0  0.53596812693E+02  0.47385751104E+02  0.16393321340E+03  0.19785704341E+03  0.84588908438E+02 0.  0.
          5    1    1    2  502    0 -0.67848838539E+02 -0.67870978753E+02  0.17447310266E+02  0.97631018040E+02  0.41800000000E+01 0.  1.
         -5    1    1    2    0  502  0.14252025845E+02  0.20485227649E+02  0.61901744089E+02  0.66873485881E+02  0.41800000000E+01 0.  1.
        -11    1    3    3    0    0  0.73553873601E+02  0.22276382705E+02  0.98041377050E+02  0.12457335655E+03  0.00000000000E+00 0. -1.
         11    1    3    3    0    0 -0.19957060908E+02  0.25109368399E+02  0.65891836355E+02  0.73283686860E+02  0.00000000000E+00 0.  1.
</event>
<event>
 7    1  0.4274778E-006  0.1255547E+03  0.7561462E-02  0.1234205E+00
         -1   -1    0    0    0  501 -0.00000000000E+00  0.00000000000E+00  0.66119124895E+02  0.66119124895E+02  0.00000000000E+00 0.  1.
          1   -1    0    0  501    0  0.00000000000E+00 -0.00000000000E+00 -0.28885430533E+03  0.28885430533E+03  0.00000000000E+00 0. -1.
         23    2    1    2    0    0 -0.60474059324E+02 -0.60123936087E+02 -0.10184547730E+03  0.16123625437E+03  0.91392718176E+02 0.  0.
          5    1    1    2  502    0  0.71461383314E+02 -0.58466995629E+01 -0.10082010811E+03  0.12378642817E+03  0.41800000000E+01 0. -1.
         -5    1    1    2    0  502 -0.10987323990E+02  0.65970635650E+02 -0.20069595028E+02  0.69950747680E+02  0.41800000000E+01 0. -1.
        -11    1    3    3    0    0 -0.27980128562E+02  0.14041914564E+02 -0.23234267622E+00  0.31306819419E+02  0.00000000000E+00 0.  1.
         11    1    3    3    0    0 -0.32493930762E+02 -0.74165850651E+02 -0.10161313462E+03  0.12992943495E+03  0.00000000000E+00 0. -1.
</event>
<event>
 7    1  0.4274778E-006  0.9998667E+02  0.7561462E-02  0.1280324E+00
          1   -1    0    0  501    0  0.00000000000E+00  0.00000000000E+00  0.21607650123E+03  0.21607650123E+03  0.00000000000E+00 0. -1.
         -1   -1    0    0    0  501 -0.00000000000E+00 -0.00000000000E+00 -0.63790930541E+02  0.63790930541E+02  0.00000000000E+00 0.  1.
         23    2    1    2    0    0  0.14216159766E+02 -0.35083513256E+02  0.92655953804E+02  0.13621221505E+03  0.92388796136E+02 0.  0.
          5    1    1    2  502    0 -0.42191199553E+02  0.57242983863E+02 -0.31675017548E+01  0.71304712247E+02  0.41800000000E+01 0.  1.
         -5    1    1    2    0  502  0.27975039787E+02 -0.22159470607E+02  0.62797118637E+02  0.72350504475E+02  0.41800000000E+01 0.  1.
        -11    1    3    3    0    0  0.33305590319E+02  0.16958328848E+02  0.63239515556E+02  0.73458039666E+02  0.00000000000E+00 0. -1.
         11    1    3    3    0    0 -0.19089430553E+02 -0.52041842104E+02  0.29416438248E+02  0.62754175380E+02  0.00000000000E+00 0.  1.
</event>
<event>
 7    1  0.4274778E-006  0.8005579E+02  0.7561462E-02  0.1328893E+00
         -1   -1    0    0    0  501 -0.00000000000E+00  0.00000000000E+00  0.10546289476E+03  0.10546289476E+03  0.00000000000E+00 0.  1.
          1   -1    0    0  501    0  0.00000000000E+00 -0.00000000000E+00 -0.15938881293E+03  0.15938881293E+03  0.00000000000E+00 0. -1.
         23    2    1    2    0    0 -0.56260201113E+02 -0.24556224687E+02 -0.60246308756E+02  0.12536655326E+03  0.91208204447E+02 0.  0.
          5    1    1    2  502    0  0.64392429555E+02  0.36716879714E+02 -0.44417387937E+02  0.86515264497E+02  0.41800000000E+01 0.  1.
         -5    1    1    2    0  502 -0.81322284425E+01 -0.12160655027E+02  0.50737778522E+02  0.52969889932E+02  0.41800000000E+01 0.  1.
        -11    1    3    3    0    0 -0.34757996167E+02 -0.32641416144E+02  0.12322478460E+02  0.49248592069E+02  0.00000000000E+00 0. -1.
         11    1    3    3    0    0 -0.21502204946E+02  0.80851914572E+01 -0.72568787216E+02  0.76117961194E+02  0.00000000000E+00 0.  1.
</event>
<event>
 7    1  0.4274778E-006  0.1008793E+03  0.7561462E-02  0.1278458E+00
         -1   -1    0    0    0  501 -0.00000000000E+00  0.00000000000E+00  0.16547960662E+03  0.16547960662E+03  0.00000000000E+00 0.  1.
          1   -1    0    0  501    0  0.00000000000E+00 -0.00000000000E+00 -0.11275004244E+03  0.11275004244E+03  0.00000000000E+00 0. -1.
         23    2    1    2    0    0 -0.21277493696E+02  0.72239793889E+02 -0.98356033450E+01  0.11936542245E+03  0.92087162106E+02 0.  0.
          5    1    1    2  502    0 -0.10115206150E+02 -0.11481346840E+02 -0.35702806749E+02  0.39067909216E+02  0.41800000000E+01 0. -1.
         -5    1    1    2    0  502  0.31392699846E+02 -0.60758447049E+02  0.98267974275E+02  0.11979631739E+03  0.41800000000E+01 0. -1.
        -11    1    3    3    0    0  0.35099713361E+02  0.19366505642E+02 -0.12608804293E+02  0.42024199749E+02  0.00000000000E+00 0. -1.
         11    1    3    3    0    0 -0.56377207058E+02  0.52873288247E+02  0.27732009479E+01  0.77341222703E+02  0.00000000000E+00 0.  1.
</event>
<event>
 7    1  0.4274778E-006  0.1079426E+03  0.7561462E-02  0.1264428E+00
         -2   -1    0    0    0  501 -0.00000000000E+00  0.00000000000E+00  0.48313028622E+02  0.48313028622E+02  0.00000000000E+00 0.  1.
          2   -1    0    0  501    0  0.00000000000E+00 -0.00000000000E+00 -0.36048675252E+03  0.36048675252E+03  0.00000000000E+00 0. -1.
         23    2    1    2    0    0 -0.28545986710E+01  0.82559320944E+02 -0.13150167008E+03  0.17403591581E+03  0.78559662361E+02 0.  0.
          5    1    1    2  502    0 -0.46312552099E+02 -0.54210158157E+02 -0.37438820261E+02  0.80639515077E+02  0.41800000000E+01 0.  1.
         -5    1    1    2    0  502  0.49167150770E+02 -0.28349162787E+02 -0.14323323356E+03  0.15412435025E+03  0.41800000000E+01 0.  1.
        -11    1    3    3    0    0 -0.11297729755E+02  0.11958418305E+02  0.73645289943E+01  0.18024393284E+02  0.00000000000E+00 0.  1.
         11    1    3    3    0    0  0.84431310835E+01  0.70600902639E+02 -0.13886619908E+03  0.15601152253E+03  0.00000000000E+00 0. -1.
</event>
<event>
 7    1  0.4274778E-006  0.1195605E+03  0.7561462E-02  0.1243824E+00
          2   -1    0    0  501    0  0.00000000000E+00  0.00000000000E+00  0.13311983583E+03  0.13311983583E+03  0.00000000000E+00 0. -1.
         -2   -1    0    0    0  501 -0.00000000000E+00 -0.00000000000E+00 -0.20620503915E+03  0.20620503915E+03  0.00000000000E+00 0.  1.
         23    2    1    2    0    0  0.83686394482E+02  0.43734208890E+01  0.60043100028E+02  0.13834389727E+03  0.92256818819E+02 0.  0.
          5    1    1    2  502    0 -0.40376955343E+02 -0.48280869313E+02 -0.10902465285E+02  0.64013100329E+02  0.41800000000E+01 0.  1.
         -5    1    1    2    0  502 -0.43309439139E+02  0.43907448424E+02 -0.12222583806E+03  0.13696787738E+03  0.41800000000E+01 0.  1.
        -11    1    3    3    0    0 -0.16321985762E+01 -0.24198085822E+02 -0.79981454287E+01  0.25537849556E+02  0.00000000000E+00 0. -1.
         11    1    3    3    0    0  0.85318593058E+02  0.28571506711E+02  0.68041245457E+02  0.11280604771E+03  0.00000000000E+00 0.  1.
</event>
<event>
 7    1  0.4274778E-006  0.9117257E+02  0.7561462E-02  0.1300037E+00
         -1   -1    0    0    0  501 -0.00000000000E+00  0.00000000000E+00  0.35580673257E+02  0.35580673257E+02  0.00000000000E+00 0.  1.
          1   -1    0    0  501    0  0.00000000000E+00 -0.00000000000E+00 -0.32851224097E+03  0.32851224097E+03  0.00000000000E+00 0. -1.
         23    2    1    2    0    0 -0.27770005190E+02  0.26143235139E+02 -0.14764383915E+03  0.17644463420E+03  0.88765780375E+02 0.  0.
          5    1    1    2  502    0 -0.10083886888E+02  0.21873971366E+02 -0.11809700517E+03  0.12060070659E+03  0.41800000000E+01 0. -1.
         -5    1    1    2    0  502  0.37853892078E+02 -0.48017206505E+02 -0.27190723385E+02  0.67047573440E+02  0.41800000000E+01 0.  1.
        -11    1    3    3    0    0 -0.50107211108E+02 -0.12801148611E+02 -0.79315090914E+02  0.94686248513E+02  0.00000000000E+00 0. -1.
         11    1    3    3    0    0  0.22337205918E+02  0.38944383750E+02 -0.68328748237E+02  0.81758385683E+02  0.00000000000E+00 0.  1.
</event>
<event>
 7    1  0.4274778E-006  0.6501419E+02  0.7561462E-02  0.1377918E+00
         -1   -1    0    0    0  501 -0.00000000000E+00  0.00000000000E+00  0.52937542100E+02  0.52937542100E+02  0.00000000000E+00 0.  1.
          1   -1    0    0  501    0  0.00000000000E+00 -0.00000000000E+00 -0.28149497636E+03  0.28149497636E+03  0.00000000000E+00 0. -1.
         23    2    1    2    0    0 -0.10360633315E+02  0.36242296877E+02 -0.15396382136E+03  0.18398959648E+03  0.93415558220E+02 0.  0.
          5    1    1    2  502    0  0.23826927945E+02  0.77838427206E+01 -0.96138218070E+02  0.99440133128E+02  0.41800000000E+01 0. -1.
         -5    1    1    2    0  502 -0.13466294630E+02 -0.44026139598E+02  0.21544605173E+02  0.51002788855E+02  0.41800000000E+01 0. -1.
        -11    1    3    3    0    0 -0.77169695212E+01 -0.96852058975E+01  0.85771211337E+01  0.15063925080E+02  0.00000000000E+00 0.  1.
         11    1    3    3    0    0 -0.26436637938E+01  0.45927502774E+02 -0.16254094250E+03  0.16892567140E+03  0.00000000000E+00 0. -1.
</event>
<event>
 7    1  0.4274778E-006  0.1018782E+03  0.7561462E-02  0.1276395E+00
          3   -1    0    0  501    0  0.00000000000E+00  0.00000000000E+00  0.35821658460E+02  0.35821658460E+02  0.00000000000E+00 0. -1.
         -3   -1    0    0    0  501 -0.00000000000E+00 -0.00000000000E+00 -0.59738171171E+03  0.59738171171E+03  0.00000000000E+00 0.  1.
         23    2    1    2    0    0 -0.29008948884E+02  0.50729101905E+02 -0.93070211281E+02  0.14479291926E+03  0.94276000897E+02 0.  0.
          5    1    1    2  502    0  0.51520973459E+02  0.25209445408E+02 -0.16533592141E+03  0.17505246686E+03  0.41800000000E+01 0.  1.
         -5    1    1    2    0  502 -0.22512024575E+02 -0.75938547313E+02 -0.30315392056E+03  0.31335798405E+03  0.41800000000E+01 0.  1.
        -11    1    3    3    0    0 -0.57015669292E+01  0.41456734234E+02 -0.10784612729E+03  0.11568040392E+03  0.00000000000E+00 0.  1.
         11    1    3    3    0    0 -0.23307381955E+02  0.92723676719E+01  0.14775916010E+02  0.29112515346E+02  0.00000000000E+00 0. -1.
</event>
<event>
 7    1  0.4274778E-006  0.1372527E+03  0.7561462E-02  0.1217074E+00
         -2   -1    0    0    0  501 -0.00000000000E+00  0.00000000000E+00  0.35080393998E+03  0.35080393998E+03  0.00000000000E+00 0.  1.
          2   -1    0    0  501    0  0.00000000000E+00 -0.00000000000E+00 -0.65109723277E+02  0.65109723277E+02  0.00000000000E+00 0. -1.
         23    2    1    2    0    0 -0.51720423548E+02  0.88543313202E+02  0.10463505055E+03  0.17312595563E+03  0.92245228507E+02 0.  0.
          5    1    1    2  502    0  0.56953851657E+01  0.27120329882E+02  0.72335646161E+01  0.28943851889E+02  0.41800000000E+01 0.  1.
         -5    1    1    2    0  502  0.46025038382E+02 -0.11566364308E+03  0.17382560153E+03  0.21384385574E+03  0.41800000000E+01 0.  1.
        -11    1    3    3    0    0 -0.52668644224E+02  0.24870299697E+02  0.90934256596E+02  0.10798868882E+03  0.00000000000E+00 0.  1.
         11    1    3    3    0    0  0.94822067589E+00  0.63673013506E+02  0.13700793958E+02  0.65137266802E+02  0.00000000000E+00 0. -1.
</event>
<event>
 7    1  0.4274778E-006  0.8492341E+02  0.7561462E-02  0.1315633E+00
          3   -1    0    0  501    0  0.00000000000E+00  0.00000000000E+00  0.47177855855E+02  0.47177855855E+02  0.00000000000E+00 0. -1.
         -3   -1    0    0    0  501 -0.00000000000E+00 -0.00000000000E+00 -0.41287600468E+03  0.41287600468E+03  0.00000000000E+00 0.  1.
         23    2    1    2    0    0  0.33649386503E+02  0.12894968132E+02 -0.36793746498E+02  0.10632436125E+03  0.93018969024E+02 0.  0.
          5    1    1    2  502    0 -0.72040784317E+02 -0.13403789479E+02 -0.11542266025E+03  0.13678230542E+03  0.41800000000E+01 0. -1.
         -5    1    1    2    0  502  0.38391397814E+02  0.50882134745E+00 -0.21348174208E+03  0.21694719387E+03  0.41800000000E+01 0. -1.
        -11    1    3    3    0    0  0.31166190927E+02 -0.11565365681E+02 -0.62476762109E+02  0.70770297045E+02  0.00000000000E+00 0.  1.
         11    1    3    3    0    0  0.24831955759E+01  0.24460333813E+02  0.25683015611E+02  0.35554064203E+02  0.00000000000E+00 0. -1.
</event>
<event>
 7    1  0.4274778E-006  0.1868624E+03  0.7561462E-02  0.1161322E+00
          1   -1    0    0  501    0  0.00000000000E+00  0.00000000000E+00  0.49364516075E+02  0.49364516075E+02  0.00000000000E+00 0. -1.
         -1   -1    0    0    0  501 -0.00000000000E+00 -0.00000000000E+00 -0.84667992398E+03  0.84667992398E+03  0.00000000000E+00 0.  1.
         23    2    1    2    0    0  0.84762473801E+02 -0.14088339734E+03 -0.50470940306E+03  0.53785257799E+03  0.86723730933E+02 0.  0.
          5    1    1    2  502    0 -0.20267586342E+02  0.13709085837E+03 -0.16843927332E+03  0.21816035319E+03  0.41800000000E+01 0. -1.
         -5    1    1    2    0  502 -0.64494887459E+02  0.37925389642E+01 -0.12416673152E+03  0.14003150887E+03  0.41800000000E+01 0. -1.
        -11    1    3    3    0    0  0.24017707847E+02 -0.99420400374E+01 -0.22099548092E+02  0.34118682217E+02  0.00000000000E+00 0.  1.
         11    1    3    3    0    0  0.60744765953E+02 -0.13094135730E+03 -0.48260985497E+03  0.50373389577E+03  0.00000000000E+00 0. -1.
</event>
<event>
 7    1  0.4274778E-006  0.1390222E+03  0.7561462E-02  0.1214651E+00
         -2   -1    0    0    0  501 -0.00000000000E+00  0.00000000000E+00  0.18362483195E+03  0.18362483195E+03  0.00000000000E+00 0.  1.
          2   -1    0    0  501    0  0.00000000000E+00 -0.00000000000E+00 -0.14631293230E+03  0.14631293230E+03  0.00000000000E+00 0. -1.
         23    2    1    2    0    0 -0.66587774165E+02  0.10265365344E+03  0.13747304869E+02  0.15337348769E+03  0.91447985761E+02 0.  0.
          5    1    1    2  502    0  0.57748701535E+02 -0.62373207315E+02  0.72948383570E+02  0.11209044823E+03  0.41800000000E+01 0. -1.
         -5    1    1    2    0  502  0.88390726293E+01 -0.40280446129E+02 -0.49383788783E+02  0.64473828333E+02  0.41800000000E+01 0. -1.
        -11    1    3    3    0    0 -0.70457615514E+01 -0.16690547715E+02  0.81981748998E+01  0.19885351658E+02  0.00000000000E+00 0.  1.
         11    1    3    3    0    0 -0.59542012613E+02  0.11934420116E+03  0.55491299693E+01  0.13348813603E+03  0.00000000000E+00 0. -1.
</event>
<event>
 7    1  0.4274778E-006  0.1046459E+03  0.7561462E-02  0.1270819E+00
          1   -1    0    0  501    0  0.00000000000E+00  0.00000000000E+00  0.12749150462E+03  0.12749150462E+03  0.00000000000E+00 0. -1.
         -1   -1    0    0    0  501 -0.00000000000E+00 -0.00000000000E+00 -0.10834580625E+03  0.10834580625E+03  0.00000000000E+00 0.  1.
         23    2    1    2    0    0 -0.17544828335E+02 -0.28263897539E+02  0.42410279322E+02  0.10432807167E+03  0.89325504980E+02 0.  0.
          5    1    1    2  502    0  0.24514796150E+02  0.70911568403E+02 -0.39820434662E+02  0.85044489418E+02  0.41800000000E+01 0. -1.
         -5    1    1    2    0  502 -0.69699678155E+01 -0.42647670864E+02  0.16555853711E+02  0.46464749796E+02  0.41800000000E+01 0. -1.
        -11    1    3    3    0    0 -0.11558675836E+02  0.30005419779E+02  0.30973080730E+02  0.44645939716E+02  0.00000000000E+00 0. -1.
         11    1    3    3    0    0 -0.59861524984E+01 -0.58269317318E+02  0.11437198592E+02  0.59682131950E+02  0.00000000000E+00 0.  1.
</event>
<event>
 7    1  0.4274778E-006  0.7783809E+02  0.7561462E-02  0.1335301E+00
         -2   -1    0    0    0  501 -0.00000000000E+00  0.00000000000E+00  0.49951510252E+03  0.49951510252E+03  0.00000000000E+00 0.  1.
          2   -1    0    0  501    0  0.00000000000E+00 -0.00000000000E+00 -0.26399850415E+02  0.26399850415E+02  0.00000000000E+00 0. -1.
         23    2    1    2    0    0  0.19744341291E+02 -0.32747100170E+02  0.20548566755E+03  0.22803035976E+03  0.91166187928E+02 0.  0.
          5    1    1    2  502    0 -0.29765907591E+02  0.93745388067E+01  0.27016034562E+03  0.27198892621E+03  0.41800000000E+01 0.  1.
         -5    1    1    2    0  502  0.10021566300E+02  0.23372561363E+02 -0.25307610745E+01  0.25895666962E+02  0.41800000000E+01 0.  1.
        -11    1    3    3    0    0  0.23881947335E+02 -0.63264433416E+02  0.15084168996E+03  0.16530563019E+03  0.00000000000E+00 0. -1.
         11    1    3    3    0    0 -0.41376060444E+01  0.30517333246E+02  0.54643977595E+02  0.62724729570E+02  0.00000000000E+00 0.  1.
</event>
<event>
 7    1  0.4274778E-006  0.8632359E+02  0.7561462E-02  0.1312007E+00
         -1   -1    0    0    0  501 -0.00000000000E+00  0.00000000000E+00  0.68162858838E+02  0.68162858838E+02  0.00000000000E+00 0.  1.
          1   -1    0    0  501    0  0.00000000000E+00 -0.00000000000E+00 -0.20831769965E+03  0.20831769965E+03  0.00000000000E+00 0. -1.
         23    2    1    2    0    0 -0.21723110269E+02  0.13823380596E+02 -0.10964041956E+03  0.14517495660E+03  0.91606588476E+02 0.  0.
          5    1    1    2  502    0 -0.17694739726E+02  0.49578620090E+02 -0.15553539934E+02  0.55050235136E+02  0.41800000000E+01 0.  1.
         -5    1    1    2    0  502  0.39417849994E+02 -0.63402000686E+02 -0.14960881325E+02  0.76255366757E+02  0.41800000000E+01 0.  1.
        -11    1    3    3    0    0 -0.12081618964E+02 -0.12287631976E+02  0.11604983049E+02  0.20775635921E+02  0.00000000000E+00 0.  1.
         11    1    3    3    0    0 -0.96414913048E+01  0.26111012571E+02 -0.12124540261E+03  0.12439932068E+03  0.00000000000E+00 0. -1.
</event>
<event>
 7    1  0.4274778E-006  0.9604274E+02  0.7561462E-02  0.1288845E+00
         -2   -1    0    0    0  501 -0.00000000000E+00  0.00000000000E+00  0.53087162196E+03  0.53087162196E+03  0.00000000000E+00 0. -1.
          2   -1    0    0  501    0  0.00000000000E+00 -0.00000000000E+00 -0.32121656052E+02  0.32121656052E+02  0.00000000000E+00 0.  1.
         23    2    1    2    0    0  0.65824788317E+02 -0.14275073295E+02  0.27833291647E+03  0.30075678694E+03  0.91917093210E+02 0.  0.
          5    1    1    2  502    0  0.29792458756E+01  0.10722072705E+02 -0.13710751431E+02  0.18146510791E+02  0.41800000000E+01 0. -1.
         -5    1    1    2    0  502 -0.68804034192E+02  0.35530005906E+01  0.23412780087E+03  0.24408998028E+03  0.41800000000E+01 0. -1.
        -11    1    3    3    0    0 -0.17731677789E+02  0.14393067259E+02  0.88130106284E+02  0.91041135845E+02  0.00000000000E+00 0. -1.
         11    1    3    3    0    0  0.83556466105E+02 -0.28668140554E+02  0.19020281019E+03  0.20971565109E+03  0.00000000000E+00 0.  1.
</event>
<event>
 7    1  0.4274778E-006  0.1326552E+03  0.7561462E-02  0.1223568E+00
         -1   -1    0    0    0  501 -0.00000000000E+00  0.00000000000E+00  0.25822622176E+02  0.25822622176E+02  0.00000000000E+00 0.  1.
          1   -1    0    0  501    0  0.00000000000E+00 -0.00000000000E+00 -0.94472503194E+03  0.94472503194E+03  0.00000000000E+00 0. -1.
         23    2    1    2    0    0  0.50848018904E+02 -0.93095030267E+02 -0.54249087235E+03  0.55995636209E+03  0.89457113566E+02 0.  0.
          5    1    1    2  502    0  0.27550156271E+02  0.35160889063E+02 -0.39297374308E+02  0.59641053459E+02  0.41800000000E+01 0. -1.
         -5    1    1    2    0  502 -0.78398175174E+02  0.57934141204E+02 -0.33711416310E+03  0.35095023857E+03  0.41800000000E+01 0. -1.
        -11    1    3    3    0    0  0.23871426173E+02 -0.92879371566E+02 -0.50344613045E+03  0.51249822333E+03  0.00000000000E+00 0. -1.
         11    1    3    3    0    0  0.26976592731E+02 -0.21565870077E+00 -0.39044741904E+02  0.47458138758E+02  0.00000000000E+00 0.  1.
</event>
<event>
 7    1  0.4274778E-006  0.7052354E+02  0.7561462E-02  0.1358322E+00
         -3   -1    0    0    0  501 -0.00000000000E+00  0.00000000000E+00  0.18476718554E+03  0.18476718554E+03  0.00000000000E+00 0.  1.
          3   -1    0    0  501    0  0.00000000000E+00 -0.00000000000E+00 -0.86863364574E+02  0.86863364574E+02  0.00000000000E+00 0. -1.
         23    2    1    2    0    0 -0.12474582147E+02 -0.29099780800E+02 -0.12649270709E+02  0.10171412425E+03  0.95829779188E+02 0.  0.
          5    1    1    2  502    0  0.24340310902E+02 -0.35675328115E+02  0.26927496273E+01  0.43473015441E+02  0.41800000000E+01 0. -1.
         -5    1    1    2    0  502 -0.11865728755E+02  0.64775108915E+02  0.10786034205E+03  0.12644341043E+03  0.41800000000E+01 0. -1.
        -11    1    3    3    0    0 -0.45176750398E+01 -0.95322180811E+01  0.41905426085E+02  0.43212698419E+02  0.00000000000E+00 0.  1.
         11    1    3    3    0    0 -0.79569071074E+01 -0.19567562719E+02 -0.54554696794E+02  0.58501425827E+02  0.00000000000E+00 0. -1.
</event>
<event>
 7    1  0.4274778E-006  0.1388253E+03  0.7561462E-02  0.1214918E+00
         -3   -1    0    0    0  501 -0.00000000000E+00  0.00000000000E+00  0.29041969847E+03  0.29041969847E+03  0.00000000000E+00 0.  1.
          3   -1    0    0  501    0  0.00000000000E+00 -0.00000000000E+00 -0.10321305220E+03  0.10321305220E+03  0.00000000000E+00 0. -1.
         23    2    1    2    0    0  0.30794887254E+02  0.12566248079E+03  0.47337436932E+02  0.16570661911E+03  0.92078588837E+02 0.  0.
          5    1    1    2  502    0 -0.16177046059E+02  0.33260577573E+01 -0.17134972677E+02  0.24162764081E+02  0.41800000000E+01 0. -1.
         -5    1    1    2    0  502 -0.14617841196E+02 -0.12898853855E+03  0.15700418201E+03  0.20376336748E+03  0.41800000000E+01 0. -1.
        -11    1    3    3    0    0 -0.25988455359E+01  0.11286262419E+02  0.45069319298E+02  0.46533614297E+02  0.00000000000E+00 0.  1.
         11    1    3    3    0    0  0.33393732790E+02  0.11437621837E+03  0.22681176341E+01  0.11917300481E+03  0.00000000000E+00 0. -1.
</event>
<event>
 7    1  0.4274778E-006  0.1072883E+03  0.7561462E-02  0.1265676E+00
         -1   -1    0    0    0  501 -0.00000000000E+00  0.00000000000E+00  0.37574330744E+03  0.37574330744E+03  0.00000000000E+00 0.  1.
          1   -1    0    0  501    0  0.00000000000E+00 -0.00000000000E+00 -0.38977175056E+02  0.38977175056E+02  0.00000000000E+00 0. -1.
         23    2    1    2    0    0 -0.27931402126E+02 -0.23663803081E+02  0.12760266978E+03  0.16827135965E+03  0.10340536903E+03 0.  0.
          5    1    1    2  502    0  0.39942678219E+02 -0.31031405223E+02  0.17145408633E+03  0.17880811440E+03  0.41800000000E+01 0. -1.
         -5    1    1    2    0  502 -0.12011276092E+02  0.54695208304E+02  0.37709376269E+02  0.67641008444E+02  0.41800000000E+01 0. -1.
        -11    1    3    3    0    0 -0.66164254222E+02 -0.20678109600E+02  0.96918306503E+02  0.11915725277E+03  0.00000000000E+00 0.  1.
         11    1    3    3    0    0  0.38232852096E+02 -0.29856934807E+01  0.30684363277E+02  0.49114106880E+02  0.00000000000E+00 0. -1.
</event>
<event>
 7    1  0.4274778E-006  0.1995578E+03  0.7561462E-02  0.1150113E+00
          1   -1    0    0  501    0  0.00000000000E+00  0.00000000000E+00  0.35982918634E+03  0.35982918634E+03  0.00000000000E+00 0. -1.
         -1   -1    0    0    0  501 -0.00000000000E+00 -0.00000000000E+00 -0.13508582307E+03  0.13508582307E+03  0.00000000000E+00 0.  1.
         23    2    1    2    0    0  0.45952301286E+02  0.18095859032E+03  0.17549800780E+03  0.27261661794E+03  0.93073327178E+02 0.  0.
          5    1    1    2  502    0  0.50894676121E+01 -0.11934407444E+03  0.71329179940E+02  0.13919136142E+03  0.41800000000E+01 0. -1.
         -5    1    1    2    0  502 -0.51041768898E+02 -0.61614515881E+02 -0.22083824476E+02  0.83107030046E+02  0.41800000000E+01 0.  1.
        -11    1    3    3    0    0 -0.37371890231E+01  0.12329440887E+03  0.67866884963E+02  0.14078846513E+03  0.00000000000E+00 0.  1.
         11    1    3    3    0    0  0.49689490309E+02  0.57664181451E+02  0.10763112284E+03  0.13182815281E+03  0.00000000000E+00 0. -1.
</event>
<event>
 7    1  0.4753084E-006  0.3294127E+03  0.7561462E-02  0.1071397E+00
         -2   -1    0    0    0  501 -0.00000000000E+00  0.00000000000E+00  0.11219415112E+03  0.11219415112E+03  0.00000000000E+00 0. -1.
          2   -1    0    0  501    0  0.00000000000E+00 -0.00000000000E+00 -0.10635081215E+04  0.10635081215E+04  0.00000000000E+00 0.  1.
         23    2    1    2    0    0 -0.11724531024E+03 -0.30426953873E+03 -0.53267233712E+03  0.63050974278E+03  0.86465611881E+02 0.  0.
          5    1    1    2  502    0  0.25798230092E+02  0.11289891723E+03 -0.65179738099E+02  0.13295707896E+03  0.41800000000E+01 0.  1.
         -5    1    1    2    0  502  0.91447080152E+02  0.19137062150E+03 -0.35346189520E+03  0.41223545092E+03  0.41800000000E+01 0.  1.
        -11    1    3    3    0    0 -0.80908263742E+02 -0.26598870087E+03 -0.48671718839E+03  0.56052632195E+03  0.00000000000E+00 0.  1.
         11    1    3    3    0    0 -0.36337046502E+02 -0.38280837862E+02 -0.45955148733E+02  0.69983420829E+02  0.00000000000E+00 0. -1.
</event>
<event>
 7    1  0.4274778E-006  0.5125774E+02  0.7561462E-02  0.1438673E+00
         -1   -1    0    0    0  501 -0.00000000000E+00  0.00000000000E+00  0.31185002813E+03  0.31185002813E+03  0.00000000000E+00 0.  1.
          1   -1    0    0  501    0  0.00000000000E+00 -0.00000000000E+00 -0.43220945858E+02  0.43220945858E+02  0.00000000000E+00 0. -1.
         23    2    1    2    0    0  0.37958953737E+02  0.90942623872E+01  0.94784042132E+02  0.13737138339E+03  0.91451050051E+02 0.  0.
          5    1    1    2  502    0 -0.29784578048E+02  0.12897781362E+02  0.18743168347E+03  0.19026713385E+03  0.41800000000E+01 0.  1.
         -5    1    1    2    0  502 -0.81743756896E+01 -0.21992043750E+02 -0.13586643330E+02  0.27432456747E+02  0.41800000000E+01 0.  1.
        -11    1    3    3    0    0  0.18519124131E+02 -0.79038969183E+01 -0.14669836599E+02  0.24912519963E+02  0.00000000000E+00 0. -1.
         11    1    3    3    0    0  0.19439829606E+02  0.16998159305E+02  0.10945387873E+03  0.11245886343E+03  0.00000000000E+00 0.  1.
</event>
<event>
 7    1  0.4274778E-006  0.1091052E+03  0.7561462E-02  0.1262236E+00
          2   -1    0    0  501    0  0.00000000000E+00  0.00000000000E+00  0.26488827797E+03  0.26488827797E+03  0.00000000000E+00 0. -1.
         -2   -1    0    0    0  501 -0.00000000000E+00 -0.00000000000E+00 -0.68150758780E+02  0.68150758780E+02  0.00000000000E+00 0.  1.
         23    2    1    2    0    0  0.13521054304E+01 -0.32241115210E+02  0.17421468694E+03  0.20190586793E+03  0.96818927183E+02 0.  0.
          5    1    1    2  502    0  0.58556109003E+02 -0.43318180289E+01  0.10885057386E+02  0.59862671368E+02  0.41800000000E+01 0. -1.
         -5    1    1    2    0  502 -0.59908214434E+02  0.36572933239E+02  0.11637774860E+02  0.71270497445E+02  0.41800000000E+01 0. -1.
        -11    1    3    3    0    0  0.42110631569E+02 -0.13991512957E+02  0.37549725026E+02  0.58129592942E+02  0.00000000000E+00 0.  1.
         11    1    3    3    0    0 -0.40758526139E+02 -0.18249602253E+02  0.13666496191E+03  0.14377627499E+03  0.00000000000E+00 0. -1.
</event>
<event>
 7    1  0.4274778E-006  0.1057382E+03  0.7561462E-02  0.1268672E+00
         -2   -1    0    0    0  501 -0.00000000000E+00  0.00000000000E+00  0.15877125428E+03  0.15877125428E+03  0.00000000000E+00 0.  1.
          2   -1    0    0  501    0  0.00000000000E+00 -0.00000000000E+00 -0.10802194838E+03  0.10802194838E+03  0.00000000000E+00 0. -1.
         23    2    1    2    0    0  0.61079050877E+02 -0.11772266442E+00 -0.35901775914E+02  0.11260737244E+03  0.87526101818E+02 0.  0.
          5    1    1    2  502    0  0.29845208805E+02  0.15510927016E+02  0.33546552387E+02  0.47688247216E+02  0.41800000000E+01 0. -1.
         -5    1    1    2    0  502 -0.90924259682E+02 -0.15393204351E+02  0.53104529431E+02  0.10649758300E+03  0.41800000000E+01 0.  1.
        -11    1    3    3    0    0  0.58361625097E+02  0.22456176152E+02 -0.54719209389E+02  0.83093627960E+02  0.00000000000E+00 0. -1.
         11    1    3    3    0    0  0.27174257801E+01 -0.22573898817E+02  0.18817433475E+02  0.29513744480E+02  0.00000000000E+00 0.  1.
</event>
<event>
 7    1  0.4274778E-006  0.1237053E+03  0.7561462E-02  0.1237107E+00
         -2   -1    0    0    0  501 -0.00000000000E+00  0.00000000000E+00  0.78210091988E+02  0.78210091988E+02  0.00000000000E+00 0.  1.
          2   -1    0    0  501    0  0.00000000000E+00 -0.00000000000E+00 -0.22866021677E+03  0.22866021677E+03  0.00000000000E+00 0. -1.
         23    2    1    2    0    0 -0.39840173558E+02 -0.44523301343E+02 -0.10648505882E+03  0.16143984094E+03  0.10561340207E+03 0.  0.
          5    1    1    2  502    0  0.43486185293E+02 -0.35852592719E+02 -0.75531480619E+01  0.57017358425E+02  0.41800000000E+01 0. -1.
         -5    1    1    2    0  502 -0.36460117357E+01  0.80375894063E+02 -0.36411917893E+02  0.88413109393E+02  0.41800000000E+01 0. -1.
        -11    1    3    3    0    0 -0.16916198511E+01  0.28176782843E+02 -0.16413240650E+01  0.28275194319E+02  0.00000000000E+00 0.  1.
         11    1    3    3    0    0 -0.38148553707E+02 -0.72700084186E+02 -0.10484373476E+03  0.13316464662E+03  0.00000000000E+00 0. -1.
</event>
<event>
 7    1  0.4274778E-006  0.1799622E+03  0.7561462E-02  0.1167840E+00
          2   -1    0    0  501    0  0.00000000000E+00  0.00000000000E+00  0.26295161067E+03  0.26295161067E+03  0.00000000000E+00 0. -1.
         -2   -1    0    0    0  501 -0.00000000000E+00 -0.00000000000E+00 -0.13533712400E+03  0.13533712400E+03  0.00000000000E+00 0.  1.
         23    2    1    2    0    0 -0.15367436969E+03  0.61840518330E+01  0.51983975938E+02  0.18610560858E+03  0.90988512419E+02 0.  0.
          5    1    1    2  502    0  0.80286642076E+02  0.48931723684E+02  0.14942890383E+01  0.94127380598E+02  0.41800000000E+01 0. -1.
         -5    1    1    2    0  502  0.73387727618E+02 -0.55115775517E+02  0.74136221692E+02  0.11805574549E+03  0.41800000000E+01 0. -1.
        -11    1    3    3    0    0 -0.60880922083E+02  0.42542088023E+02  0.43523863910E+02  0.86085089630E+02  0.00000000000E+00 0.  1.
         11    1    3    3    0    0 -0.92793447611E+02 -0.36358036190E+02  0.84601120281E+01  0.10002051895E+03  0.00000000000E+00 0. -1.
</event>
<event>
 7    1  0.4274778E-006  0.8326592E+02  0.7561462E-02  0.1320031E+00
         -2   -1    0    0    0  501 -0.00000000000E+00  0.00000000000E+00  0.73042266669E+03  0.73042266669E+03  0.00000000000E+00 0.  1.
          2   -1    0    0  501    0  0.00000000000E+00 -0.00000000000E+00 -0.27947491165E+02  0.27947491165E+02  0.00000000000E+00 0. -1.
         23    2    1    2    0    0 -0.31924993430E+02  0.53718792704E+02  0.13635518641E+03  0.17523599491E+03  0.90609067735E+02 0.  0.
          5    1    1    2  502    0 -0.17984921320E+01 -0.53571214635E+02  0.53292350934E+03  0.53562864824E+03  0.41800000000E+01 0.  1.
         -5    1    1    2    0  502  0.33723485562E+02 -0.14757806899E+00  0.33196479772E+02  0.47505514701E+02  0.41800000000E+01 0.  1.
        -11    1    3    3    0    0  0.10817763191E+02  0.25140924049E+02  0.11722253077E+03  0.12037529557E+03  0.00000000000E+00 0.  1.
         11    1    3    3    0    0 -0.42742756620E+02  0.28577868656E+02  0.19132655637E+02  0.54860699341E+02  0.00000000000E+00 0. -1.
</event>
<event>
 7    1  0.4274778E-006  0.1183442E+03  0.7561462E-02  0.1245854E+00
          2   -1    0    0  501    0  0.00000000000E+00  0.00000000000E+00  0.13708654341E+03  0.13708654341E+03  0.00000000000E+00 0.  1.
         -2   -1    0    0    0  501 -0.00000000000E+00 -0.00000000000E+00 -0.14521750052E+03  0.14521750052E+03  0.00000000000E+00 0. -1.
         23    2    1    2    0    0  0.80801324947E+02  0.28065347177E+02  0.21259892602E+02  0.12794121249E+03  0.92738627304E+02 0.  0.
          5    1    1    2  502    0 -0.50806703690E+02  0.45931280531E+02 -0.28772103367E+02  0.74406384157E+02  0.41800000000E+01 0. -1.
         -5    1    1    2    0  502 -0.29994621257E+02 -0.73996627708E+02 -0.61874634419E+00  0.79956447292E+02  0.41800000000E+01 0. -1.
        -11    1    3    3    0    0  0.36581675850E+02  0.23907765701E+02  0.56369477469E+02  0.71325439073E+02  0.00000000000E+00 0.  1.
         11    1    3    3    0    0  0.44219649096E+02  0.41575814763E+01 -0.35109584867E+02  0.56615773416E+02  0.00000000000E+00 0. -1.
</event>
<event>
 7    1  0.4274778E-006  0.1111603E+03  0.7561462E-02  0.1258436E+00
          2   -1    0    0  501    0  0.00000000000E+00  0.00000000000E+00  0.23212140867E+03  0.23212140867E+03  0.00000000000E+00 0. -1.
         -2   -1    0    0    0  501 -0.00000000000E+00 -0.00000000000E+00 -0.59515953888E+02  0.59515953888E+02  0.00000000000E+00 0.  1.
         23    2    1    2    0    0 -0.17142822494E+02 -0.44729296744E+02  0.12300326277E+03  0.16035378844E+03  0.91043662418E+02 0.  0.
          5    1    1    2  502    0  0.16185034972E+02 -0.35427940603E+02  0.51084593956E+01  0.39505228639E+02  0.41800000000E+01 0. -1.
         -5    1    1    2    0  502  0.95778752209E+00  0.80157237347E+02  0.44493732623E+02  0.91778345478E+02  0.41800000000E+01 0.  1.
        -11    1    3    3    0    0  0.34933262644E+02 -0.35835552853E+02  0.60199254734E+02  0.78284544821E+02  0.00000000000E+00 0. -1.
         11    1    3    3    0    0 -0.52076085138E+02 -0.88937438907E+01  0.62804008033E+02  0.82069243622E+02  0.00000000000E+00 0.  1.
</event>
<event>
 7    1  0.4274778E-006  0.1719708E+03  0.7561462E-02  0.1175808E+00
         -4   -1    0    0    0  501 -0.00000000000E+00  0.00000000000E+00  0.65344875565E+03  0.65344875565E+03  0.00000000000E+00 0. -1.
          4   -1    0    0  501    0  0.00000000000E+00 -0.00000000000E+00 -0.77613368698E+02  0.77613368698E+02  0.00000000000E+00 0.  1.
         23    2    1    2    0    0 -0.12428858625E+02 -0.15175015446E+03  0.72823619733E+02  0.19082967049E+03  0.89051095686E+02 0.  0.
          5    1    1    2  502    0  0.37539727957E+02  0.15938448235E+03  0.47075296762E+03  0.49843602730E+03  0.41800000000E+01 0. -1.
         -5    1    1    2    0  502 -0.25110869332E+02 -0.76343278900E+01  0.32258799596E+02  0.41796426550E+02  0.41800000000E+01 0. -1.
        -11    1    3    3    0    0  0.27530535441E+01 -0.87624902120E+02 -0.62573344920E+01  0.87891165712E+02  0.00000000000E+00 0.  1.
         11    1    3    3    0    0 -0.15181912169E+02 -0.64125252345E+02  0.79080954225E+02  0.10293850478E+03  0.00000000000E+00 0. -1.
</event>
<event>
 7    1  0.4274778E-006  0.1129819E+03  0.7561462E-02  0.1255145E+00
         -3   -1    0    0    0  501 -0.00000000000E+00  0.00000000000E+00  0.64583506157E+02  0.64583506157E+02  0.00000000000E+00 0.  1.
          3   -1    0    0  501    0  0.00000000000E+00 -0.00000000000E+00 -0.20878595669E+03  0.20878595669E+03  0.00000000000E+00 0. -1.
         23    2    1    2    0    0  0.24052636634E+02  0.23019270820E+02 -0.85047670506E+02  0.13105050555E+03  0.93982512135E+02 0.  0.
          5    1    1    2  502    0  0.28555787433E+02  0.36623119319E+02 -0.70711508779E+01  0.47160994893E+02  0.41800000000E+01 0.  1.
         -5    1    1    2    0  502 -0.52608424067E+02 -0.59642390139E+02 -0.52083629150E+02  0.95157962408E+02  0.41800000000E+01 0.  1.
        -11    1    3    3    0    0  0.41244806388E+02  0.51774382154E+02 -0.57249767307E+02  0.87517178646E+02  0.00000000000E+00 0.  1.
         11    1    3    3    0    0 -0.17192169755E+02 -0.28755111334E+02 -0.27797903199E+02  0.43533326900E+02  0.00000000000E+00 0. -1.
</event>
<event>
 7    1  0.4274778E-006  0.1088034E+03  0.7561462E-02  0.1262802E+00
          1   -1    0    0  501    0  0.00000000000E+00  0.00000000000E+00  0.75816479271E+02  0.75816479271E+02  0.00000000000E+00 0. -1.
         -1   -1    0    0    0  501 -0.00000000000E+00 -0.00000000000E+00 -0.20003185251E+03  0.20003185251E+03  0.00000000000E+00 0.  1.
         23    2    1    2    0    0  0.19369097793E+02 -0.54844569139E+02 -0.40058599584E+02  0.11425361861E+03  0.89811520711E+02 0.  0.
          5    1    1    2  502    0 -0.28681564651E+02 -0.21018191455E+02  0.12836530747E+02  0.38034792552E+02  0.41800000000E+01 0. -1.
         -5    1    1    2    0  502  0.93124668588E+01  0.75862760593E+02 -0.96993304404E+02  0.12355992062E+03  0.41800000000E+01 0. -1.
        -11    1    3    3    0    0  0.60028706089E+01 -0.78155702213E+02 -0.38517716826E+02  0.87338209012E+02  0.00000000000E+00 0.  1.
         11    1    3    3    0    0  0.13366227184E+02  0.23311133075E+02 -0.15408827590E+01  0.26915409602E+02  0.00000000000E+00 0. -1.
</event>
<event>
 7    1  0.4274778E-006  0.1247015E+03  0.7561462E-02  0.1235536E+00
          1   -1    0    0  501    0  0.00000000000E+00  0.00000000000E+00  0.38997381709E+03  0.38997381709E+03  0.00000000000E+00 0. -1.
         -1   -1    0    0    0  501 -0.00000000000E+00 -0.00000000000E+00 -0.44916427559E+02  0.44916427559E+02  0.00000000000E+00 0.  1.
         23    2    1    2    0    0  0.72590776971E+02  0.99111366288E+00  0.18265610340E+03  0.21741479623E+03  0.92927597106E+02 0.  0.
          5    1    1    2  502    0 -0.32383869923E+02  0.60508091758E+02  0.97793645179E+02  0.11954502765E+03  0.41800000000E+01 0.  1.
         -5    1    1    2    0  502 -0.40206907048E+02 -0.61499205421E+02  0.64607640956E+02  0.97930420768E+02  0.41800000000E+01 0.  1.
        -11    1    3    3    0    0  0.15401117491E+02  0.36582072915E+02  0.27557719680E+02  0.48320496611E+02  0.00000000000E+00 0.  1.
         11    1    3    3    0    0  0.57189659480E+02 -0.35590959252E+02  0.15509838372E+03  0.16909429962E+03  0.00000000000E+00 0. -1.
</event>
<event>
 7    1  0.4274778E-006  0.1467533E+03  0.7561462E-02  0.1204520E+00
          3   -1    0    0  501    0  0.00000000000E+00  0.00000000000E+00  0.73286133359E+03  0.73286133359E+03  0.00000000000E+00 0. -1.
         -3   -1    0    0    0  501 -0.00000000000E+00 -0.00000000000E+00 -0.41450492079E+02  0.41450492079E+02  0.00000000000E+00 0.  1.
         23    2    1    2    0    0  0.11898300887E+03  0.22749412212E+02  0.45560359164E+03  0.48117882595E+03  0.96353192352E+02 0.  0.
          5    1    1    2  502    0 -0.12906444829E+03  0.47058899132E+01  0.22880176532E+03  0.26276890498E+03  0.41800000000E+01 0.  1.
         -5    1    1    2    0  502  0.10081439414E+02 -0.27455302125E+02  0.70054845594E+01  0.30364094739E+02  0.41800000000E+01 0.  1.
        -11    1    3    3    0    0  0.94482259607E+02 -0.86946341323E+01  0.40895931841E+03  0.41982165041E+03  0.00000000000E+00 0. -1.
         11    1    3    3    0    0  0.24500749267E+02  0.31444046344E+02  0.46644273229E+02  0.61357175539E+02  0.00000000000E+00 0.  1.
</event>
<event>
 7    1  0.4274778E-006  0.1222942E+03  0.7561462E-02  0.1239360E+00
          3   -1    0    0  501    0  0.00000000000E+00  0.00000000000E+00  0.23724284122E+03  0.23724284122E+03  0.00000000000E+00 0.  1.
         -3   -1    0    0    0  501 -0.00000000000E+00 -0.00000000000E+00 -0.87114812737E+02  0.87114812737E+02  0.00000000000E+00 0. -1.
         23    2    1    2    0    0 -0.32202780031E+02  0.84301896785E+02  0.99198874264E+02  0.16192441199E+03  0.90748386761E+02 0.  0.
          5    1    1    2  502    0 -0.45035083522E+02 -0.16979461490E+02  0.32552720777E+02  0.58254724189E+02  0.41800000000E+01 0. -1.
         -5    1    1    2    0  502  0.77237863554E+02 -0.67322435295E+02  0.18376433442E+02  0.10417851778E+03  0.41800000000E+01 0. -1.
        -11    1    3    3    0    0 -0.16560890730E+02  0.13921298964E+02 -0.15383385568E+02  0.26546453966E+02  0.00000000000E+00 0. -1.
         11    1    3    3    0    0 -0.15641889301E+02  0.70380597821E+02  0.11458225983E+03  0.13537795802E+03  0.00000000000E+00 0.  1.
</event>
<event>
 7    1  0.4274778E-006  0.1020849E+03  0.7561462E-02  0.1275972E+00
         -2   -1    0    0    0  501 -0.00000000000E+00  0.00000000000E+00  0.13078784541E+03  0.13078784541E+03  0.00000000000E+00 0.  1.
          2   -1    0    0  501    0  0.00000000000E+00 -0.00000000000E+00 -0.10750498372E+03  0.10750498372E+03  0.00000000000E+00 0. -1.
         23    2    1    2    0    0 -0.48790001080E+02 -0.73860561515E+01  0.65938027553E+01  0.10279060886E+03  0.89930045059E+02 0.  0.
          5    1    1    2  502    0  0.90623443515E+02 -0.22886934644E-01  0.33671652013E+01  0.90782262804E+02  0.41800000000E+01 0. -1.
         -5    1    1    2    0  502 -0.41833442435E+02  0.74089430862E+01  0.13321893731E+02  0.44719957471E+02  0.41800000000E+01 0. -1.
        -11    1    3    3    0    0 -0.28993445915E+02  0.21250570635E+02  0.40529221978E+02  0.54174020457E+02  0.00000000000E+00 0.  1.
         11    1    3    3    0    0 -0.19796555165E+02 -0.28636626787E+02 -0.33935419223E+02  0.48616588403E+02  0.00000000000E+00 0. -1.
</event>
<event>
 7    1  0.4274778E-006  0.9306681E+02  0.7561462E-02  0.1295590E+00
         -1   -1    0    0    0  501 -0.00000000000E+00  0.00000000000E+00  0.69601473532E+02  0.69601473532E+02  0.00000000000E+00 0.  1.
          1   -1    0    0  501    0  0.00000000000E+00 -0.00000000000E+00 -0.23969323951E+03  0.23969323951E+03  0.00000000000E+00 0. -1.
         23    2    1    2    0    0 -0.49954918615E+02 -0.44400438169E+02 -0.97042758628E+02  0.14976230637E+03  0.92436781662E+02 0.  0.
          5    1    1    2  502    0 -0.86794648203E+01  0.40977461521E+02  0.22171420552E+02  0.47576567253E+02  0.41800000000E+01 0. -1.
         -5    1    1    2    0  502  0.58634383436E+02  0.34229766478E+01 -0.95220427905E+02  0.11195583942E+03  0.41800000000E+01 0. -1.
        -11    1    3    3    0    0 -0.46483624134E+02 -0.63123466153E+01 -0.10095028478E+03  0.11131726294E+03  0.00000000000E+00 0. -1.
         11    1    3    3    0    0 -0.34712944813E+01 -0.38088091553E+02  0.39075261498E+01  0.38445043428E+02  0.00000000000E+00 0.  1.
</event>
<event>
 6    1  0.4274778E-006  0.8999915E+02  0.7561462E-02  0.1302854E+00
          2   -1    0    0  501    0  0.00000000000E+00  0.00000000000E+00  0.12425549545E+03  0.12425549545E+03  0.00000000000E+00 0. -1.
         -2   -1    0    0    0  501 -0.00000000000E+00 -0.00000000000E+00 -0.78996551621E+02  0.78996551621E+02  0.00000000000E+00 0.  1.
          5    1    1    2  502    0  0.67169239891E+02 -0.80581470652E+01  0.30982582679E+02  0.74525387293E+02  0.41800000000E+01 0. -1.
         -5    1    1    2    0  502 -0.63199488125E+02 -0.38183421793E+01 -0.21948848583E+02  0.67141487848E+02  0.41800000000E+01 0.  1.
        -11    1    1    2    0    0  0.13807917216E+02  0.23690443240E+02  0.14067579978E+02  0.30818703496E+02  0.00000000000E+00 0. -1.
         11    1    1    2    0    0 -0.17777668983E+02 -0.11813953996E+02  0.22157629755E+02  0.30766468433E+02  0.00000000000E+00 0.  1.
</event>
<event>
 7    1  0.4274778E-006  0.2031662E+03  0.7561462E-02  0.1147095E+00
         -1   -1    0    0    0  501 -0.00000000000E+00  0.00000000000E+00  0.28395151131E+03  0.28395151131E+03  0.00000000000E+00 0.  1.
          1   -1    0    0  501    0  0.00000000000E+00 -0.00000000000E+00 -0.17538780881E+03  0.17538780881E+03  0.00000000000E+00 0. -1.
         23    2    1    2    0    0 -0.12030448228E+03  0.15461509561E+03  0.25313683489E+02  0.21244252926E+03  0.78179597212E+02 0.  0.
          5    1    1    2  502    0  0.79129617113E+02 -0.86454660173E+02  0.11196725620E+03  0.16214204708E+03  0.41800000000E+01 0. -1.
         -5    1    1    2    0  502  0.41174865168E+02 -0.68160435437E+02 -0.28717237198E+02  0.84754743778E+02  0.41800000000E+01 0. -1.
        -11    1    3    3    0    0  0.46662345585E+01  0.38327392267E+02  0.15011803870E+02  0.41426042514E+02  0.00000000000E+00 0.  1.
         11    1    3    3    0    0 -0.12497071684E+03  0.11628770334E+03  0.10301879619E+02  0.17101648675E+03  0.00000000000E+00 0. -1.
</event>
<event>
 7    1  0.4274778E-006  0.9581763E+02  0.7561462E-02  0.1289345E+00
         -1   -1    0    0    0  501 -0.00000000000E+00  0.00000000000E+00  0.44033509513E+02  0.44033509513E+02  0.00000000000E+00 0.  1.
          1   -1    0    0  501    0  0.00000000000E+00 -0.00000000000E+00 -0.38931811466E+03  0.38931811466E+03  0.00000000000E+00 0. -1.
         23    2    1    2    0    0  0.37432309392E+02  0.34791768164E+02 -0.23089421860E+03  0.25348658423E+03  0.91277945205E+02 0.  0.
          5    1    1    2  502    0 -0.49052562918E+00 -0.62171827199E+02 -0.11811343791E+03  0.13354337620E+03  0.41800000000E+01 0. -1.
         -5    1    1    2    0  502 -0.36941783763E+02  0.27380059035E+02  0.37230513661E+01  0.46321663742E+02  0.41800000000E+01 0.  1.
        -11    1    3    3    0    0  0.38528181429E+02  0.52658909779E+02 -0.22556031832E+03  0.23480808918E+03  0.00000000000E+00 0.  1.
         11    1    3    3    0    0 -0.10958720366E+01 -0.17867141615E+02 -0.53339002820E+01  0.18678495048E+02  0.00000000000E+00 0. -1.
</event>
<event>
 7    1  0.4274778E-006  0.3072644E+03  0.7561462E-02  0.1081665E+00
          2   -1    0    0  501    0  0.00000000000E+00  0.00000000000E+00  0.76939567947E+03  0.76939567947E+03  0.00000000000E+00 0. -1.
         -2   -1    0    0    0  501 -0.00000000000E+00 -0.00000000000E+00 -0.14628642082E+03  0.14628642082E+03  0.00000000000E+00 0.  1.
         23    2    1    2    0    0 -0.29450561625E+03  0.88718354853E+01  0.46797560257E+03  0.55997650253E+03  0.88092288656E+02 0.  0.
          5    1    1    2  502    0  0.26555718080E+03 -0.44335207211E+02  0.15297653886E+03  0.30968616487E+03  0.41800000000E+01 0. -1.
         -5    1    1    2    0  502  0.28948435451E+02  0.35463371726E+02  0.21571172221E+01  0.46019432895E+02  0.41800000000E+01 0. -1.
        -11    1    3    3    0    0 -0.19919591148E+03 -0.18714421968E+02  0.36945763183E+03  0.42015257045E+03  0.00000000000E+00 0. -1.
         11    1    3    3    0    0 -0.95309704772E+02  0.27586257453E+02  0.98517970737E+02  0.13982393208E+03  0.00000000000E+00 0.  1.
</event>
<event>
 7    1  0.4274778E-006  0.7621444E+02  0.7561462E-02  0.1340151E+00
          1   -1    0    0  501    0  0.00000000000E+00  0.00000000000E+00  0.11648966555E+03  0.11648966555E+03  0.00000000000E+00 0. -1.
         -1   -1    0    0    0  501 -0.00000000000E+00 -0.00000000000E+00 -0.13947083825E+03  0.13947083825E+03  0.00000000000E+00 0.  1.
         23    2    1    2    0    0  0.13518623717E+02 -0.65823187139E+02 -0.24462001524E+01  0.11248597865E+03  0.90175752537E+02 0.  0.
          5    1    1    2  502    0 -0.31038538797E+02  0.23312317267E+02 -0.67270671283E+02  0.77779628708E+02  0.41800000000E+01 0. -1.
         -5    1    1    2    0  502  0.17519915081E+02  0.42510869872E+02  0.46735698733E+02  0.65694896436E+02  0.41800000000E+01 0. -1.
        -11    1    3    3    0    0  0.62761940606E+01 -0.34628619609E+02 -0.46316886805E+02  0.58170318128E+02  0.00000000000E+00 0.  1.
         11    1    3    3    0    0  0.72424296560E+01 -0.31194567531E+02  0.43870686652E+02  0.54315660523E+02  0.00000000000E+00 0. -1.
</event>
<event>
 7    1  0.4274778E-006  0.1438277E+03  0.7561462E-02  0.1208269E+00
          1   -1    0    0  501    0  0.00000000000E+00  0.00000000000E+00  0.40602421886E+03  0.40602421886E+03  0.00000000000E+00 0. -1.
         -1   -1    0    0    0  501 -0.00000000000E+00 -0.00000000000E+00 -0.15862743047E+03  0.15862743047E+03  0.00000000000E+00 0.  1.
         23    2    1    2    0    0 -0.11343600234E+03 -0.31009484180E+02  0.33857588990E+03  0.37025309926E+03  0.92867699182E+02 0.  0.
          5    1    1    2  502    0  0.12729487180E+03  0.57527794850E+02 -0.84965071266E+02  0.16355417237E+03  0.41800000000E+01 0.  1.
         -5    1    1    2    0  502 -0.13858869454E+02 -0.26518310671E+02 -0.62140302510E+01  0.30844377694E+02  0.41800000000E+01 0.  1.
        -11    1    3    3    0    0 -0.90328998980E+02 -0.22731338968E+02  0.33203341579E+03  0.34485102730E+03  0.00000000000E+00 0. -1.
         11    1    3    3    0    0 -0.23107003362E+02 -0.82781452119E+01  0.65424741172E+01  0.25402071965E+02  0.00000000000E+00 0.  1.
</event>
<event>
 7    1  0.4274778E-006  0.1341858E+03  0.7561462E-02  0.1221374E+00
         -2   -1    0    0    0  501 -0.00000000000E+00  0.00000000000E+00  0.63595100959E+02  0.63595100959E+02  0.00000000000E+00 0.  1.
          2   -1    0    0  501    0  0.00000000000E+00 -0.00000000000E+00 -0.42613262005E+03  0.42613262005E+03  0.00000000000E+00 0. -1.
         23    2    1    2    0    0  0.11354189490E+03 -0.41464114493E+02 -0.20837147749E+03  0.25729439596E+03  0.90391918184E+02 0.  0.
          5    1    1    2  502    0 -0.12505624637E+03  0.38674280996E+02 -0.16847495404E+03  0.21339176954E+03  0.41800000000E+01 0. -1.
         -5    1    1    2    0  502  0.11514351471E+02  0.27898334966E+01  0.14308912448E+02  0.19041555508E+02  0.41800000000E+01 0. -1.
        -11    1    3    3    0    0  0.76940151744E+02 -0.12034039379E+02 -0.19260426157E+03  0.20775227226E+03  0.00000000000E+00 0. -1.
         11    1    3    3    0    0  0.36601743153E+02 -0.29430075114E+02 -0.15767215925E+02  0.49542123704E+02  0.00000000000E+00 0.  1.
</event>
<event>
 7    1  0.4274778E-006  0.1772175E+03  0.7561462E-02  0.1170523E+00
          2   -1    0    0  501    0  0.00000000000E+00  0.00000000000E+00  0.15210174775E+04  0.15210174775E+04  0.00000000000E+00 0. -1.
         -2   -1    0    0    0  501 -0.00000000000E+00 -0.00000000000E+00 -0.27114378128E+02  0.27114378128E+02  0.00000000000E+00 0.  1.
         23    2    1    2    0    0  0.15473217048E+03 -0.46913507257E+02  0.92211998983E+03  0.94090383357E+03  0.94084146620E+02 0.  0.
          5    1    1    2  502    0 -0.57924708815E+01  0.18195988593E+02  0.25739506539E+03  0.25813627953E+03  0.41800000000E+01 0. -1.
         -5    1    1    2    0  502 -0.14893969959E+03  0.28717518664E+02  0.31438804411E+03  0.34909174249E+03  0.41800000000E+01 0. -1.
        -11    1    3    3    0    0  0.96855028417E+02 -0.71374112125E+02  0.69095164633E+03  0.70134822875E+03  0.00000000000E+00 0. -1.
         11    1    3    3    0    0  0.57877142059E+02  0.24460604868E+02  0.23116834350E+03  0.23955560482E+03  0.00000000000E+00 0.  1.
</event>
<event>
 7    1  0.4274778E-006  0.7789296E+02  0.7561462E-02  0.1335140E+00
         -1   -1    0    0    0  501 -0.00000000000E+00  0.00000000000E+00  0.34937932014E+03  0.34937932014E+03  0.00000000000E+00 0.  1.
          1   -1    0    0  501    0  0.00000000000E+00 -0.00000000000E+00 -0.46721109303E+02  0.46721109303E+02  0.00000000000E+00 0. -1.
         23    2    1    2    0    0 -0.42930704189E+01 -0.43596161206E+02  0.55953496683E+02  0.11604946118E+03  0.91747631702E+02 0.  0.
          5    1    1    2  502    0  0.33531337136E+02 -0.82179714053E+01  0.10343843513E+02  0.36281581040E+02  0.41800000000E+01 0. -1.
         -5    1    1    2    0  502 -0.29238266717E+02  0.51814132612E+02  0.23636087064E+03  0.24376938723E+03  0.41800000000E+01 0. -1.
        -11    1    3    3    0    0 -0.23692635512E+02 -0.26032554931E+02  0.75555681597E+02  0.83352839875E+02  0.00000000000E+00 0.  1.
         11    1    3    3    0    0  0.19399565093E+02 -0.17563606275E+02 -0.19602184914E+02  0.32696621302E+02  0.00000000000E+00 0. -1.
</event>
<event>
 7    1  0.4274778E-006  0.9389446E+02  0.7561462E-02  0.1293686E+00
         -1   -1    0    0    0  501 -0.00000000000E+00  0.00000000000E+00  0.41539430159E+02  0.41539430159E+02  0.00000000000E+00 0.  1.
          1   -1    0    0  501    0  0.00000000000E+00 -0.00000000000E+00 -0.28086824355E+03  0.28086824355E+03  0.00000000000E+00 0. -1.
         23    2    1    2    0    0 -0.95091080106E+01 -0.15354369516E+02 -0.11958118345E+03  0.14830097034E+03  0.85833202017E+02 0.  0.
          5    1    1    2  502    0  0.23312428558E+02  0.62797588119E+02 -0.34444348216E+02  0.75438000522E+02  0.41800000000E+01 0.  1.
         -5    1    1    2    0  502 -0.13803320547E+02 -0.47443218603E+02 -0.85303281720E+02  0.98668702848E+02  0.41800000000E+01 0.  1.
        -11    1    3    3    0    0 -0.15114989538E+02  0.25611426071E+02 -0.10321358042E+02  0.31479175434E+02  0.00000000000E+00 0. -1.
         11    1    3    3    0    0  0.56058815274E+01 -0.40965795587E+02 -0.10925982541E+03  0.11682179490E+03  0.00000000000E+00 0.  1.
</event>
<event>
 7    1  0.4274778E-006  0.1267332E+03  0.7561462E-02  0.1232385E+00
          1   -1    0    0  501    0  0.00000000000E+00  0.00000000000E+00  0.26775941319E+02  0.26775941319E+02  0.00000000000E+00 0. -1.
         -1   -1    0    0    0  501 -0.00000000000E+00 -0.00000000000E+00 -0.93710396917E+03  0.93710396917E+03  0.00000000000E+00 0.  1.
         23    2    1    2    0    0 -0.90758310217E+02  0.30410396613E+02 -0.23179942748E+03  0.26730999547E+03  0.92529973550E+02 0.  0.
          5    1    1    2  502    0 -0.31033978249E+02 -0.12070949106E+02 -0.11980365724E+03  0.12441545044E+03  0.41800000000E+01 0. -1.
         -5    1    1    2    0  502  0.12179228847E+03 -0.18339447507E+02 -0.55872494313E+03  0.57215446458E+03  0.41800000000E+01 0. -1.
        -11    1    3    3    0    0 -0.53172586209E+02  0.24785921319E+02 -0.38178936303E+02  0.69994978370E+02  0.00000000000E+00 0. -1.
         11    1    3    3    0    0 -0.37585724008E+02  0.56244752934E+01 -0.19362049118E+03  0.19731501710E+03  0.00000000000E+00 0.  1.
</event>
<event>
 7    1  0.4274778E-006  0.1190798E+03  0.7561462E-02  0.1244623E+00
          1   -1    0    0  501    0  0.00000000000E+00  0.00000000000E+00  0.53459905711E+03  0.53459905711E+03  0.00000000000E+00 0. -1.
         -1   -1    0    0    0  501 -0.00000000000E+00 -0.00000000000E+00 -0.11028310395E+03  0.11028310395E+03  0.00000000000E+00 0.  1.
         23    2    1    2    0    0  0.77573418149E+02  0.29875603824E+02  0.46930250666E+03  0.48561060038E+03  0.93073226741E+02 0.  0.
          5    1    1    2  502    0 -0.60088932537E+01 -0.40326090851E+02  0.33154026621E+02  0.52715863672E+02  0.41800000000E+01 0. -1.
         -5    1    1    2    0  502 -0.71564524895E+02  0.10450487027E+02 -0.78140580127E+02  0.10655569701E+03  0.41800000000E+01 0.  1.
        -11    1    3    3    0    0 -0.16942512211E+02 -0.12594612773E+02  0.73900588011E+02  0.76856814267E+02  0.00000000000E+00 0.  1.
         11    1    3    3    0    0  0.94515930360E+02  0.42470216597E+02  0.39540191865E+03  0.40875378611E+03  0.00000000000E+00 0. -1.
</event>
<event>
 7    1  0.4985104E-006  0.1877063E+03  0.7561462E-02  0.1160547E+00
          1   -1    0    0  501    0  0.00000000000E+00  0.00000000000E+00  0.76402897625E+02  0.76402897625E+02  0.00000000000E+00 0. -1.
         -1   -1    0    0    0  501 -0.00000000000E+00 -0.00000000000E+00 -0.49718518136E+03  0.49718518136E+03  0.00000000000E+00 0.  1.
         23    2    1    2    0    0 -0.12892679517E+03  0.96374697025E+02 -0.16837403521E+03  0.24913853227E+03  0.88374157904E+02 0.  0.
          5    1    1    2  502    0  0.32124610738E+02 -0.88880908459E+02 -0.17969791733E+03  0.20307786781E+03  0.41800000000E+01 0. -1.
         -5    1    1    2    0  502  0.96802184435E+02 -0.74937885660E+01 -0.72710331195E+02  0.12137167891E+03  0.41800000000E+01 0. -1.
        -11    1    3    3    0    0 -0.27385997284E+02 -0.16365903802E+02 -0.29450010739E+02  0.43418184981E+02  0.00000000000E+00 0.  1.
         11    1    3    3    0    0 -0.10154079789E+03  0.11274060083E+03 -0.13892402447E+03  0.20572034728E+03  0.00000000000E+00 0. -1.
</event>
<event>
 7    1  0.4274778E-006  0.7803545E+02  0.7561462E-02  0.1334721E+00
         -2   -1    0    0    0  501 -0.00000000000E+00  0.00000000000E+00  0.50334279300E+03  0.50334279300E+03  0.00000000000E+00 0.  1.
          2   -1    0    0  501    0  0.00000000000E+00 -0.00000000000E+00 -0.29347252884E+02  0.29347252884E+02  0.00000000000E+00 0. -1.
         23    2    1    2    0    0 -0.65314384728E+01  0.13724667197E+02  0.88124655177E+02  0.12676580609E+03  0.89847585190E+02 0.  0.
          5    1    1    2  502    0 -0.76803859454E+01 -0.54540246530E+02  0.33280542216E+03  0.33735818982E+03  0.41800000000E+01 0. -1.
         -5    1    1    2    0  502  0.14211824418E+02  0.40815579333E+02  0.53065462782E+02  0.68566049980E+02  0.41800000000E+01 0. -1.
        -11    1    3    3    0    0  0.20175001042E+02  0.21613265466E+02 -0.46250975456E+01  0.29925832293E+02  0.00000000000E+00 0. -1.
         11    1    3    3    0    0 -0.26706439515E+02 -0.78885982686E+01  0.92749752722E+02  0.96839973793E+02  0.00000000000E+00 0.  1.
</event>
<event>
 7    1  0.4274778E-006  0.1252824E+03  0.7561462E-02  0.1234629E+00
          1   -1    0    0  501    0  0.00000000000E+00  0.00000000000E+00  0.70074515665E+03  0.70074515665E+03  0.00000000000E+00 0. -1.
         -1   -1    0    0    0  501 -0.00000000000E+00 -0.00000000000E+00 -0.30780355194E+02  0.30780355194E+02  0.00000000000E+00 0.  1.
         23    2    1    2    0    0  0.28002633895E+01 -0.63494793838E+02  0.49451384960E+03  0.50686846404E+03  0.91281225222E+02 0.  0.
          5    1    1    2  502    0 -0.76564433584E+01  0.10099326744E+03  0.11571781305E+03  0.15383870076E+03  0.41800000000E+01 0. -1.
         -5    1    1    2    0  502  0.48561799689E+01 -0.37498473601E+02  0.59733138804E+02  0.70818347042E+02  0.41800000000E+01 0. -1.
        -11    1    3    3    0    0  0.46387738177E+02 -0.23515115399E+02  0.24066280979E+03  0.24621813686E+03  0.00000000000E+00 0. -1.
         11    1    3    3    0    0 -0.43587474788E+02 -0.39979678440E+02  0.25385103981E+03  0.26065032718E+03  0.00000000000E+00 0.  1.
</event>
<event>
 7    1  0.4274778E-006  0.8459318E+02  0.7561462E-02  0.1316500E+00
          1   -1    0    0  501    0  0.00000000000E+00  0.00000000000E+00  0.47808847888E+03  0.47808847888E+03  0.00000000000E+00 0. -1.
         -1   -1    0    0    0  501 -0.00000000000E+00 -0.00000000000E+00 -0.29818026991E+02  0.29818026991E+02  0.00000000000E+00 0.  1.
         23    2    1    2    0    0  0.24469673248E+02 -0.40853386806E+01  0.28817421076E+03  0.30322572329E+03  0.91027515716E+02 0.  0.
          5    1    1    2  502    0  0.74697811769E+01  0.43379472660E+02  0.88032139575E+01  0.45083758218E+02  0.41800000000E+01 0.  1.
         -5    1    1    2    0  502 -0.31939454424E+02 -0.39294133979E+02  0.15129302717E+03  0.15959702436E+03  0.41800000000E+01 0.  1.
        -11    1    3    3    0    0 -0.23574476647E+02  0.75012493573E+01  0.23997703958E+02  0.34466135356E+02  0.00000000000E+00 0.  1.
         11    1    3    3    0    0  0.48044149894E+02 -0.11586588038E+02  0.26417650681E+03  0.26875958794E+03  0.00000000000E+00 0. -1.
</event>
<event>
 7    1  0.4274778E-006  0.9931085E+02  0.7561462E-02  0.1281752E+00
         -1   -1    0    0    0  501 -0.00000000000E+00  0.00000000000E+00  0.24998035934E+02  0.24998035934E+02  0.00000000000E+00 0.  1.
          1   -1    0    0  501    0  0.00000000000E+00 -0.00000000000E+00 -0.81775913308E+03  0.81775913308E+03  0.00000000000E+00 0. -1.
         23    2    1    2    0    0 -0.49128792594E+02  0.49407385520E+02 -0.54120365399E+03  0.55330349855E+03  0.91589510371E+02 0.  0.
          5    1    1    2  502    0  0.55060451441E+02 -0.23517576959E+02 -0.31543002688E+02  0.67802383125E+02  0.41800000000E+01 0. -1.
         -5    1    1    2    0  502 -0.59316588468E+01 -0.25889808561E+02 -0.22001444047E+03  0.22165128734E+03  0.41800000000E+01 0. -1.
        -11    1    3    3    0    0  0.20954854587E+02  0.34031053691E+02 -0.13422689163E+03  0.14005026591E+03  0.00000000000E+00 0.  1.
         11    1    3    3    0    0 -0.70083647182E+02  0.15376331829E+02 -0.40697676236E+03  0.41325323264E+03  0.00000000000E+00 0. -1.
</event>
<event>
 7    1  0.4274778E-006  0.7078722E+02  0.7561462E-02  0.1357436E+00
          1   -1    0    0  501    0  0.00000000000E+00  0.00000000000E+00  0.24302454223E+03  0.24302454223E+03  0.00000000000E+00 0. -1.
         -1   -1    0    0    0  501 -0.00000000000E+00 -0.00000000000E+00 -0.70568416297E+02  0.70568416297E+02  0.00000000000E+00 0.  1.
         23    2    1    2    0    0  0.18673463548E+02 -0.29586932287E+02  0.15387251237E+03  0.18238145263E+03  0.91444843479E+02 0.  0.
          5    1    1    2  502    0 -0.14699558431E+02  0.13141955951E+01 -0.52393809193E+02  0.54592927838E+02  0.41800000000E+01 0.  1.
         -5    1    1    2    0  502 -0.39739051167E+01  0.28272736692E+02  0.70977422753E+02  0.76618578051E+02  0.41800000000E+01 0.  1.
        -11    1    3    3    0    0 -0.19211017854E+02 -0.50553989718E+02  0.75956397904E+02  0.93242390928E+02  0.00000000000E+00 0.  1.
         11    1    3    3    0    0  0.37884481402E+02  0.20967057431E+02  0.77916114464E+02  0.89139061705E+02  0.00000000000E+00 0. -1.
</event>
<event>
 7    1  0.4274778E-006  0.1116446E+03  0.7561462E-02  0.1257554E+00
          2   -1    0    0  501    0  0.00000000000E+00  0.00000000000E+00  0.57844510622E+03  0.57844510622E+03  0.00000000000E+00 0. -1.
         -2   -1    0    0    0  501 -0.00000000000E+00 -0.00000000000E+00 -0.22111525693E+02  0.22111525693E+02  0.00000000000E+00 0.  1.
         23    2    1    2    0    0 -0.22716249648E+02  0.18304638959E+02  0.28462183196E+03  0.30001551943E+03  0.90269800387E+02 0.  0.
          5    1    1    2  502    0  0.10939296063E+02  0.53896177394E+02  0.11440170031E+03  0.12700270694E+03  0.41800000000E+01 0. -1.
         -5    1    1    2    0  502  0.11776953585E+02 -0.72200816353E+02  0.15731004825E+03  0.17353840555E+03  0.41800000000E+01 0. -1.
        -11    1    3    3    0    0 -0.66719824356E+01  0.54689911122E+02  0.16366241996E+03  0.17268725904E+03  0.00000000000E+00 0.  1.
         11    1    3    3    0    0 -0.16044267212E+02 -0.36385272163E+02  0.12095941200E+03  0.12732826039E+03  0.00000000000E+00 0. -1.
</event>
<event>
 7    1  0.4274778E-006  0.9343978E+02  0.7561462E-02  0.1294729E+00
         -1   -1    0    0    0  501 -0.00000000000E+00  0.00000000000E+00  0.55022130142E+03  0.55022130142E+03  0.00000000000E+00 0.  1.
          1   -1    0    0  501    0  0.00000000000E+00 -0.00000000000E+00 -0.53438265134E+02  0.53438265134E+02  0.00000000000E+00 0. -1.
         23    2    1    2    0    0  0.77832009817E+02 -0.36855499883E+02  0.62658189011E+02  0.14373782576E+03  0.96531675008E+02 0.  0.
          5    1    1    2  502    0 -0.11905229623E+02  0.32011076351E+02  0.18527488836E+02  0.39079198355E+02  0.41800000000E+01 0.  1.
         -5    1    1    2    0  502 -0.65926780194E+02  0.48444235316E+01  0.41559735844E+03  0.42084254244E+03  0.41800000000E+01 0.  1.
        -11    1    3    3    0    0  0.63379499661E+02 -0.31913757822E+02 -0.80341218053E+01  0.71414256481E+02  0.00000000000E+00 0. -1.
         11    1    3    3    0    0  0.14452510156E+02 -0.49417420607E+01  0.70692310817E+02  0.72323569277E+02  0.00000000000E+00 0.  1.
</event>
<event>
 7    1  0.4274778E-006  0.1135762E+03  0.7561462E-02  0.1254087E+00
         -4   -1    0    0    0  501 -0.00000000000E+00  0.00000000000E+00  0.56039929535E+02  0.56039929535E+02  0.00000000000E+00 0.  1.
          4   -1    0    0  501    0  0.00000000000E+00 -0.00000000000E+00 -0.27723918678E+03  0.27723918678E+03  0.00000000000E+00 0. -1.
         23    2    1    2    0    0 -0.74569506074E+02 -0.17584808982E+02 -0.47191738777E+02  0.10569376365E+03  0.55446142534E+02 0.  0.
          5    1    1    2  502    0  0.10186675079E+03  0.27624132658E+01 -0.16666495895E+03  0.19539484841E+03  0.41800000000E+01 0.  1.
         -5    1    1    2    0  502 -0.27297244717E+02  0.14822395716E+02 -0.73425595139E+01  0.32190504254E+02  0.41800000000E+01 0.  1.
        -11    1    3    3    0    0 -0.74256804132E+02 -0.30952271841E+02 -0.44889442222E+02  0.92125881895E+02  0.00000000000E+00 0. -1.
         11    1    3    3    0    0 -0.31270194195E+00  0.13367462859E+02 -0.23022965556E+01  0.13567881751E+02  0.00000000000E+00 0.  1.
</event>
<event>
 7    1  0.4274778E-006  0.7277190E+02  0.7561462E-02  0.1350913E+00
         -2   -1    0    0    0  501 -0.00000000000E+00  0.00000000000E+00  0.60237636624E+02  0.60237636624E+02  0.00000000000E+00 0.  1.
          2   -1    0    0  501    0  0.00000000000E+00 -0.00000000000E+00 -0.24730856150E+03  0.24730856150E+03  0.00000000000E+00 0. -1.
         23    2    1    2    0    0  0.32775395348E+02  0.30563109856E+02 -0.12522626383E+03  0.16098420785E+03  0.90697121220E+02 0.  0.
          5    1    1    2  502    0 -0.90291840758E+01 -0.40525407229E+01 -0.96271562358E+02  0.96869166252E+02  0.41800000000E+01 0.  1.
         -5    1    1    2    0  502 -0.23746211273E+02 -0.26510569133E+02  0.34426901316E+02  0.49692824027E+02  0.41800000000E+01 0.  1.
        -11    1    3    3    0    0  0.50269754141E+02 -0.13082251367E+02 -0.48919996306E+02  0.71353763186E+02  0.00000000000E+00 0. -1.
         11    1    3    3    0    0 -0.17494358792E+02  0.43645361224E+02 -0.76306267528E+02  0.89630444660E+02  0.00000000000E+00 0.  1.
</event>
<event>
 7    1  0.4274778E-006  0.1106816E+03  0.7561462E-02  0.1259313E+00
         -2   -1    0    0    0  501 -0.00000000000E+00  0.00000000000E+00  0.36508682348E+03  0.36508682348E+03  0.00000000000E+00 0.  1.
          2   -1    0    0  501    0  0.00000000000E+00 -0.00000000000E+00 -0.64724993353E+02  0.64724993353E+02  0.00000000000E+00 0. -1.
         23    2    1    2    0    0  0.41808420802E+02 -0.17530858252E+02  0.61415220913E+00  0.10186195057E+03  0.91215156356E+02 0.  0.
          5    1    1    2  502    0  0.18505557310E+02  0.54144721346E+02  0.91151380142E+02  0.10770400644E+03  0.41800000000E+01 0. -1.
         -5    1    1    2    0  502 -0.60313978112E+02 -0.36613863094E+02  0.20859629778E+03  0.22024585983E+03  0.41800000000E+01 0. -1.
        -11    1    3    3    0    0  0.14295870835E+02 -0.49272347658E+02  0.20673010035E+02  0.55312833145E+02  0.00000000000E+00 0.  1.
         11    1    3    3    0    0  0.27512549967E+02  0.31741489406E+02 -0.20058857825E+02  0.46549117420E+02  0.00000000000E+00 0. -1.
</event>
<event>
 7    1  0.4274778E-006  0.5571532E+02  0.7561462E-02  0.1416746E+00
         -1   -1    0    0    0  501 -0.00000000000E+00  0.00000000000E+00  0.19788692374E+03  0.19788692374E+03  0.00000000000E+00 0.  1.
          1   -1    0    0  501    0  0.00000000000E+00 -0.00000000000E+00 -0.86401375757E+02  0.86401375757E+02  0.00000000000E+00 0. -1.
         23    2    1    2    0    0 -0.50306861230E+01  0.22887122641E+02 -0.25709857104E+02  0.97157073429E+02  0.90715886036E+02 0.  0.
          5    1    1    2  502    0 -0.12780826784E+02 -0.29990180728E+02  0.15631425267E+03  0.15973220859E+03  0.41800000000E+01 0.  1.
         -5    1    1    2    0  502  0.17811512907E+02  0.71030580867E+01 -0.19118847579E+02  0.27399017482E+02  0.41800000000E+01 0.  1.
        -11    1    3    3    0    0 -0.18081832891E+02 -0.11991943062E+02 -0.48753388445E+02  0.53363398167E+02  0.00000000000E+00 0. -1.
         11    1    3    3    0    0  0.13051146768E+02  0.34879065703E+02  0.23043531341E+02  0.43793675262E+02  0.00000000000E+00 0.  1.
</event>
<event>
 7    1  0.4274778E-006  0.1472567E+03  0.7561462E-02  0.1203885E+00
          3   -1    0    0  501    0  0.00000000000E+00  0.00000000000E+00  0.10974418585E+03  0.10974418585E+03  0.00000000000E+00 0. -1.
         -3   -1    0    0    0  501 -0.00000000000E+00 -0.00000000000E+00 -0.23371611555E+03  0.23371611555E+03  0.00000000000E+00 0.  1.
         23    2    1    2    0    0 -0.17157954610E+02  0.96732209010E+02 -0.18143340195E+01  0.14290759869E+03  0.10376788660E+03 0.  0.
          5    1    1    2  502    0  0.33041861935E+02  0.21475328922E+02 -0.27655585776E+02  0.48324509486E+02  0.41800000000E+01 0. -1.
         -5    1    1    2    0  502 -0.15883907325E+02 -0.11820753793E+03 -0.94502009904E+02  0.15222819322E+03  0.41800000000E+01 0. -1.
        -11    1    3    3    0    0 -0.55733051870E+02  0.64751320060E+02 -0.23045380336E+02  0.88487265045E+02  0.00000000000E+00 0.  1.
         11    1    3    3    0    0  0.38575097260E+02  0.31980888950E+02  0.21231046317E+02  0.54420333648E+02  0.00000000000E+00 0. -1.
</event>
<event>
 7    1  0.4274778E-006  0.1936260E+03  0.7561462E-02  0.1155231E+00
          2   -1    0    0  501    0  0.00000000000E+00  0.00000000000E+00  0.23204571499E+03  0.23204571499E+03  0.00000000000E+00 0. -1.
         -2   -1    0    0    0  501 -0.00000000000E+00 -0.00000000000E+00 -0.18713660170E+03  0.18713660170E+03  0.00000000000E+00 0.  1.
         23    2    1    2    0    0  0.58492441213E+02  0.16763466013E+03  0.27234096403E+02  0.20127275841E+03  0.90809043133E+02 0.  0.
          5    1    1    2  502    0  0.20887358884E+02 -0.21350987984E+02  0.39825251098E+02  0.49956675971E+02  0.41800000000E+01 0. -1.
         -5    1    1    2    0  502 -0.79379800098E+02 -0.14628367215E+03 -0.22150234205E+02  0.16795288231E+03  0.41800000000E+01 0. -1.
        -11    1    3    3    0    0  0.66087973040E+02  0.85222236246E+02 -0.14101491766E+02  0.10876259376E+03  0.00000000000E+00 0.  1.
         11    1    3    3    0    0 -0.75955318269E+01  0.82412423885E+02  0.41335588169E+02  0.92510164650E+02  0.00000000000E+00 0. -1.
</event>
<event>
 7    1  0.4274778E-006  0.1428184E+03  0.7561462E-02  0.1209586E+00
         -1   -1    0    0    0  501 -0.00000000000E+00  0.00000000000E+00  0.52261163149E+02  0.52261163149E+02  0.00000000000E+00 0.  1.
          1   -1    0    0  501    0  0.00000000000E+00 -0.00000000000E+00 -0.40144547932E+03  0.40144547932E+03  0.00000000000E+00 0. -1.
         23    2    1    2    0    0 -0.54515085019E+01  0.94789787153E+02 -0.16715115677E+03  0.21329674334E+03  0.92418444127E+02 0.  0.
          5    1    1    2  502    0  0.63922346318E+02 -0.63280842930E+02 -0.95687335881E+02  0.13139280836E+03  0.41800000000E+01 0.  1.
         -5    1    1    2    0  502 -0.58470837816E+02 -0.31508944224E+02 -0.86345823518E+02  0.10901709077E+03  0.41800000000E+01 0.  1.
        -11    1    3    3    0    0 -0.45009919342E+02  0.66928344749E+02 -0.79920689819E+02  0.11354564206E+03  0.00000000000E+00 0. -1.
         11    1    3    3    0    0  0.39558410840E+02  0.27861442404E+02 -0.87230466950E+02  0.99751101274E+02  0.00000000000E+00 0.  1.
</event>
<event>
 7    1  0.4274778E-006  0.1529730E+03  0.7561462E-02  0.1196867E+00
          1   -1    0    0  501    0  0.00000000000E+00  0.00000000000E+00  0.21025129556E+03  0.21025129556E+03  0.00000000000E+00 0. -1.
         -1   -1    0    0    0  501 -0.00000000000E+00 -0.00000000000E+00 -0.17299887586E+03  0.17299887586E+03  0.00000000000E+00 0.  1.
         23    2    1    2    0    0 -0.12675694225E+03 -0.30089650873E+02  0.10367593860E+03  0.19081594668E+03  0.93216499421E+02 0.  0.
          5    1    1    2  502    0  0.12392502715E+03  0.67931466587E+01 -0.94173675285E+02  0.15585157270E+03  0.41800000000E+01 0. -1.
         -5    1    1    2    0  502  0.28319150948E+01  0.23296504214E+02  0.27750156377E+02  0.36582652045E+02  0.41800000000E+01 0. -1.
        -11    1    3    3    0    0 -0.78068490433E+02  0.27265671854E+02  0.38242054137E+02  0.91107413336E+02  0.00000000000E+00 0.  1.
         11    1    3    3    0    0 -0.48688451815E+02 -0.57355322727E+02  0.65433884465E+02  0.99708533343E+02  0.00000000000E+00 0. -1.
</event>
<event>
 7    1  0.4274778E-006  0.1192216E+03  0.7561462E-02  0.1244387E+00
          2   -1    0    0  501    0  0.00000000000E+00  0.00000000000E+00  0.11048839439E+03  0.11048839439E+03  0.00000000000E+00 0. -1.
         -2   -1    0    0    0  501 -0.00000000000E+00 -0.00000000000E+00 -0.15893548010E+03  0.15893548010E+03  0.00000000000E+00 0.  1.
         23    2    1    2    0    0 -0.58011294863E+02 -0.47548972851E+02 -0.90332544965E+01  0.11833679226E+03  0.91081181183E+02 0.  0.
          5    1    1    2  502    0  0.94274185408E+02  0.12560256648E+02 -0.28301082032E+02  0.99316694093E+02  0.41800000000E+01 0. -1.
         -5    1    1    2    0  502 -0.36262890545E+02  0.34988716204E+02 -0.11112749180E+02  0.51770388125E+02  0.41800000000E+01 0. -1.
        -11    1    3    3    0    0 -0.39588135878E+02 -0.58954247706E+02 -0.39262445305E+02  0.81144090581E+02  0.00000000000E+00 0.  1.
         11    1    3    3    0    0 -0.18423158985E+02  0.11405274855E+02  0.30229190809E+02  0.37192701683E+02  0.00000000000E+00 0. -1.
</event>
<event>
 7    1  0.4274778E-006  0.3331688E+03  0.7561462E-02  0.1069743E+00
         -2   -1    0    0    0  501 -0.00000000000E+00  0.00000000000E+00  0.10533051367E+03  0.10533051367E+03  0.00000000000E+00 0.  1.
          2   -1    0    0  501    0  0.00000000000E+00 -0.00000000000E+00 -0.11018218980E+04  0.11018218980E+04  0.00000000000E+00 0. -1.
         23    2    1    2    0    0  0.31426407877E+03  0.69442138983E+02 -0.52353158159E+03  0.62155329987E+03  0.93054101429E+02 0.  0.
          5    1    1    2  502    0 -0.12694112099E+03 -0.69762818467E+02 -0.12943712763E+03  0.19429961772E+03  0.41800000000E+01 0.  1.
         -5    1    1    2    0  502 -0.18732295778E+03  0.32067948431E+00 -0.34352267512E+03  0.39129949408E+03  0.41800000000E+01 0.  1.
        -11    1    3    3    0    0  0.18646144947E+03 -0.42944320429E+01 -0.26867742999E+03  0.32706861003E+03  0.00000000000E+00 0.  1.
         11    1    3    3    0    0  0.12780262931E+03  0.73736571026E+02 -0.25485415160E+03  0.29448468984E+03  0.00000000000E+00 0. -1.
</event>
<event>
 7    1  0.4274778E-006  0.9353349E+02  0.7561462E-02  0.1294514E+00
          1   -1    0    0  501    0  0.00000000000E+00  0.00000000000E+00  0.83643071504E+02  0.83643071504E+02  0.00000000000E+00 0. -1.
         -1   -1    0    0    0  501 -0.00000000000E+00 -0.00000000000E+00 -0.16783302096E+03  0.16783302096E+03  0.00000000000E+00 0.  1.
         23    2    1    2    0    0 -0.11966927304E+02  0.44163795159E+02 -0.28630802643E+02  0.10715489738E+03  0.92567818488E+02 0.  0.
          5    1    1    2  502    0  0.87504111535E+01  0.18822388551E+02 -0.75207338853E+02  0.78131096392E+02  0.41800000000E+01 0.  1.
         -5    1    1    2    0  502  0.32165161507E+01 -0.62986183710E+02  0.19648192043E+02  0.66190098693E+02  0.41800000000E+01 0.  1.
        -11    1    3    3    0    0 -0.52292017362E+02  0.22720304770E+02 -0.10279436187E+02  0.57933877282E+02  0.00000000000E+00 0.  1.
         11    1    3    3    0    0  0.40325090058E+02  0.21443490389E+02 -0.18351366457E+02  0.49221020094E+02  0.00000000000E+00 0. -1.
</event>
<event>
 7    1  0.4274778E-006  0.1191070E+03  0.7561462E-02  0.1244578E+00
          1   -1    0    0  501    0  0.00000000000E+00  0.00000000000E+00  0.26416818804E+03  0.26416818804E+03  0.00000000000E+00 0. -1.
         -1   -1    0    0    0  501 -0.00000000000E+00 -0.00000000000E+00 -0.77593648978E+02  0.77593648978E+02  0.00000000000E+00 0.  1.
         23    2    1    2    0    0  0.87068571189E+02 -0.14353204010E+02  0.12074783831E+03  0.17513714280E+03  0.91137411516E+02 0.  0.
          5    1    1    2  502    0 -0.33735657896E+02  0.66453414863E+02  0.51241452139E+02  0.90538995897E+02  0.41800000000E+01 0. -1.
         -5    1    1    2    0  502 -0.53332913293E+02 -0.52100210854E+02  0.14585248610E+02  0.76085698317E+02  0.41800000000E+01 0. -1.
        -11    1    3    3    0    0  0.62221682499E+02 -0.15137997571E+02  0.13285771323E+03  0.14748514741E+03  0.00000000000E+00 0. -1.
         11    1    3    3    0    0  0.24846888691E+02  0.78479356177E+00 -0.12109874916E+02  0.27651995390E+02  0.00000000000E+00 0.  1.
</event>
<event>
 7    1  0.4274778E-006  0.1106302E+03  0.7561462E-02  0.1259407E+00
          2   -1    0    0  501    0  0.00000000000E+00  0.00000000000E+00  0.72689803752E+02  0.72689803752E+02  0.00000000000E+00 0. -1.
         -2   -1    0    0    0  501 -0.00000000000E+00 -0.00000000000E+00 -0.19962901155E+03  0.19962901155E+03  0.00000000000E+00 0.  1.
         23    2    1    2    0    0  0.47122051932E+02  0.20159151738E+02 -0.35829445283E+02  0.10929876649E+03  0.89641463792E+02 0.  0.
          5    1    1    2  502    0 -0.48582859362E+01  0.45892313484E+02 -0.65871056221E+02  0.80536797968E+02  0.41800000000E+01 0. -1.
         -5    1    1    2    0  502 -0.42263765996E+02 -0.66051465223E+02 -0.25238706298E+02  0.82483250844E+02  0.41800000000E+01 0. -1.
        -11    1    3    3    0    0  0.44188101541E+02  0.49818366220E+02 -0.42179007523E+02  0.78825925977E+02  0.00000000000E+00 0.  1.
         11    1    3    3    0    0  0.29339503916E+01 -0.29659214481E+02  0.63495622395E+01  0.30472840517E+02  0.00000000000E+00 0. -1.
</event>
<event>
 7    1  0.4274778E-006  0.8577923E+02  0.7561462E-02  0.1313407E+00
         -1   -1    0    0    0  501 -0.00000000000E+00  0.00000000000E+00  0.32902481147E+03  0.32902481147E+03  0.00000000000E+00 0.  1.
          1   -1    0    0  501    0  0.00000000000E+00 -0.00000000000E+00 -0.44493258102E+02  0.44493258102E+02  0.00000000000E+00 0. -1.
         23    2    1    2    0    0  0.31867973808E+02  0.20242829808E+01  0.50624813863E+02  0.10634552381E+03  0.87902407133E+02 0.  0.
          5    1    1    2  502    0 -0.60031607742E+02 -0.21348361240E+02  0.52883147338E+02  0.82907455202E+02  0.41800000000E+01 0.  1.
         -5    1    1    2    0  502  0.28163633934E+02  0.19324078260E+02  0.18102359217E+03  0.18426509056E+03  0.41800000000E+01 0.  1.
        -11    1    3    3    0    0 -0.19940777801E+02  0.72656991024E+01  0.49945755616E+02  0.54267886515E+02  0.00000000000E+00 0.  1.
         11    1    3    3    0    0  0.51808751609E+02 -0.52414161216E+01  0.67905824685E+00  0.52077637296E+02  0.00000000000E+00 0. -1.
</event>
